<LesHouchesEvents version="3.0">
<!--
file generated with POWHEG-BOX-V2
Input file powheg.input contained:
! ggHH production parameters:
mtdep 2              ! 0: Higgs effective field theory (HEFT)

hmass 125            ! Higgs boson mass
topmass 173          ! top quark mass (THIS VALUE IS HARD CODED IN THE VIRTUAL
hdecaymode -1        ! PDG code for Higgs boson decay products (it affects only the SMC)
!                      allowed values are:
!                      0 all decay channels open
!                      1-6 d dbar, u ubar,..., t tbar (as in HERWIG)
!                      7-9 e+ e-, mu+ mu-, tau+ tau-
!                      10  W+W-
!                      11  ZZ
!                      12  gamma gamma
!                      -1  all decay channels closed

! general parameters:
numevts  3000        ! number of events to be generated
ih1         1        ! hadron 1 (1 for protons, -1 for antiprotons)
ih2         1        ! hadron 2 (1 for protons, -1 for antiprotons)
ebeam1 7000d0        ! energy of beam 1
ebeam2 7000d0        ! energy of beam 2
! To be set only if using LHA pdfs
lhans1 90200         ! pdf set for hadron 1 (LHA numbering)
lhans2 90200 	     ! pdf set for hadron 2 (LHA numbering)
! To be set only if using internal mlm pdf
# ndns1 131          ! pdf set for hadron 1 (mlm numbering)
# ndns2 131          ! pdf set for hadron 2 (mlm numbering)
! To be set only if using different pdf sets for the two incoming hadrons
! QCDLambda5 0.25    ! for not equal pdf sets

! Parameters to allow or not the use of stored data
use-old-grid    1    ! if 1 use old grid if file pwggrids.dat is present (<> 1 regenerate)
use-old-ubound  1    ! if 1 use norm of upper bounding function stored in pwgubound.dat, if present;
!
ncall1  10000        ! number of calls for initializing the integration grid
itmx1       3        ! number of iterations for initializing the integration grid
ncall2  10000        ! number of calls for computing the integral and finding upper bound
itmx2       3        ! number of iterations for computing the integral and finding upper bound
foldcsi     1        ! number of folds on csi integration
foldy       1        ! number of folds on  y  integration
foldphi     1        ! number of folds on phi integration
nubound 10000        ! number of bbarra calls to setup norm of upper bounding function
# icsimax   1        ! <= 100, number of csi subdivision when computing the upper bounds
# iymax     1        ! <= 100, number of y subdivision when computing the upper bounds
# xupbound 2d0       ! increase upper bound for radiation generation

! OPTIONAL PARAMETERS

! scale settings:
#fixedscale   1      ! (dafault 0) Use muren = mufac = 2*m_H
facscfact   1d0      ! (default 1d0) fac scale factor: mufact = muref * facscfact
renscfact   1d0      ! (default 1d0) ren scale factor: muren  = muref * renscfact

! Born, plots and powheg strategy:
#bornonly         1  ! (default 0) if 1 do Born only
# testplots 1
fastbtlbound      1  ! fast evaluation of Btilde upper bounds
storemintupb      1  ! store function calls in binary file for more precise generation
ubexcess_correct  1  ! corrects for error in upper bound estimate
storeinfo_rwgt    1  ! store info to allow for reweighting
softtest          0  ! no check of the soft limit in the real
colltest          0  ! no check of the collinear limit in the real

! PARAMETERS needed for ggHH
hdamp           250

! PARAMETERS for parallel runnning
! -- non parallel (for testing purposes only)
#iseed    547        !  Start the random number generator with seed iseed
#rand1     0         !  skipping  rand2*100000000+rand1 numbers.
#rand2     0         !  (see RM48 short writeup in CERNLIB)

! -- parallel
manyseeds 1          ! Used to perform multiple runs with different random
                     ! seeds in the same directory.
                     ! If set to 1, the program asks for an integer j;
                     ! The file pwgseeds.dat at line j is read, and the
                     ! integer at line j is used to initialize the random
                     ! sequence for the generation of the event.
                     ! The event file is called pwgevents-'j'.lhe
parallelstage 4
xgriditeration 1
maxseeds    1000

! PARAMETERS for reweighting
#rwl_file 'reweight_setup.xml'


! PARAMETERS for Pythia8
#py8tune  xxx
#py8hepmc 1
#py8nohad 1
#py8nompi 1
End of powheg.input content
PDF package: lha
 Random number generator initialized with:            2             0             0
-->
<init>
     2212     2212  7.00000E+03  7.00000E+03     -1     -1     -1     -1     -4      1
  3.38081E-02  5.61572E-05  1.00000E+00   9999
</init>
<event>
      5   9999  3.79277E-02  1.02604E+02 -1.00000E+00  1.23328E-01
      21    -1     0     0   502   501  0.000000000E+00  0.000000000E+00  4.741085307E+02  4.741085307E+02  0.000000000E+00  0.00000E+00  9.000E+00
      21    -1     0     0   511   502  0.000000000E+00  0.000000000E+00 -4.796601193E+02  4.796601193E+02  0.000000000E+00  0.00000E+00  9.000E+00
      25     1     1     2     0     0 -5.483589459E+01 -2.635386679E+01 -2.931670114E+01  1.420773402E+02  1.250000000E+02  0.00000E+00  9.000E+00
      25     1     1     2     0     0  1.435080121E+02 -2.526825441E+01  3.882049969E+02  4.330833105E+02  1.250000000E+02  0.00000E+00  9.000E+00
      21     1     1     2   511   501 -8.867211749E+01  5.162212120E+01 -3.644398843E+02  3.786079993E+02  5.394796609E-06  0.00000E+00  9.000E+00
#rwgt            1           1   5.5109534378333380E-002           2          61           0
</event>
<event>
      5   9999  3.79277E-02  1.62893E+02 -1.00000E+00  1.14992E-01
      21    -1     0     0   502   501  0.000000000E+00  0.000000000E+00  3.327363329E+02  3.327363329E+02  0.000000000E+00  0.00000E+00  9.000E+00
      21    -1     0     0   512   502  0.000000000E+00  0.000000000E+00 -3.245966211E+02  3.245966211E+02  0.000000000E+00  0.00000E+00  9.000E+00
      25     1     1     2     0     0 -1.819598954E+02  8.135616901E+01 -1.209100916E+02  2.645231181E+02  1.250000000E+02  0.00000E+00  9.000E+00
      25     1     1     2     0     0  2.061841530E+01 -1.037814629E+02  1.577722096E+02  2.274044441E+02  1.250000000E+02  0.00000E+00  9.000E+00
      21     1     1     2   512   501  1.613414801E+02  2.242529388E+01 -2.872240622E+01  1.654053918E+02  2.132480600E-06  0.00000E+00  9.000E+00
#rwgt            1           1   3.7333965498882730E-002           2         142           0
</event>
<event>
      5   9999  3.79277E-02  5.95828E+01 -1.00000E+00  1.34866E-01
      21    -1     0     0   502   501  0.000000000E+00  0.000000000E+00  2.002569547E+03  2.002569547E+03  0.000000000E+00  0.00000E+00  9.000E+00
       1    -1     0     0   501     0  0.000000000E+00  0.000000000E+00 -1.527782209E+03  1.527782209E+03  0.000000000E+00  0.00000E+00  9.000E+00
      25     1     1     2     0     0 -9.834564926E+01  1.635046075E+02  1.478190658E+03  1.495686546E+03  1.250000000E+02  0.00000E+00  9.000E+00
      25     1     1     2     0     0  5.445040498E+01 -1.232142352E+02  4.986476056E+02  5.314329958E+02  1.250000000E+02  0.00000E+00  9.000E+00
       1     1     1     2   502     0  4.389524428E+01 -4.029037228E+01 -1.502050926E+03  1.503232214E+03  0.000000000E+00  0.00000E+00  9.000E+00
#rwgt            1           1  0.11487580065642332                2         212           0
</event>
<event>
      5   9999  3.79277E-02  1.09599E+02 -1.00000E+00  1.22064E-01
       1    -1     0     0   502     0  0.000000000E+00  0.000000000E+00  4.047356753E+02  4.047356753E+02  0.000000000E+00  0.00000E+00  9.000E+00
      21    -1     0     0   501   502  0.000000000E+00  0.000000000E+00 -5.997612834E+02  5.997612834E+02  0.000000000E+00  0.00000E+00  9.000E+00
      25     1     1     2     0     0  3.259159472E+02 -3.549021372E+01 -3.329171016E+02  4.836729851E+02  1.250000000E+02  0.00000E+00  9.000E+00
      25     1     1     2     0     0 -3.469658071E+02 -7.206865884E+01  4.750644535E+01  3.787624918E+02  1.250000000E+02  0.00000E+00  9.000E+00
       1     1     1     2   501     0  2.104985987E+01  1.075588726E+02  9.038504820E+01  1.420614818E+02  1.348699152E-06  0.00000E+00  9.000E+00
#rwgt            2          17   9.2250665124152023E-005           2         362           0
</event>
<event>
      5   9999  3.79277E-02  6.45775E+01 -1.00000E+00  1.33019E-01
      21    -1     0     0   511   501  0.000000000E+00  0.000000000E+00  2.518345582E+02  2.518345582E+02  0.000000000E+00  0.00000E+00  9.000E+00
      21    -1     0     0   501   502  0.000000000E+00  0.000000000E+00 -3.094051357E+02  3.094051357E+02  0.000000000E+00  0.00000E+00  9.000E+00
      25     1     1     2     0     0  2.937887717E+01 -1.342071033E+01  1.185088539E+02  1.752500566E+02  1.250000000E+02  0.00000E+00  9.000E+00
      25     1     1     2     0     0 -7.233086969E+01 -3.480152301E+01 -2.481518348E+02  2.892183152E+02  1.250000000E+02  0.00000E+00  9.000E+00
      21     1     1     2   511   502  4.295199251E+01  4.822223334E+01  7.207240339E+01  9.677132209E+01  1.348699152E-06  0.00000E+00  9.000E+00
#rwgt            1           1   3.7477076422825412E-002           2         381           0
</event>
<event>
      5   9999  3.79277E-02  1.99411E+02 -1.00000E+00  1.11695E-01
      21    -1     0     0   512   501  0.000000000E+00  0.000000000E+00  1.110629199E+02  1.110629199E+02  0.000000000E+00  0.00000E+00  9.000E+00
      21    -1     0     0   501   502  0.000000000E+00  0.000000000E+00 -2.402467818E+03  2.402467818E+03  0.000000000E+00  0.00000E+00  9.000E+00
      25     1     1     2     0     0 -2.670008147E+02  1.269636473E+02 -1.341833222E+03  1.379692212E+03  1.250000000E+02  0.00000E+00  9.000E+00
      25     1     1     2     0     0  4.005611166E+02  2.111194187E+01 -6.374812466E+02  7.634803612E+02  1.250000000E+02  0.00000E+00  9.000E+00
      21     1     1     2   512   502 -1.335603018E+02 -1.480755892E+02 -3.120904295E+02  3.703581652E+02  0.000000000E+00  0.00000E+00  9.000E+00
#rwgt            1           1   3.0035225528902438E-002           2         524           0
</event>
<event>
      5   9999  3.79277E-02  1.01123E+02 -1.00000E+00  1.23610E-01
      21    -1     0     0   511   501  0.000000000E+00  0.000000000E+00  1.370817261E+02  1.370817261E+02  0.000000000E+00  0.00000E+00  9.000E+00
      21    -1     0     0   501   502  0.000000000E+00  0.000000000E+00 -7.978721998E+02  7.978721998E+02  0.000000000E+00  0.00000E+00  9.000E+00
      25     1     1     2     0     0 -9.240326018E+01 -1.226514194E+02 -2.399309039E+02  3.110845091E+02  1.250000000E+02  0.00000E+00  9.000E+00
      25     1     1     2     0     0  1.353212112E+02  3.108752400E+01 -4.741034923E+02  5.095855039E+02  1.250000000E+02  0.00000E+00  9.000E+00
      21     1     1     2   511   502 -4.291795099E+01  9.156389542E+01  5.324392252E+01  1.142839129E+02  2.780414531E-06  0.00000E+00  9.000E+00
#rwgt            1           1   3.0968304240687698E-002           2         568           0
</event>
<event>
      5   9999  3.79277E-02  8.25598E+01 -1.00000E+00  1.27691E-01
      21    -1     0     0   502   501  0.000000000E+00  0.000000000E+00  2.186136619E+02  2.186136619E+02  0.000000000E+00  0.00000E+00  9.000E+00
      21    -1     0     0   512   502  0.000000000E+00  0.000000000E+00 -2.700076367E+02  2.700076367E+02  0.000000000E+00  0.00000E+00  9.000E+00
      25     1     1     2     0     0  3.797942901E+01 -9.277775229E+01  8.866063743E+01  1.831279798E+02  1.250000000E+02  0.00000E+00  9.000E+00
      25     1     1     2     0     0  4.350569030E+01  7.950011038E+01 -1.429593953E+01  1.550560754E+02  1.250000000E+02  0.00000E+00  9.000E+00
      21     1     1     2   512   501 -8.148511930E+01  1.327764190E+01 -1.257586727E+02  1.504372434E+02  1.348699152E-06  0.00000E+00  9.000E+00
#rwgt            1           1   4.9174043589916866E-002           2         645           0
</event>
<event>
      5   9999  3.79277E-02  1.99132E+02 -1.00000E+00  1.11717E-01
       2    -1     0     0   502     0  0.000000000E+00  0.000000000E+00  3.102711163E+03  3.102711163E+03  0.000000000E+00  0.00000E+00  9.000E+00
      21    -1     0     0   501   502  0.000000000E+00  0.000000000E+00 -6.203972861E+01  6.203972861E+01  0.000000000E+00  0.00000E+00  9.000E+00
      25     1     1     2     0     0  5.921638790E+01  1.775069700E+02  7.731662173E+02  8.052492189E+02  1.250000000E+02  0.00000E+00  9.000E+00
      25     1     1     2     0     0  1.212531495E+02 -9.333757403E+01  1.955218224E+02  2.779712432E+02  1.250000000E+02  0.00000E+00  9.000E+00
       2     1     1     2   501     0 -1.804695374E+02 -8.416939602E+01  2.071983395E+03  2.081530429E+03  3.051757812E-05  0.00000E+00  9.000E+00
#rwgt            1           1  0.13532008741594242                2         766           0
</event>
<event>
      5   9999  3.79277E-02  2.31531E+01 -1.00000E+00  1.61289E-01
       1    -1     0     0   502     0  0.000000000E+00  0.000000000E+00  1.803222426E+03  1.803222426E+03  0.000000000E+00  0.00000E+00  9.000E+00
      21    -1     0     0   501   502  0.000000000E+00  0.000000000E+00 -1.483494233E+02  1.483494233E+02  0.000000000E+00  0.00000E+00  9.000E+00
      25     1     1     2     0     0 -4.630316927E+01  1.843458832E+02 -7.060380156E+00  2.276010482E+02  1.250000000E+02  0.00000E+00  9.000E+00
      25     1     1     2     0     0  6.597494983E+01 -1.721356851E+02  3.702531320E+02  4.320830589E+02  1.250000000E+02  0.00000E+00  9.000E+00
       1     1     1     2   501     0 -1.967178056E+01 -1.221019819E+01  1.291680251E+03  1.291887742E+03  1.525878906E-05  0.00000E+00  9.000E+00
#rwgt            1           1   4.6238559896366625E-002           2         914           0
</event>
<event>
      5   9999  3.79277E-02  1.86807E+01 -1.00000E+00  1.68852E-01
      21    -1     0     0   502   501  0.000000000E+00  0.000000000E+00  7.004678430E+01  7.004678430E+01  0.000000000E+00  0.00000E+00  9.000E+00
      21    -1     0     0   501   511  0.000000000E+00  0.000000000E+00 -7.490898682E+02  7.490898682E+02  0.000000000E+00  0.00000E+00  9.000E+00
      25     1     1     2     0     0 -7.650643322E+01  1.693692410E+02 -2.965505821E+02  3.716267238E+02  1.250000000E+02  0.00000E+00  9.000E+00
      25     1     1     2     0     0  6.096598052E+01 -1.590027872E+02 -3.302869475E+02  3.920627563E+02  1.250000000E+02  0.00000E+00  9.000E+00
      21     1     1     2   502   511  1.554045270E+01 -1.036645377E+01 -5.220555433E+01  5.544717249E+01  6.743495762E-07  0.00000E+00  9.000E+00
#rwgt            1           1   3.6567677038294250E-002           2        1164           0
</event>
<event>
      5   9999  3.79277E-02  3.54614E+02 -1.00000E+00  1.03284E-01
      21    -1     0     0   512   501  0.000000000E+00  0.000000000E+00  2.711171096E+02  2.711171096E+02  0.000000000E+00  0.00000E+00  9.000E+00
      21    -1     0     0   501   502  0.000000000E+00  0.000000000E+00 -1.863292542E+03  1.863292542E+03  0.000000000E+00  0.00000E+00  9.000E+00
      25     1     1     2     0     0  3.894236326E+02  5.066759833E+01 -1.220650749E+03  1.288344372E+03  1.250000000E+02  0.00000E+00  9.000E+00
      25     1     1     2     0     0 -8.863083355E+01  1.371482789E+02 -4.392830722E+02  4.850357642E+02  1.250000000E+02  0.00000E+00  9.000E+00
      21     1     1     2   512   502 -3.007927991E+02 -1.878158772E+02  6.775838840E+01  3.610295153E+02  6.538061715E-06  0.00000E+00  9.000E+00
#rwgt            2          11   2.3185702846542419E-003           2        1588           0
</event>
<event>
      5   9999  3.79277E-02  2.14308E+01 -1.00000E+00  1.63931E-01
       3    -1     0     0   502     0  0.000000000E+00  0.000000000E+00  1.751440157E+02  1.751440157E+02  0.000000000E+00  0.00000E+00  9.000E+00
      21    -1     0     0   501   502  0.000000000E+00  0.000000000E+00 -1.347633835E+02  1.347633835E+02  0.000000000E+00  0.00000E+00  9.000E+00
      25     1     1     2     0     0  5.251941160E+01  1.634257402E+00  3.454148788E+01  1.399252435E+02  1.250000000E+02  0.00000E+00  9.000E+00
      25     1     1     2     0     0 -3.706066536E+01 -1.647699456E+01 -2.365181972E+01  1.335267495E+02  1.250000000E+02  0.00000E+00  9.000E+00
       3     1     1     2   501     0 -1.545874623E+01  1.484273716E+01  2.949096399E+01  3.645540616E+01  6.743495762E-07  0.00000E+00  9.000E+00
#rwgt            1           1   8.1273256129759351E-003           2        1623           0
</event>
<event>
      5   9999  3.79277E-02  8.76691E+01  7.55638E-03  1.26454E-01
      -2    -1     0     0     0   501  0.000000000E+00  0.000000000E+00  2.728025159E+01  2.728025159E+01  0.000000000E+00  0.00000E+00  9.000E+00
       2    -1     0     0   502     0  0.000000000E+00  0.000000000E+00 -1.501697236E+03  1.501697236E+03  0.000000000E+00  0.00000E+00  9.000E+00
      25     1     1     2     0     0 -1.221113487E+01  5.441519110E+01 -4.390679582E+02  4.599084656E+02  1.250000000E+02  0.00000E+00  9.000E+00
      25     1     1     2     0     0  3.733498760E+01  2.957685760E+01 -2.994901015E+02  3.280061169E+02  1.250000000E+02  0.00000E+00  9.000E+00
      21     1     1     2   502   501 -2.512385274E+01 -8.399204871E+01 -7.358589245E+02  7.410629049E+02  0.000000000E+00  0.00000E+00  9.000E+00
#rwgt            3           4   1.1387852972240633E-003           2        1712           0
</event>
<event>
      5   9999  3.79277E-02  1.71795E+01 -1.00000E+00  1.72007E-01
      21    -1     0     0   502   501  0.000000000E+00  0.000000000E+00  7.693722044E+01  7.693722044E+01  0.000000000E+00  0.00000E+00  9.000E+00
      21    -1     0     0   501   511  0.000000000E+00  0.000000000E+00 -9.021251265E+02  9.021251265E+02  0.000000000E+00  0.00000E+00  9.000E+00
      25     1     1     2     0     0  8.304883532E+01  7.010009891E+01 -6.744375387E+02  6.944797524E+02  1.250000000E+02  0.00000E+00  9.000E+00
      25     1     1     2     0     0 -8.421450377E+01 -5.296016617E+01 -2.991532076E+01  1.625324222E+02  1.250000000E+02  0.00000E+00  9.000E+00
      21     1     1     2   502   511  1.165668446E+00 -1.713993275E+01 -1.208350466E+02  1.220501723E+02  1.348699152E-06  0.00000E+00  9.000E+00
#rwgt            1           1   4.3986761368089343E-002           2        1746           0
</event>
<event>
      5   9999  3.79277E-02  1.61153E+02 -1.00000E+00  1.15172E-01
      21    -1     0     0   502   501  0.000000000E+00  0.000000000E+00  3.975577665E+02  3.975577665E+02  0.000000000E+00  0.00000E+00  9.000E+00
      21    -1     0     0   501   512  0.000000000E+00  0.000000000E+00 -3.697257275E+02  3.697257275E+02  0.000000000E+00  0.00000E+00  9.000E+00
      25     1     1     2     0     0 -1.808450033E+01  3.945613085E+01  2.719682901E+02  3.024493118E+02  1.250000000E+02  0.00000E+00  9.000E+00
      25     1     1     2     0     0  1.629891211E+02 -1.099746068E+02 -1.634849970E+02  2.846264428E+02  1.250000000E+02  0.00000E+00  9.000E+00
      21     1     1     2   502   512 -1.449046207E+02  7.051847592E+01 -8.065125407E+01  1.802077394E+02  3.162979880E-06  0.00000E+00  9.000E+00
#rwgt            1           1   5.2612652807699075E-003           2        1983           0
</event>
<event>
      5   9999  3.79277E-02  4.30656E+01 -1.00000E+00  1.42879E-01
      21    -1     0     0   502   501  0.000000000E+00  0.000000000E+00  7.211104770E+02  7.211104770E+02  0.000000000E+00  0.00000E+00  9.000E+00
      21    -1     0     0   511   502  0.000000000E+00  0.000000000E+00 -1.720744561E+02  1.720744561E+02  0.000000000E+00  0.00000E+00  9.000E+00
      25     1     1     2     0     0  9.505218918E+01  1.041968688E+02  5.228333457E+02  5.557621915E+02  1.250000000E+02  0.00000E+00  9.000E+00
      25     1     1     2     0     0 -6.286376403E+01 -1.328072562E+02  1.248483231E+02  2.297862570E+02  1.250000000E+02  0.00000E+00  9.000E+00
      21     1     1     2   511   501 -3.218842515E+01  2.861038733E+01 -9.864564787E+01  1.076364846E+02  1.348699152E-06  0.00000E+00  9.000E+00
#rwgt            1           1   3.8950758196860572E-002           2        2015           0
</event>
<event>
      5   9999  3.79277E-02  6.69525E+01 -1.00000E+00  1.32207E-01
       3    -1     0     0   502     0  0.000000000E+00  0.000000000E+00  6.436731642E+02  6.436731642E+02  0.000000000E+00  0.00000E+00  9.000E+00
      21    -1     0     0   501   502  0.000000000E+00  0.000000000E+00 -6.421181285E+01  6.421181285E+01  0.000000000E+00  0.00000E+00  9.000E+00
      25     1     1     2     0     0  4.798953687E+00 -1.214891315E+02  2.961567787E+02  3.436807772E+02  1.250000000E+02  0.00000E+00  9.000E+00
      25     1     1     2     0     0  2.171295886E+01  6.000944551E+01  1.096916454E+02  1.781287265E+02  1.250000000E+02  0.00000E+00  9.000E+00
       3     1     1     2   501     0 -2.651191255E+01  6.147968595E+01  1.736129272E+02  1.860754734E+02  3.303624740E-06  0.00000E+00  9.000E+00
#rwgt            1           1   3.8879528262317060E-002           2        2144           0
</event>
<event>
      5   9999  3.79277E-02  2.65320E+02 -1.00000E+00  1.07355E-01
      21    -1     0     0   511   501  0.000000000E+00  0.000000000E+00  1.435763519E+03  1.435763519E+03  0.000000000E+00  0.00000E+00  9.000E+00
      21    -1     0     0   501   502  0.000000000E+00  0.000000000E+00 -3.460484305E+02  3.460484305E+02  0.000000000E+00  0.00000E+00  9.000E+00
      25     1     1     2     0     0 -9.478613467E+01  5.972263451E+01 -2.611329784E+02  3.104297615E+02  1.250000000E+02  0.00000E+00  9.000E+00
      25     1     1     2     0     0 -4.383295973E+01 -2.859509260E+02  8.043785687E+02  8.639092210E+02  1.250000000E+02  0.00000E+00  9.000E+00
      21     1     1     2   511   502  1.386190944E+02  2.262282915E+02  5.464694984E+02  6.074729672E+02  7.629394531E-06  0.00000E+00  9.000E+00
#rwgt            2          11   6.6887396186061420E-003           2        2250           0
</event>
<event>
      5   9999  3.79277E-02  1.83651E+02 -1.00000E+00  1.13013E-01
      21    -1     0     0   502   501  0.000000000E+00  0.000000000E+00  2.549036657E+02  2.549036657E+02  0.000000000E+00  0.00000E+00  9.000E+00
      -1    -1     0     0     0   502  0.000000000E+00  0.000000000E+00 -5.130615465E+02  5.130615465E+02  0.000000000E+00  0.00000E+00  9.000E+00
      25     1     1     2     0     0 -1.262174392E+02 -1.945313657E+01  8.037961761E+01  1.959468025E+02  1.250000000E+02  0.00000E+00  9.000E+00
      25     1     1     2     0     0  1.593270581E+02 -1.611885149E+02 -2.751011547E+02  3.777201267E+02  1.250000000E+02  0.00000E+00  9.000E+00
      -1     1     1     2     0   501 -3.310961898E+01  1.806416515E+02 -6.343634368E+01  1.942982831E+02  3.090257978E-06  0.00000E+00  9.000E+00
#rwgt            1           1   2.6229278351291099E-002           2        2300           0
</event>
<event>
      5   9999  3.79277E-02  3.68880E+01 -1.00000E+00  1.47056E-01
      21    -1     0     0   502   501  0.000000000E+00  0.000000000E+00  1.934611306E+03  1.934611306E+03  0.000000000E+00  0.00000E+00  9.000E+00
      21    -1     0     0   511   502  0.000000000E+00  0.000000000E+00 -2.629107215E+01  2.629107215E+01  0.000000000E+00  0.00000E+00  9.000E+00
      25     1     1     2     0     0  1.446545841E+02  2.364504384E+01  1.328847160E+03  1.342737432E+03  1.250000000E+02  0.00000E+00  9.000E+00
      25     1     1     2     0     0 -1.078362589E+02 -2.591058164E+01  5.344181159E+02  5.599354780E+02  1.250000000E+02  0.00000E+00  9.000E+00
      21     1     1     2   511   501 -3.681832523E+01  2.265537803E+00  4.505495873E+01  5.822946883E+01  2.132480600E-06  0.00000E+00  9.000E+00
#rwgt            1           1  0.15881819539924069                2        2390           0
</event>
<event>
      5   9999  3.79277E-02  1.07419E+02 -1.00000E+00  1.22446E-01
      21    -1     0     0   502   512  0.000000000E+00  0.000000000E+00  1.156772697E+02  1.156772697E+02  0.000000000E+00  0.00000E+00  9.000E+00
      21    -1     0     0   501   502  0.000000000E+00  0.000000000E+00 -6.235199472E+02  6.235199472E+02  0.000000000E+00  0.00000E+00  9.000E+00
      25     1     1     2     0     0  1.121441121E+02  1.176106292E+01 -2.811764983E+02  3.277191597E+02  1.250000000E+02  0.00000E+00  9.000E+00
      25     1     1     2     0     0 -1.897500914E+02  6.251013440E+01 -1.640495215E+02  2.871408358E+02  1.250000000E+02  0.00000E+00  9.000E+00
      21     1     1     2   501   512  7.760597937E+01 -7.427119731E+01 -6.261665775E+01  1.243372213E+02  2.023048729E-06  0.00000E+00  9.000E+00
#rwgt            1           1   3.9070133320058785E-002           2        2587           0
</event>
<event>
      5   9999  3.79277E-02  5.99894E+00 -1.00000E+00  2.25484E-01
      21    -1     0     0   502   501  0.000000000E+00  0.000000000E+00  1.816202876E+02  1.816202876E+02  0.000000000E+00  0.00000E+00  9.000E+00
      21    -1     0     0   511   502  0.000000000E+00  0.000000000E+00 -3.174108532E+02  3.174108532E+02  0.000000000E+00  0.00000E+00  9.000E+00
      25     1     1     2     0     0 -7.766710305E+01  1.157557358E+02  8.552092330E+01  2.058407092E+02  1.250000000E+02  0.00000E+00  9.000E+00
      25     1     1     2     0     0  7.195269585E+01 -1.175813499E+02 -2.166346194E+02  2.855838276E+02  1.250000000E+02  0.00000E+00  9.000E+00
      21     1     1     2   511   501  5.714407198E+00  1.825614107E+00 -4.676869540E+00  7.606604051E+00  1.332800375E-07  0.00000E+00  9.000E+00
#rwgt            1           1   4.1411215348362729E-002           2        2681           0
</event>
<event>
      5   9999  3.79277E-02  6.87894E+01 -1.00000E+00  1.31606E-01
      21    -1     0     0   502   512  0.000000000E+00  0.000000000E+00  7.471135379E+02  7.471135379E+02  0.000000000E+00  0.00000E+00  9.000E+00
      21    -1     0     0   501   502  0.000000000E+00  0.000000000E+00 -1.293226875E+02  1.293226875E+02  0.000000000E+00  0.00000E+00  9.000E+00
      25     1     1     2     0     0  2.307947517E+02 -9.438834958E+01  3.825310692E+02  4.734241194E+02  1.250000000E+02  0.00000E+00  9.000E+00
      25     1     1     2     0     0 -1.737284941E+02  1.327996251E+02  1.488784998E+02  2.925869748E+02  1.250000000E+02  0.00000E+00  9.000E+00
      21     1     1     2   501   512 -5.706625755E+01 -3.841127556E+01  8.638128134E+01  1.104251312E+02  9.536743164E-07  0.00000E+00  9.000E+00
#rwgt            1           1   4.5267866818076610E-002           2        2958           0
</event>
<event>
      5   9999  3.79277E-02  8.20935E+00 -1.00000E+00  2.06214E-01
      21    -1     0     0   511   501  0.000000000E+00  0.000000000E+00  6.793043124E+01  6.793043124E+01  0.000000000E+00  0.00000E+00  9.000E+00
      21    -1     0     0   501   502  0.000000000E+00  0.000000000E+00 -5.116160798E+02  5.116160798E+02  0.000000000E+00  0.00000E+00  9.000E+00
      25     1     1     2     0     0 -4.465684756E+01 -1.043033258E+02 -2.839154507E+02  3.303125807E+02  1.250000000E+02  0.00000E+00  9.000E+00
      25     1     1     2     0     0  4.433510074E+01  9.610028215E+01 -1.700361013E+02  2.360892652E+02  1.250000000E+02  0.00000E+00  9.000E+00
      21     1     1     2   511   502  3.217468156E-01  8.203043695E+00  1.026590348E+01  1.314466512E+01  1.685873940E-07  0.00000E+00  9.000E+00
#rwgt            1           1   3.5062559822145664E-002           2        3089           0
</event>
<event>
      5   9999  3.79277E-02  2.61677E+02 -1.00000E+00  1.07557E-01
       1    -1     0     0   502     0  0.000000000E+00  0.000000000E+00  2.743313971E+02  2.743313971E+02  0.000000000E+00  0.00000E+00  9.000E+00
      21    -1     0     0   501   502  0.000000000E+00  0.000000000E+00 -1.106639049E+03  1.106639049E+03  0.000000000E+00  0.00000E+00  9.000E+00
      25     1     1     2     0     0 -1.495471148E+02 -6.555253926E+01 -4.459648384E+02  4.910917552E+02  1.250000000E+02  0.00000E+00  9.000E+00
      25     1     1     2     0     0  3.788004385E+02  1.917189388E+02 -4.385384634E+02  6.230464731E+02  1.250000000E+02  0.00000E+00  9.000E+00
       1     1     1     2   501     0 -2.292533237E+02 -1.261663996E+02  5.219564949E+01  2.668322181E+02  0.000000000E+00  0.00000E+00  9.000E+00
#rwgt            1           1   3.0304872415503153E-002           2        3387           0
</event>
<event>
      5   9999  3.79277E-02  5.22167E+01 -1.00000E+00  1.38009E-01
      21    -1     0     0   502   501  0.000000000E+00  0.000000000E+00  5.009372581E+02  5.009372581E+02  0.000000000E+00  0.00000E+00  9.000E+00
      21    -1     0     0   501   511  0.000000000E+00  0.000000000E+00 -3.702884614E+02  3.702884614E+02  0.000000000E+00  0.00000E+00  9.000E+00
      25     1     1     2     0     0  4.854646847E+01  1.868426370E+01 -1.613389070E+01  1.363494178E+02  1.250000000E+02  0.00000E+00  9.000E+00
      25     1     1     2     0     0 -4.917776306E+01 -7.089713107E+01  4.252471417E+02  4.515583983E+02  1.250000000E+02  0.00000E+00  9.000E+00
      21     1     1     2   502   511  6.312945876E-01  5.221286737E+01 -2.784644543E+02  2.833179033E+02  0.000000000E+00  0.00000E+00  9.000E+00
#rwgt            1           1   4.4228423635035395E-002           2        3522           0
</event>
<event>
      5   9999  3.79277E-02  7.25365E+01 -1.00000E+00  1.30443E-01
      21    -1     0     0   502   501  0.000000000E+00  0.000000000E+00  6.350976701E+02  6.350976701E+02  0.000000000E+00  0.00000E+00  9.000E+00
      21    -1     0     0   512   502  0.000000000E+00  0.000000000E+00 -1.101412696E+03  1.101412696E+03  0.000000000E+00  0.00000E+00  9.000E+00
      25     1     1     2     0     0  7.441295031E+01 -2.570210862E+02  1.152038199E+02  3.170079590E+02  1.250000000E+02  0.00000E+00  9.000E+00
      25     1     1     2     0     0 -4.057987950E+01  1.928582664E+02  3.850287552E+02  4.502368042E+02  1.250000000E+02  0.00000E+00  9.000E+00
      21     1     1     2   512   501 -3.383307081E+01  6.416281979E+01 -9.665476013E+02  9.692656033E+02  1.078959322E-05  0.00000E+00  9.000E+00
#rwgt            2          11   4.7396012733309538E-003           2        3649           0
</event>
<event>
      5   9999  3.79277E-02  6.01451E+01 -1.00000E+00  1.34647E-01
      -3    -1     0     0     0   501  0.000000000E+00  0.000000000E+00  5.566710619E+02  5.566710619E+02  0.000000000E+00  0.00000E+00  9.000E+00
      21    -1     0     0   501   502  0.000000000E+00  0.000000000E+00 -8.590659680E+02  8.590659680E+02  0.000000000E+00  0.00000E+00  9.000E+00
      25     1     1     2     0     0 -2.105893059E+02  1.429576979E+02 -4.492655187E+02  5.312713671E+02  1.250000000E+02  0.00000E+00  9.000E+00
      25     1     1     2     0     0  2.513841883E+02 -1.871527969E+02 -2.891254084E+02  4.443407265E+02  1.250000000E+02  0.00000E+00  9.000E+00
      -3     1     1     2     0   502 -4.079488234E+01  4.419509891E+01  4.359960210E+02  4.401249362E+02  7.629394531E-06  0.00000E+00  9.000E+00
#rwgt            1           1   4.1101392948182706E-002           2        3759           0
</event>
<event>
      5   9999  3.79277E-02  1.33899E+02 -1.00000E+00  1.18382E-01
      21    -1     0     0   511   501  0.000000000E+00  0.000000000E+00  1.925896739E+02  1.925896739E+02  0.000000000E+00  0.00000E+00  9.000E+00
      21    -1     0     0   501   502  0.000000000E+00  0.000000000E+00 -8.093569323E+02  8.093569323E+02  0.000000000E+00  0.00000E+00  9.000E+00
      25     1     1     2     0     0  2.415525492E+02  8.269894178E+00 -5.214585560E+02  5.881836879E+02  1.250000000E+02  0.00000E+00  9.000E+00
      25     1     1     2     0     0 -1.080336287E+02 -1.835218180E+01 -1.879689242E+02  2.509290417E+02  1.250000000E+02  0.00000E+00  9.000E+00
      21     1     1     2   511   502 -1.335189205E+02  1.008228762E+01  9.266022176E+01  1.628338765E+02  1.348699152E-06  0.00000E+00  9.000E+00
#rwgt            1           1   3.7106895914327129E-002           2        3834           0
</event>
<event>
      5   9999  3.79277E-02  1.00569E+01 -1.00000E+00  1.95473E-01
      21    -1     0     0   502   501  0.000000000E+00  0.000000000E+00  1.308457653E+02  1.308457653E+02  0.000000000E+00  0.00000E+00  9.000E+00
      21    -1     0     0   501   512  0.000000000E+00  0.000000000E+00 -2.723178783E+02  2.723178783E+02  0.000000000E+00  0.00000E+00  9.000E+00
      25     1     1     2     0     0 -1.233687730E+02 -4.203499246E+01 -1.087931114E+02  2.108263167E+02  1.250000000E+02  0.00000E+00  9.000E+00
      25     1     1     2     0     0  1.133187390E+02  4.166296246E+01 -1.824070401E+01  1.747417018E+02  1.250000000E+02  0.00000E+00  9.000E+00
      21     1     1     2   502   512  1.005003392E+01  3.720300052E-01 -1.443829758E+01  1.759562517E+01  1.685873940E-07  0.00000E+00  9.000E+00
#rwgt            1           1   3.8156909659170221E-002           2        3896           0
</event>
<event>
      5   9999  3.79277E-02  1.68645E+01 -1.00000E+00  1.72721E-01
      21    -1     0     0   502   511  0.000000000E+00  0.000000000E+00  9.241705094E+02  9.241705094E+02  0.000000000E+00  0.00000E+00  9.000E+00
      21    -1     0     0   501   502  0.000000000E+00  0.000000000E+00 -8.837063057E+01  8.837063057E+01  0.000000000E+00  0.00000E+00  9.000E+00
      25     1     1     2     0     0  2.067945759E+02  1.450461180E+02  4.394318709E+02  5.220418969E+02  1.250000000E+02  0.00000E+00  9.000E+00
      25     1     1     2     0     0 -2.044295196E+02 -1.283482854E+02  3.682072932E+02  4.576749082E+02  1.250000000E+02  0.00000E+00  9.000E+00
      21     1     1     2   501   511 -2.365056302E+00 -1.669783261E+01  2.816071475E+01  3.282433488E+01  6.743495762E-07  0.00000E+00  9.000E+00
#rwgt            1           1   4.3137450916700661E-002           2        4136           0
</event>
<event>
      5   9999  3.79277E-02  1.43585E+02 -1.00000E+00  1.17151E-01
      21    -1     0     0   502   501  0.000000000E+00  0.000000000E+00  3.330625375E+02  3.330625375E+02  0.000000000E+00  0.00000E+00  9.000E+00
      21    -1     0     0   501   512  0.000000000E+00  0.000000000E+00 -5.822107740E+02  5.822107740E+02  0.000000000E+00  0.00000E+00  9.000E+00
      25     1     1     2     0     0 -8.693520967E+01 -2.193201368E+02  9.122953771E+01  2.821469150E+02  1.250000000E+02  0.00000E+00  9.000E+00
      25     1     1     2     0     0  1.946537721E+02  1.243816315E+02  1.138131109E+00  2.626541006E+02  1.250000000E+02  0.00000E+00  9.000E+00
      21     1     1     2   502   512 -1.077185624E+02  9.493850537E+01 -3.415159053E+02  3.704722959E+02  0.000000000E+00  0.00000E+00  9.000E+00
#rwgt            1           1   3.0086041143548303E-002           2        4337           0
</event>
<event>
      5   9999  3.79277E-02  2.94455E+01 -1.00000E+00  1.53605E-01
      21    -1     0     0   502   501  0.000000000E+00  0.000000000E+00  8.937735264E+02  8.937735264E+02  0.000000000E+00  0.00000E+00  9.000E+00
      -4    -1     0     0     0   502  0.000000000E+00  0.000000000E+00 -9.071754147E+01  9.071754147E+01  0.000000000E+00  0.00000E+00  9.000E+00
      25     1     1     2     0     0 -1.097079845E+01  1.623890196E+02  5.149745542E+02  5.543593993E+02  1.250000000E+02  0.00000E+00  9.000E+00
      25     1     1     2     0     0 -3.246300249E+00 -1.366031843E+02  3.302910488E+02  3.786662717E+02  1.250000000E+02  0.00000E+00  9.000E+00
      -4     1     1     2     0   501  1.421709870E+01 -2.578583530E+01 -4.220961819E+01  5.146539678E+01  8.259061849E-07  0.00000E+00  9.000E+00
#rwgt            1           1  0.34112440253853571                2        4504           0
</event>
<event>
      5   9999  3.79277E-02  1.52471E+02 -1.00000E+00  1.16113E-01
      21    -1     0     0   511   501  0.000000000E+00  0.000000000E+00  4.400686973E+02  4.400686973E+02  0.000000000E+00  0.00000E+00  9.000E+00
      21    -1     0     0   501   502  0.000000000E+00  0.000000000E+00 -1.167699439E+03  1.167699439E+03  0.000000000E+00  0.00000E+00  9.000E+00
      25     1     1     2     0     0  2.695164740E+02 -9.558139866E+01 -2.548385793E+01  3.131283452E+02  1.250000000E+02  0.00000E+00  9.000E+00
      25     1     1     2     0     0 -4.210791819E+02  7.896053930E+01 -9.236020416E+02  1.025771990E+03  1.250000000E+02  0.00000E+00  9.000E+00
      21     1     1     2   511   502  1.515627079E+02  1.662085937E+01  2.214551580E+02  2.688678010E+02  4.672030912E-06  0.00000E+00  9.000E+00
#rwgt            1           1  0.13369556730242030                2        4664           0
</event>
<event>
      5   9999  3.79277E-02  1.75949E+01 -1.00000E+00  1.71095E-01
      21    -1     0     0   512   501  0.000000000E+00  0.000000000E+00  3.198481764E+02  3.198481764E+02  0.000000000E+00  0.00000E+00  9.000E+00
      21    -1     0     0   501   502  0.000000000E+00  0.000000000E+00 -1.410459302E+02  1.410459302E+02  0.000000000E+00  0.00000E+00  9.000E+00
      25     1     1     2     0     0  9.454026043E+01  1.104645441E+02  3.906302672E+01  1.956813645E+02  1.250000000E+02  0.00000E+00  9.000E+00
      25     1     1     2     0     0 -1.115621160E+02 -1.149182596E+02  1.109942594E+02  2.315103404E+02  1.250000000E+02  0.00000E+00  9.000E+00
      21     1     1     2   512   502  1.702185559E+01  4.453715419E+00  2.874496008E+01  3.370240167E+01  5.840038640E-07  0.00000E+00  9.000E+00
#rwgt            1           1   1.2087169710473749E-002           2        4921           0
</event>
<event>
      5   9999  3.79277E-02  1.42577E+02 -1.00000E+00  1.17274E-01
      21    -1     0     0   502   501  0.000000000E+00  0.000000000E+00  3.553565431E+02  3.553565431E+02  0.000000000E+00  0.00000E+00  9.000E+00
      21    -1     0     0   511   502  0.000000000E+00  0.000000000E+00 -2.271330529E+02  2.271330529E+02  0.000000000E+00  0.00000E+00  9.000E+00
      25     1     1     2     0     0 -5.167116837E+01  3.777892510E+01  1.440821514E+02  2.012009522E+02  1.250000000E+02  0.00000E+00  9.000E+00
      25     1     1     2     0     0  1.130161440E+02 -1.664837158E+02  6.474278105E+00  2.369734009E+02  1.250000000E+02  0.00000E+00  9.000E+00
      21     1     1     2   511   501 -6.134497565E+01  1.287047907E+02 -2.233293927E+01  1.443152430E+02  2.419684306E-06  0.00000E+00  9.000E+00
#rwgt            2          11   2.0473239992787710E-003           2        5070           0
</event>
<event>
      5   9999  3.79277E-02  5.90113E+01 -1.00000E+00  1.35090E-01
      21    -1     0     0   502   501  0.000000000E+00  0.000000000E+00  1.333218179E+02  1.333218179E+02  0.000000000E+00  0.00000E+00  9.000E+00
      21    -1     0     0   501   512  0.000000000E+00  0.000000000E+00 -3.621203844E+02  3.621203844E+02  0.000000000E+00  0.00000E+00  9.000E+00
      25     1     1     2     0     0  1.207702982E+02 -1.649399454E+01 -1.628208587E+02  2.387323791E+02  1.250000000E+02  0.00000E+00  9.000E+00
      25     1     1     2     0     0 -1.072623954E+02  7.393847215E+01 -1.950690837E+01  1.815974631E+02  1.250000000E+02  0.00000E+00  9.000E+00
      21     1     1     2   502   512 -1.350790280E+01 -5.744447762E+01 -4.647079933E+01  7.511236008E+01  1.784161275E-06  0.00000E+00  9.000E+00
#rwgt            1           1   4.1182053197448804E-002           2        5180           0
</event>
<event>
      5   9999  3.79277E-02  6.79777E+00 -1.00000E+00  2.17369E-01
      21    -1     0     0   502   501  0.000000000E+00  0.000000000E+00  1.469661547E+02  1.469661547E+02  0.000000000E+00  0.00000E+00  9.000E+00
      21    -1     0     0   511   502  0.000000000E+00  0.000000000E+00 -1.972061247E+02  1.972061247E+02  0.000000000E+00  0.00000E+00  9.000E+00
      25     1     1     2     0     0 -6.372451862E+01  1.670284456E+01 -1.103860515E+02  1.793038752E+02  1.250000000E+02  0.00000E+00  9.000E+00
      25     1     1     2     0     0  7.025000864E+01 -1.479821339E+01  6.322561344E+01  1.574056194E+02  1.250000000E+02  0.00000E+00  9.000E+00
      21     1     1     2   511   501 -6.525490028E+00 -1.904631175E+00 -3.079531918E+00  7.462784792E+00  4.214684851E-08  0.00000E+00  9.000E+00
#rwgt            1           1   4.6564512481956352E-002           2        5280           0
</event>
<event>
      5   9999  3.79277E-02  3.27816E+01 -1.00000E+00  1.50412E-01
      21    -1     0     0   502   501  0.000000000E+00  0.000000000E+00  2.773038910E+02  2.773038910E+02  0.000000000E+00  0.00000E+00  9.000E+00
      21    -1     0     0   512   502  0.000000000E+00  0.000000000E+00 -4.077085497E+02  4.077085497E+02  0.000000000E+00  0.00000E+00  9.000E+00
      25     1     1     2     0     0  3.309918459E+01 -9.684051551E+01  1.901322238E+02  2.494973026E+02  1.250000000E+02  0.00000E+00  9.000E+00
      25     1     1     2     0     0 -3.808368361E+01  6.444011682E+01 -3.731240790E+01  1.503998384E+02  1.250000000E+02  0.00000E+00  9.000E+00
      21     1     1     2   512   501  4.984499027E+00  3.240039869E+01 -2.832244746E+02  2.851152997E+02  5.394796609E-06  0.00000E+00  9.000E+00
#rwgt            1           1   3.6011989182185657E-002           2        5675           0
</event>
<event>
      5   9999  3.79277E-02  3.91240E+01 -1.00000E+00  1.45439E-01
      21    -1     0     0   502   501  0.000000000E+00  0.000000000E+00  2.161973344E+02  2.161973344E+02  0.000000000E+00  0.00000E+00  9.000E+00
      21    -1     0     0   511   502  0.000000000E+00  0.000000000E+00 -8.636996622E+02  8.636996622E+02  0.000000000E+00  0.00000E+00  9.000E+00
      25     1     1     2     0     0 -8.504593587E+01 -1.578160013E+02  1.138493741E+02  2.464252045E+02  1.250000000E+02  0.00000E+00  9.000E+00
      25     1     1     2     0     0  5.658239676E+01  1.309736099E+02 -2.190666620E+02  2.897772533E+02  1.250000000E+02  0.00000E+00  9.000E+00
      21     1     1     2   511   501  2.846353911E+01  2.684239139E+01 -5.422850399E+02  5.436945388E+02  0.000000000E+00  0.00000E+00  9.000E+00
#rwgt            1           1   5.3936689361392773E-002           2        5880           0
</event>
<event>
      5   9999  3.79277E-02  2.79968E+02 -1.00000E+00  1.06576E-01
      21    -1     0     0   502   501  0.000000000E+00  0.000000000E+00  1.838095962E+02  1.838095962E+02  0.000000000E+00  0.00000E+00  9.000E+00
      21    -1     0     0   512   502  0.000000000E+00  0.000000000E+00 -1.740368281E+03  1.740368281E+03  0.000000000E+00  0.00000E+00  9.000E+00
      25     1     1     2     0     0  1.131794588E+02 -2.467435866E+02 -2.612367094E+02  3.969403050E+02  1.250000000E+02  0.00000E+00  9.000E+00
      25     1     1     2     0     0  1.282167930E+01 -3.268190573E+00  6.283221170E+01  1.405274470E+02  1.250000000E+02  0.00000E+00  9.000E+00
      21     1     1     2   512   501 -1.260011381E+02  2.500117771E+02 -1.358154187E+03  1.386710125E+03  2.157918644E-05  0.00000E+00  9.000E+00
#rwgt            1           1   4.2171254105007917E-002           2        6110           0
</event>
<event>
      5   9999  3.79277E-02  9.67700E+01 -1.00000E+00  1.24473E-01
      21    -1     0     0   502   501  0.000000000E+00  0.000000000E+00  1.640940707E+02  1.640940707E+02  0.000000000E+00  0.00000E+00  9.000E+00
      -2    -1     0     0     0   502  0.000000000E+00  0.000000000E+00 -6.579500634E+02  6.579500634E+02  0.000000000E+00  0.00000E+00  9.000E+00
      25     1     1     2     0     0  1.201403130E+02  5.324897350E+01  6.793078687E+01  1.936717320E+02  1.250000000E+02  0.00000E+00  9.000E+00
      25     1     1     2     0     0 -3.554148181E+01 -6.265331624E+00 -1.230057278E+02  1.790470898E+02  1.250000000E+02  0.00000E+00  9.000E+00
      -2     1     1     2     0   501 -8.459883116E+01 -4.698364187E+01 -4.387810518E+02  4.493253123E+02  5.394796609E-06  0.00000E+00  9.000E+00
#rwgt            2           9   5.2140732541639732E-005           2        6459           0
</event>
<event>
      5   9999  3.79277E-02  1.84791E+01 -1.00000E+00  1.69254E-01
      21    -1     0     0   502   501  0.000000000E+00  0.000000000E+00  1.259497384E+02  1.259497384E+02  0.000000000E+00  0.00000E+00  9.000E+00
      21    -1     0     0   501   511  0.000000000E+00  0.000000000E+00 -8.690551681E+02  8.690551681E+02  0.000000000E+00  0.00000E+00  9.000E+00
      25     1     1     2     0     0 -1.801832245E+02  2.000283839E+02 -2.091674506E+02  3.631161951E+02  1.250000000E+02  0.00000E+00  9.000E+00
      25     1     1     2     0     0  1.639449650E+02 -2.088486538E+02 -3.968949899E+02  4.936054546E+02  1.250000000E+02  0.00000E+00  9.000E+00
      21     1     1     2   502   511  1.623825956E+01  8.820269912E+00 -1.370429892E+02  1.382832568E+02  1.907348633E-06  0.00000E+00  9.000E+00
#rwgt            1           1   4.1635169322572149E-002           2        6553           0
</event>
<event>
      5   9999  4.10066E-02  7.34595E+01 -1.00000E+00  1.30168E-01
      -5    -1     0     0     0   501  0.000000000E+00  0.000000000E+00  3.337383897E+02  3.337383897E+02  0.000000000E+00  0.00000E+00  9.000E+00
      21    -1     0     0   501   502  0.000000000E+00  0.000000000E+00 -1.284171485E+03  1.284171485E+03  0.000000000E+00  0.00000E+00  9.000E+00
      25     1     1     2     0     0 -2.193867048E+02  3.441024974E+02 -4.991393919E+02  6.567360105E+02  1.250000000E+02  0.00000E+00  9.000E+00
      25     1     1     2     0     0  1.500629826E+02 -3.198019095E+02 -6.494710005E+02  7.498198054E+02  1.250000000E+02  0.00000E+00  9.000E+00
      -5     1     1     2     0   502  6.932372216E+01 -2.430058788E+01  1.981772972E+02  2.113540587E+02  4.672030912E-06  0.00000E+00  9.000E+00
#rwgt            1           1  0.36161641300577263                2        6855           0
</event>
<event>
      5   9999  3.79277E-02  1.12713E+02 -1.00000E+00  1.21535E-01
      21    -1     0     0   502   501  0.000000000E+00  0.000000000E+00  8.939694841E+02  8.939694841E+02  0.000000000E+00  0.00000E+00  9.000E+00
      21    -1     0     0   511   502  0.000000000E+00  0.000000000E+00 -8.693770097E+01  8.693770097E+01  0.000000000E+00  0.00000E+00  9.000E+00
      25     1     1     2     0     0 -5.414132683E+01 -2.717104173E+01  5.347289408E+02  5.524758718E+02  1.250000000E+02  0.00000E+00  9.000E+00
      25     1     1     2     0     0  1.623213942E+02  5.881347922E+01  2.118905555E+02  3.005492770E+02  1.250000000E+02  0.00000E+00  9.000E+00
      21     1     1     2   511   501 -1.081800674E+02 -3.164243749E+01  6.041228685E+01  1.278820364E+02  9.536743164E-07  0.00000E+00  9.000E+00
#rwgt            1           1   3.9795191355929953E-002           2        6949           0
</event>
<event>
      5   9999  3.79277E-02  2.81218E+01 -1.00000E+00  1.55016E-01
      21    -1     0     0   502   501  0.000000000E+00  0.000000000E+00  5.096805080E+02  5.096805080E+02  0.000000000E+00  0.00000E+00  9.000E+00
      21    -1     0     0   512   502  0.000000000E+00  0.000000000E+00 -7.675893179E+01  7.675893179E+01  0.000000000E+00  0.00000E+00  9.000E+00
      25     1     1     2     0     0  6.787502140E+01  1.087577293E+02  2.325768340E+02  2.935170283E+02  1.250000000E+02  0.00000E+00  9.000E+00
      25     1     1     2     0     0 -3.977598456E+01 -1.098882482E+02  2.020161944E+02  2.647510130E+02  1.250000000E+02  0.00000E+00  9.000E+00
      21     1     1     2   512   501 -2.809903684E+01  1.130518920E+00 -1.671452168E+00  2.817139856E+01  3.625608999E-07  0.00000E+00  9.000E+00
#rwgt            1           1   2.6165714022732104E-002           2        7123           0
</event>
<event>
      5   9999  3.79277E-02  2.65092E+01 -1.00000E+00  1.56867E-01
      21    -1     0     0   511   501  0.000000000E+00  0.000000000E+00  6.957762375E+01  6.957762375E+01  0.000000000E+00  0.00000E+00  9.000E+00
      21    -1     0     0   501   502  0.000000000E+00  0.000000000E+00 -1.228908159E+03  1.228908159E+03  0.000000000E+00  0.00000E+00  9.000E+00
      25     1     1     2     0     0 -7.092100661E+01  3.413950426E+01 -1.068008525E+03  1.078175544E+03  1.250000000E+02  0.00000E+00  9.000E+00
      25     1     1     2     0     0  9.070846714E+01 -1.649876861E+01 -1.078279686E+02  1.890822736E+02  1.250000000E+02  0.00000E+00  9.000E+00
      21     1     1     2   511   502 -1.978746053E+01 -1.764073565E+01  1.650595810E+01  3.122796505E+01  5.331201500E-07  0.00000E+00  9.000E+00
#rwgt            1           1   4.1422690548866631E-002           2        7365           0
</event>
<event>
      5   9999  3.79277E-02  4.88123E+01 -1.00000E+00  1.39674E-01
      21    -1     0     0   502   501  0.000000000E+00  0.000000000E+00  1.147448696E+02  1.147448696E+02  0.000000000E+00  0.00000E+00  9.000E+00
      21    -1     0     0   501   512  0.000000000E+00  0.000000000E+00 -7.095518830E+02  7.095518830E+02  0.000000000E+00  0.00000E+00  9.000E+00
      25     1     1     2     0     0 -1.180889077E+00 -9.002578871E+01 -4.127989378E+02  4.406064005E+02  1.250000000E+02  0.00000E+00  9.000E+00
      25     1     1     2     0     0 -4.602620896E+01  1.024407456E+02  2.599288825E+01  1.700386677E+02  1.250000000E+02  0.00000E+00  9.000E+00
      21     1     1     2   502   512  4.720709804E+01 -1.241495689E+01 -2.080009638E+02  2.136516843E+02  3.814697266E-06  0.00000E+00  9.000E+00
#rwgt            1           1   4.2442710829833995E-002           2        7551           0
</event>
<event>
      5   9999  3.79277E-02  1.22797E+02 -1.00000E+00  1.19945E-01
      21    -1     0     0   502   501  0.000000000E+00  0.000000000E+00  4.899927001E+02  4.899927001E+02  0.000000000E+00  0.00000E+00  9.000E+00
      21    -1     0     0   501   511  0.000000000E+00  0.000000000E+00 -9.622741531E+02  9.622741531E+02  0.000000000E+00  0.00000E+00  9.000E+00
      25     1     1     2     0     0  1.009283161E+02 -1.037285321E+02  1.419260406E+02  2.381472955E+02  1.250000000E+02  0.00000E+00  9.000E+00
      25     1     1     2     0     0 -1.151312131E+02 -1.824388862E+01  2.710211050E+02  3.204145363E+02  1.250000000E+02  0.00000E+00  9.000E+00
      21     1     1     2   502   511  1.420289703E+01  1.219724207E+02 -8.852285986E+02  8.937050215E+02  0.000000000E+00  0.00000E+00  9.000E+00
#rwgt            1           1   3.0170897208861139E-002           2        7713           0
</event>
<event>
      5   9999  3.79277E-02  6.88364E+01 -1.00000E+00  1.31590E-01
      21    -1     0     0   502   501  0.000000000E+00  0.000000000E+00  1.727116914E+02  1.727116914E+02  0.000000000E+00  0.00000E+00  9.000E+00
      21    -1     0     0   501   512  0.000000000E+00  0.000000000E+00 -1.020084636E+03  1.020084636E+03  0.000000000E+00  0.00000E+00  9.000E+00
      25     1     1     2     0     0  8.151230403E+01  3.341788657E+02 -3.966930435E+02  5.397315451E+02  1.250000000E+02  0.00000E+00  9.000E+00
      25     1     1     2     0     0 -3.692993541E+01 -2.817301426E+02 -1.502889759E+02  3.448876189E+02  1.250000000E+02  0.00000E+00  9.000E+00
      21     1     1     2   502   512 -4.458236862E+01 -5.244872311E+01 -3.003909256E+02  3.081771639E+02  3.814697266E-06  0.00000E+00  9.000E+00
#rwgt            1           1  0.16557365478465844                2        7753           0
</event>
<event>
      5   9999  3.79277E-02  5.47385E+01 -1.00000E+00  1.36868E-01
      21    -1     0     0   502   501  0.000000000E+00  0.000000000E+00  1.631984493E+01  1.631984493E+01  0.000000000E+00  0.00000E+00  9.000E+00
       2    -1     0     0   501     0  0.000000000E+00  0.000000000E+00 -2.800553034E+03  2.800553034E+03  0.000000000E+00  0.00000E+00  9.000E+00
      25     1     1     2     0     0 -6.372836364E+01 -2.387322569E+01 -5.225966114E+02  5.416303661E+02  1.250000000E+02  0.00000E+00  9.000E+00
      25     1     1     2     0     0  1.169373190E+02  3.672265105E+01 -1.259051230E+03  1.271163990E+03  1.250000000E+02  0.00000E+00  9.000E+00
       2     1     1     2   502     0 -5.320895535E+01 -1.284942536E+01 -1.002585348E+03  1.004078523E+03  1.078959322E-05  0.00000E+00  9.000E+00
#rwgt            1           1  0.15375311510763290                2        7860           0
</event>
<event>
      5   9999  3.79277E-02  4.63404E+01 -1.00000E+00  1.40986E-01
      -5    -1     0     0     0   501  0.000000000E+00  0.000000000E+00  1.109894550E+03  1.109894550E+03  0.000000000E+00  0.00000E+00  9.000E+00
      21    -1     0     0   501   502  0.000000000E+00  0.000000000E+00 -1.370100267E+02  1.370100267E+02  0.000000000E+00  0.00000E+00  9.000E+00
      25     1     1     2     0     0  1.161844394E+02 -1.750666203E+02  8.217498348E+01  2.579241621E+02  1.250000000E+02  0.00000E+00  9.000E+00
      25     1     1     2     0     0 -1.589164711E+02  1.571388690E+02  2.915763211E+02  3.880577534E+02  1.250000000E+02  0.00000E+00  9.000E+00
      -5     1     1     2     0   502  4.273203175E+01  1.792775128E+01  5.991332191E+02  6.009226615E+02  7.629394531E-06  0.00000E+00  9.000E+00
#rwgt            1           1   2.1518712694646759E-002           2        7958           0
</event>
<event>
      5   9999  3.79277E-02  5.31163E+01 -1.00000E+00  1.37594E-01
       1    -1     0     0   502     0  0.000000000E+00  0.000000000E+00  5.231178890E+03  5.231178890E+03  0.000000000E+00  0.00000E+00  9.000E+00
      21    -1     0     0   501   502  0.000000000E+00  0.000000000E+00 -2.212824817E+01  2.212824817E+01  0.000000000E+00  0.00000E+00  9.000E+00
      25     1     1     2     0     0 -1.386054275E+02  1.140898235E+01  9.814586708E+02  9.991134830E+02  1.250000000E+02  0.00000E+00  9.000E+00
      25     1     1     2     0     0  1.721426342E+02  2.978077641E+01  8.681507324E+02  8.943325307E+02  1.250000000E+02  0.00000E+00  9.000E+00
       1     1     1     2   501     0 -3.353720667E+01 -4.118975875E+01  3.359441239E+03  3.359861125E+03  0.000000000E+00  0.00000E+00  9.000E+00
#rwgt            1           1  0.14205496409128965                2        8040           0
</event>
<event>
      5   9999  3.79277E-02  6.94435E+01 -1.00000E+00  1.31396E-01
      21    -1     0     0   511   501  0.000000000E+00  0.000000000E+00  6.170837017E+01  6.170837017E+01  0.000000000E+00  0.00000E+00  9.000E+00
      21    -1     0     0   501   502  0.000000000E+00  0.000000000E+00 -1.845357293E+03  1.845357293E+03  0.000000000E+00  0.00000E+00  9.000E+00
      25     1     1     2     0     0  2.276009664E+01  1.324538725E+02 -2.765823405E+02  3.319410210E+02  1.250000000E+02  0.00000E+00  9.000E+00
      25     1     1     2     0     0 -1.014723361E+01 -6.416544130E+01 -1.498554576E+03  1.505161449E+03  1.250000000E+02  0.00000E+00  9.000E+00
      21     1     1     2   511   502 -1.261286303E+01 -6.828843119E+01 -8.512006277E+00  6.996319317E+01  8.429369702E-07  0.00000E+00  9.000E+00
#rwgt            1           1   4.7121508635364871E-002           2        8141           0
</event>
<event>
      5   9999  3.79277E-02  3.61925E+01 -1.00000E+00  1.47587E-01
      21    -1     0     0   502   501  0.000000000E+00  0.000000000E+00  6.434555983E+01  6.434555983E+01  0.000000000E+00  0.00000E+00  9.000E+00
      21    -1     0     0   501   512  0.000000000E+00  0.000000000E+00 -6.738828913E+02  6.738828913E+02  0.000000000E+00  0.00000E+00  9.000E+00
      25     1     1     2     0     0 -4.460489714E+01 -1.442499753E+02 -2.192607036E+02  2.941052675E+02  1.250000000E+02  0.00000E+00  9.000E+00
      25     1     1     2     0     0  4.441572822E+01  1.080579374E+02 -2.808145471E+02  3.288329129E+02  1.250000000E+02  0.00000E+00  9.000E+00
      21     1     1     2   502   512  1.891689148E-01  3.619203796E+01 -1.094620807E+02  1.152902707E+02  1.907348633E-06  0.00000E+00  9.000E+00
#rwgt            1           1   3.8335182689491737E-002           2        8236           0
</event>
<event>
      5   9999  3.79277E-02  2.26240E+01 -1.00000E+00  1.62069E-01
      21    -1     0     0   502   501  0.000000000E+00  0.000000000E+00  1.465601505E+02  1.465601505E+02  0.000000000E+00  0.00000E+00  9.000E+00
      21    -1     0     0   511   502  0.000000000E+00  0.000000000E+00 -3.328882847E+02  3.328882847E+02  0.000000000E+00  0.00000E+00  9.000E+00
      25     1     1     2     0     0 -9.844111430E+01  6.408444327E+01 -1.911722014E+02  2.568448548E+02  1.250000000E+02  0.00000E+00  9.000E+00
      25     1     1     2     0     0  9.673349439E+01 -8.664387512E+01  3.628941345E+01  1.838653082E+02  1.250000000E+02  0.00000E+00  9.000E+00
      21     1     1     2   511   501  1.707619906E+00  2.255943185E+01 -3.144534627E+01  3.873827220E+01  4.768371582E-07  0.00000E+00  9.000E+00
#rwgt            1           1   3.8532129908523852E-002           2        8367           0
</event>
<event>
      5   9999  3.79277E-02  4.13270E+01 -1.00000E+00  1.43967E-01
      21    -1     0     0   502   501  0.000000000E+00  0.000000000E+00  5.728137601E+02  5.728137601E+02  0.000000000E+00  0.00000E+00  9.000E+00
      21    -1     0     0   501   512  0.000000000E+00  0.000000000E+00 -9.581277489E+01  9.581277489E+01  0.000000000E+00  0.00000E+00  9.000E+00
      25     1     1     2     0     0  6.908954672E+01  3.605869286E+01  4.497916766E+02  4.732981588E+02  1.250000000E+02  0.00000E+00  9.000E+00
      25     1     1     2     0     0 -4.836455744E+01 -7.181335994E+01  1.976099035E+01  1.533355335E+02  1.250000000E+02  0.00000E+00  9.000E+00
      21     1     1     2   502   512 -2.072498929E+01  3.575466708E+01  7.448318324E+00  4.199284278E+01  6.078504936E-07  0.00000E+00  9.000E+00
#rwgt            1           1   4.8189118897460359E-002           2        8585           0
</event>
<event>
      5   9999  3.79277E-02  3.11365E+01 -1.00000E+00  1.51927E-01
      21    -1     0     0   502   501  0.000000000E+00  0.000000000E+00  5.210601126E+02  5.210601126E+02  0.000000000E+00  0.00000E+00  9.000E+00
      21    -1     0     0   511   502  0.000000000E+00  0.000000000E+00 -2.257000095E+02  2.257000095E+02  0.000000000E+00  0.00000E+00  9.000E+00
      25     1     1     2     0     0 -2.004926831E+02 -1.117140836E+02  3.185424201E+02  4.120335252E+02  1.250000000E+02  0.00000E+00  9.000E+00
      25     1     1     2     0     0  1.815914656E+02  1.364573288E+02  4.184863122E+01  2.626259144E+02  1.250000000E+02  0.00000E+00  9.000E+00
      21     1     1     2   511   501  1.890121753E+01 -2.474324513E+01 -6.503094819E+01  7.210068257E+01  1.348699152E-06  0.00000E+00  9.000E+00
#rwgt            1           1   3.7574106661752898E-002           2        8731           0
</event>
<event>
      5   9999  3.79277E-02  1.19692E+01 -1.00000E+00  1.87145E-01
      21    -1     0     0   502   501  0.000000000E+00  0.000000000E+00  8.130460998E+01  8.130460998E+01  0.000000000E+00  0.00000E+00  9.000E+00
      21    -1     0     0   512   502  0.000000000E+00  0.000000000E+00 -4.755364282E+02  4.755364282E+02  0.000000000E+00  0.00000E+00  9.000E+00
      25     1     1     2     0     0  7.197948085E+01 -7.751051351E+01 -3.316615142E+02  3.698827995E+02  1.250000000E+02  0.00000E+00  9.000E+00
      25     1     1     2     0     0 -6.074968407E+01  7.336878654E+01 -4.120640645E+01  1.624699076E+02  1.250000000E+02  0.00000E+00  9.000E+00
      21     1     1     2   512   501 -1.122979678E+01  4.141726968E+00 -2.136389758E+01  2.448833106E+01  3.371747881E-07  0.00000E+00  9.000E+00
#rwgt            1           1   5.2239782230178014E-002           2        9006           0
</event>
<event>
      5   9999  3.79277E-02  5.78306E+01 -1.00000E+00  1.35564E-01
      21    -1     0     0   502   501  0.000000000E+00  0.000000000E+00  4.046649070E+01  4.046649070E+01  0.000000000E+00  0.00000E+00  9.000E+00
       1    -1     0     0   501     0  0.000000000E+00  0.000000000E+00 -2.665895660E+03  2.665895660E+03  0.000000000E+00  0.00000E+00  9.000E+00
      25     1     1     2     0     0  1.076467665E+01 -9.112131748E+01 -1.246680923E+03  1.256287107E+03  1.250000000E+02  0.00000E+00  9.000E+00
      25     1     1     2     0     0  4.577848306E+01  7.898654936E+01 -1.361933388E+02  2.061750955E+02  1.250000000E+02  0.00000E+00  9.000E+00
       1     1     1     2   502     0 -5.654315972E+01  1.213476812E+01 -1.242554907E+03  1.243899948E+03  2.157918644E-05  0.00000E+00  9.000E+00
#rwgt            1           1   4.9723323166306684E-002           2        9246           0
</event>
<event>
      5   9999 -3.79277E-02  2.73326E+01 -1.00000E+00  1.55903E-01
      21    -1     0     0   511   501  0.000000000E+00  0.000000000E+00  5.358074265E+02  5.358074265E+02  0.000000000E+00  0.00000E+00  9.000E+00
      21    -1     0     0   501   502  0.000000000E+00  0.000000000E+00 -1.273986196E+02  1.273986196E+02  0.000000000E+00  0.00000E+00  9.000E+00
      25     1     1     2     0     0 -1.905084895E+01 -1.728311193E+02  2.392976633E+02  3.211259913E+02  1.250000000E+02  0.00000E+00  9.000E+00
      25     1     1     2     0     0  7.005924361E+00  1.973666197E+02  7.712929111E+01  2.461231259E+02  1.250000000E+02  0.00000E+00  9.000E+00
      21     1     1     2   511   502  1.204492459E+01 -2.453550041E+01  9.198185261E+01  9.595692887E+01  1.348699152E-06  0.00000E+00  9.000E+00
#rwgt            1           1 -0.10762039607281118                2        9368           0
</event>
<event>
      5   9999 -3.79277E-02  2.90948E+01 -1.00000E+00  1.53970E-01
      21    -1     0     0   512   501  0.000000000E+00  0.000000000E+00  1.333072305E+02  1.333072305E+02  0.000000000E+00  0.00000E+00  9.000E+00
      21    -1     0     0   501   502  0.000000000E+00  0.000000000E+00 -6.001457301E+02  6.001457301E+02  0.000000000E+00  0.00000E+00  9.000E+00
      25     1     1     2     0     0  1.715707034E+02  1.494603150E+02 -2.966730857E+02  3.942268532E+02  1.250000000E+02  0.00000E+00  9.000E+00
      25     1     1     2     0     0 -1.438893333E+02 -1.584186498E+02 -1.823361085E+02  3.076882599E+02  1.250000000E+02  0.00000E+00  9.000E+00
      21     1     1     2   512   502 -2.768137012E+01  8.958334814E+00  1.217069463E+01  3.153784745E+01  6.951036328E-07  0.00000E+00  9.000E+00
#rwgt            1           1 -0.24807411226564288                2        9498           0
</event>
<event>
      5   9999  3.79277E-02  1.14548E+01 -1.00000E+00  1.89177E-01
      21    -1     0     0   502   501  0.000000000E+00  0.000000000E+00  1.019753741E+02  1.019753741E+02  0.000000000E+00  0.00000E+00  9.000E+00
      21    -1     0     0   511   502  0.000000000E+00  0.000000000E+00 -1.049286104E+03  1.049286104E+03  0.000000000E+00  0.00000E+00  9.000E+00
      25     1     1     2     0     0  4.605991407E+01 -2.641020147E+02 -2.513849508E+02  3.881891077E+02  1.250000000E+02  0.00000E+00  9.000E+00
      25     1     1     2     0     0 -3.757057016E+01  2.717924880E+02 -6.683187092E+02  7.331831977E+02  1.250000000E+02  0.00000E+00  9.000E+00
      21     1     1     2   511   501 -8.489343906E+00 -7.690473283E+00 -2.760706945E+01  2.988917233E+01  3.371747881E-07  0.00000E+00  9.000E+00
#rwgt            1           1   3.4769226231332814E-002           2        9825           0
</event>
<event>
      5   9999 -3.79277E-02  5.58033E+01 -1.00000E+00  1.36408E-01
      21    -1     0     0   502   501  0.000000000E+00  0.000000000E+00  1.573691140E+02  1.573691140E+02  0.000000000E+00  0.00000E+00  9.000E+00
      21    -1     0     0   501   512  0.000000000E+00  0.000000000E+00 -8.592917709E+02  8.592917709E+02  0.000000000E+00  0.00000E+00  9.000E+00
      25     1     1     2     0     0  1.679429895E+01  1.602818904E+02  3.778763396E+01  2.074252592E+02  1.250000000E+02  0.00000E+00  9.000E+00
      25     1     1     2     0     0 -5.783670730E+01 -1.980909724E+02 -4.172552403E+02  4.819876073E+02  1.250000000E+02  0.00000E+00  9.000E+00
      21     1     1     2   502   512  4.104240835E+01  3.780908205E+01 -3.224550506E+02  3.272480185E+02  5.394796609E-06  0.00000E+00  9.000E+00
#rwgt            1           1 -0.11267295655788712                2       10122           0
</event>
<event>
      5   9999  3.79277E-02  5.71310E+01 -1.00000E+00  1.35850E-01
       2    -1     0     0   502     0  0.000000000E+00  0.000000000E+00  2.733339349E+02  2.733339349E+02  0.000000000E+00  0.00000E+00  9.000E+00
      21    -1     0     0   501   502  0.000000000E+00  0.000000000E+00 -2.545203818E+02  2.545203818E+02  0.000000000E+00  0.00000E+00  9.000E+00
      25     1     1     2     0     0 -9.913812077E+01  7.032719620E+01  9.858009278E+00  1.746323620E+02  1.250000000E+02  0.00000E+00  9.000E+00
      25     1     1     2     0     0  1.546859365E+02 -5.697085474E+01 -1.003158429E+02  2.299166927E+02  1.250000000E+02  0.00000E+00  9.000E+00
       2     1     1     2   501     0 -5.554781571E+01 -1.335634146E+01  1.092713867E+02  1.233052620E+02  0.000000000E+00  0.00000E+00  9.000E+00
#rwgt            1           1   4.4328095798917083E-002           2       10204           0
</event>
<event>
      5   9999  3.79277E-02  4.55419E+01 -1.00000E+00  1.41430E-01
      21    -1     0     0   511   501  0.000000000E+00  0.000000000E+00  5.655648093E+02  5.655648093E+02  0.000000000E+00  0.00000E+00  9.000E+00
      21    -1     0     0   501   502  0.000000000E+00  0.000000000E+00 -3.245142760E+02  3.245142760E+02  0.000000000E+00  0.00000E+00  9.000E+00
      25     1     1     2     0     0  1.442401993E+02 -1.458029143E+02 -1.684620362E+01  2.407748315E+02  1.250000000E+02  0.00000E+00  9.000E+00
      25     1     1     2     0     0 -1.066039655E+02  1.714462702E+02 -1.218125348E+02  2.668736080E+02  1.250000000E+02  0.00000E+00  9.000E+00
      21     1     1     2   511   502 -3.763623378E+01 -2.564335590E+01  3.797092717E+02  3.824306457E+02  5.394796609E-06  0.00000E+00  9.000E+00
#rwgt            1           1   4.4832903477228944E-002           2       10455           0
</event>
<event>
      5   9999  3.79277E-02  2.67516E+01 -1.00000E+00  1.56579E-01
      21    -1     0     0   512   501  0.000000000E+00  0.000000000E+00  1.565763081E+02  1.565763081E+02  0.000000000E+00  0.00000E+00  9.000E+00
      21    -1     0     0   501   502  0.000000000E+00  0.000000000E+00 -9.792968315E+02  9.792968315E+02  0.000000000E+00  0.00000E+00  9.000E+00
      25     1     1     2     0     0 -4.612801549E+01 -6.704569415E+01 -7.312458886E+01  1.661178028E+02  1.250000000E+02  0.00000E+00  9.000E+00
      25     1     1     2     0     0  2.895124614E+01  8.755444293E+01 -8.509083627E+02  8.649705179E+02  1.250000000E+02  0.00000E+00  9.000E+00
      21     1     1     2   512   502  1.717676935E+01 -2.050874879E+01  1.013124281E+02  1.047848189E+02  1.907348633E-06  0.00000E+00  9.000E+00
#rwgt            1           1   3.8556958798586970E-002           2       10624           0
</event>
<event>
      5   9999  3.79277E-02  7.53105E+01 -1.00000E+00  1.29632E-01
      21    -1     0     0   502   501  0.000000000E+00  0.000000000E+00  2.809755151E+03  2.809755151E+03  0.000000000E+00  0.00000E+00  9.000E+00
       2    -1     0     0   501     0  0.000000000E+00  0.000000000E+00 -4.172346374E+02  4.172346374E+02  0.000000000E+00  0.00000E+00  9.000E+00
      25     1     1     2     0     0  1.275294461E+00  2.261138997E+00  2.612443207E+03  2.615433281E+03  1.250000000E+02  0.00000E+00  9.000E+00
      25     1     1     2     0     0 -1.535321724E+01  7.172182974E+01  1.648401252E+02  2.194926172E+02  1.250000000E+02  0.00000E+00  9.000E+00
       2     1     1     2   502     0  1.407792277E+01 -7.398296874E+01 -3.847628183E+02  3.920638901E+02  9.344061824E-06  0.00000E+00  9.000E+00
#rwgt            1           1   6.9012259308454615E-002           2       11002           0
</event>
<event>
      5   9999  3.79277E-02  8.22899E+01 -1.00000E+00  1.27759E-01
      21    -1     0     0   502   501  0.000000000E+00  0.000000000E+00  2.389825379E+02  2.389825379E+02  0.000000000E+00  0.00000E+00  9.000E+00
      21    -1     0     0   501   511  0.000000000E+00  0.000000000E+00 -4.242341018E+02  4.242341018E+02  0.000000000E+00  0.00000E+00  9.000E+00
      25     1     1     2     0     0 -5.132288288E+01  3.338214337E+01  1.808733681E+02  2.282292293E+02  1.250000000E+02  0.00000E+00  9.000E+00
      25     1     1     2     0     0  3.068966161E+01  4.627904595E+01 -1.463757303E+02  2.003358676E+02  1.250000000E+02  0.00000E+00  9.000E+00
      21     1     1     2   502   511  2.063322127E+01 -7.966118932E+01 -2.197492017E+02  2.346515428E+02  0.000000000E+00  0.00000E+00  9.000E+00
#rwgt            1           1   5.4928353299751834E-002           2       11233           0
</event>
<event>
      5   9999  3.79277E-02  6.01857E+01 -1.00000E+00  1.34632E-01
      21    -1     0     0   502   501  0.000000000E+00  0.000000000E+00  2.519001130E+02  2.519001130E+02  0.000000000E+00  0.00000E+00  9.000E+00
      21    -1     0     0   501   512  0.000000000E+00  0.000000000E+00 -4.861492016E+02  4.861492016E+02  0.000000000E+00  0.00000E+00  9.000E+00
      25     1     1     2     0     0  1.818482546E+02 -1.507532263E+02  4.825018254E+00  2.672893633E+02  1.250000000E+02  0.00000E+00  9.000E+00
      25     1     1     2     0     0 -1.318492647E+02  1.842557875E+02 -3.882474615E+01  2.616615844E+02  1.250000000E+02  0.00000E+00  9.000E+00
      21     1     1     2   502   512 -4.999898990E+01 -3.350256123E+01 -2.002493607E+02  2.090983669E+02  2.697398305E-06  0.00000E+00  9.000E+00
#rwgt            1           1   3.1320756520552245E-002           2       11298           0
</event>
<event>
      5   9999  3.79277E-02  7.26292E+01 -1.00000E+00  1.30415E-01
      21    -1     0     0   502   501  0.000000000E+00  0.000000000E+00  4.239497719E+02  4.239497719E+02  0.000000000E+00  0.00000E+00  9.000E+00
       2    -1     0     0   501     0  0.000000000E+00  0.000000000E+00 -5.623857531E+02  5.623857531E+02  0.000000000E+00  0.00000E+00  9.000E+00
      25     1     1     2     0     0  5.296680584E+01  4.887877934E+01  2.632894027E+01  1.466725287E+02  1.250000000E+02  0.00000E+00  9.000E+00
      25     1     1     2     0     0 -1.241129434E+02 -3.427643464E+01  3.106361207E+02  3.587460051E+02  1.250000000E+02  0.00000E+00  9.000E+00
       2     1     1     2   502     0  7.114613759E+01 -1.460234470E+01 -4.754010422E+02  4.809169911E+02  5.394796609E-06  0.00000E+00  9.000E+00
#rwgt            1           1   4.5130813402204491E-002           2       11460           0
</event>
<event>
      5   9999  3.79277E-02  2.60436E+01 -1.00000E+00  1.57432E-01
      21    -1     0     0   502   511  0.000000000E+00  0.000000000E+00  2.368702427E+02  2.368702427E+02  0.000000000E+00  0.00000E+00  9.000E+00
      21    -1     0     0   501   502  0.000000000E+00  0.000000000E+00 -2.139070005E+02  2.139070005E+02  0.000000000E+00  0.00000E+00  9.000E+00
      25     1     1     2     0     0  1.775829517E+01 -1.295425898E+02 -8.803828877E+01  2.011774836E+02  1.250000000E+02  0.00000E+00  9.000E+00
      25     1     1     2     0     0 -3.824234531E+01  1.456258275E+02  8.690537975E+01  2.141189007E+02  1.250000000E+02  0.00000E+00  9.000E+00
      21     1     1     2   501   511  2.048405014E+01 -1.608323763E+01  2.409615119E+01  3.548085885E+01  5.840038640E-07  0.00000E+00  9.000E+00
#rwgt            1           1   3.4536348313860002E-002           2       11566           0
</event>
<event>
      5   9999  3.79277E-02  3.41006E+01 -1.00000E+00  1.49273E-01
      21    -1     0     0   502   501  0.000000000E+00  0.000000000E+00  9.432967278E+02  9.432967278E+02  0.000000000E+00  0.00000E+00  9.000E+00
      21    -1     0     0   512   502  0.000000000E+00  0.000000000E+00 -8.805460499E+01  8.805460499E+01  0.000000000E+00  0.00000E+00  9.000E+00
      25     1     1     2     0     0  9.739927807E+01 -1.011976686E+02  7.063863712E+02  7.309817323E+02  1.250000000E+02  0.00000E+00  9.000E+00
      25     1     1     2     0     0 -1.173941336E+02  7.357414815E+01  1.762121598E+02  2.566520274E+02  1.250000000E+02  0.00000E+00  9.000E+00
      21     1     1     2   512   501  1.999485556E+01  2.762352047E+01 -2.735640820E+01  4.371757314E+01  5.840038640E-07  0.00000E+00  9.000E+00
#rwgt            1           1   3.3923868978789580E-002           2       11728           0
</event>
<event>
      5   9999  3.79277E-02  2.99587E+01 -1.00000E+00  1.53081E-01
      21    -1     0     0   502   511  0.000000000E+00  0.000000000E+00  6.551323687E+01  6.551323687E+01  0.000000000E+00  0.00000E+00  9.000E+00
      21    -1     0     0   501   502  0.000000000E+00  0.000000000E+00 -8.524672071E+02  8.524672071E+02  0.000000000E+00  0.00000E+00  9.000E+00
      25     1     1     2     0     0 -9.463875142E+01 -1.513169172E+02 -2.576236415E+02  3.374140533E+02  1.250000000E+02  0.00000E+00  9.000E+00
      25     1     1     2     0     0  8.166526262E+01  1.243129941E+02 -5.077269026E+02  5.436308888E+02  1.250000000E+02  0.00000E+00  9.000E+00
      21     1     1     2   501   511  1.297348880E+01  2.700392318E+01 -2.160342616E+01  3.693550190E+01  5.840038640E-07  0.00000E+00  9.000E+00
#rwgt            1           1   5.0292183826198475E-002           2       11845           0
</event>
<event>
      5   9999  3.79277E-02  3.52728E+01 -1.00000E+00  1.48311E-01
      21    -1     0     0   512   501  0.000000000E+00  0.000000000E+00  1.065747521E+03  1.065747521E+03  0.000000000E+00  0.00000E+00  9.000E+00
      21    -1     0     0   501   502  0.000000000E+00  0.000000000E+00 -4.287405102E+01  4.287405102E+01  0.000000000E+00  0.00000E+00  9.000E+00
      25     1     1     2     0     0  1.710469806E+01 -1.048091599E+02  2.158911793E+02  2.711301016E+02  1.250000000E+02  0.00000E+00  9.000E+00
      25     1     1     2     0     0 -2.569265573E+01  1.390205181E+02  6.775907515E+02  7.033783076E+02  1.250000000E+02  0.00000E+00  9.000E+00
      21     1     1     2   512   502  8.587957668E+00 -3.421135812E+01  1.293915389E+02  1.341131625E+02  0.000000000E+00  0.00000E+00  9.000E+00
#rwgt            1           1   2.4321499680692048E-002           2       12008           0
</event>
<event>
      5   9999  3.79277E-02  7.62615E+01 -1.00000E+00  1.29364E-01
      21    -1     0     0   502   511  0.000000000E+00  0.000000000E+00  2.117009594E+03  2.117009594E+03  0.000000000E+00  0.00000E+00  9.000E+00
      21    -1     0     0   501   502  0.000000000E+00  0.000000000E+00 -8.703791106E+01  8.703791106E+01  0.000000000E+00  0.00000E+00  9.000E+00
      25     1     1     2     0     0  9.699617272E+01 -3.881725937E+01  2.310135350E+02  2.826787762E+02  1.250000000E+02  0.00000E+00  9.000E+00
      25     1     1     2     0     0 -4.716575557E+01  9.654714679E+01  5.213889394E+01  1.728855816E+02  1.250000000E+02  0.00000E+00  9.000E+00
      21     1     1     2   501   511 -4.983041715E+01 -5.772988742E+01  1.746819254E+03  1.748483147E+03  3.737624730E-05  0.00000E+00  9.000E+00
#rwgt            1           1   4.5682901393626178E-002           2       12156           0
</event>
<event>
      5   9999  3.79277E-02  2.26721E+01 -1.00000E+00  1.61997E-01
      21    -1     0     0   502   501  0.000000000E+00  0.000000000E+00  1.127051674E+02  1.127051674E+02  0.000000000E+00  0.00000E+00  9.000E+00
      21    -1     0     0   501   512  0.000000000E+00  0.000000000E+00 -1.947392637E+03  1.947392637E+03  0.000000000E+00  0.00000E+00  9.000E+00
      25     1     1     2     0     0  1.086117066E+02 -5.025381385E+01 -1.334182583E+01  1.735654140E+02  1.250000000E+02  0.00000E+00  9.000E+00
      25     1     1     2     0     0 -9.019838820E+01  6.348153094E+01 -1.811604243E+02  2.461904818E+02  1.250000000E+02  0.00000E+00  9.000E+00
      21     1     1     2   502   512 -1.841331843E+01 -1.322771709E+01 -1.640185219E+03  1.640341908E+03  0.000000000E+00  0.00000E+00  9.000E+00
#rwgt            1           1   3.9228177570752171E-002           2       12263           0
</event>
<event>
      5   9999  3.79277E-02  9.03707E+01 -1.00000E+00  1.25839E-01
      21    -1     0     0   502   501  0.000000000E+00  0.000000000E+00  2.064172909E+01  2.064172909E+01  0.000000000E+00  0.00000E+00  9.000E+00
       2    -1     0     0   501     0  0.000000000E+00  0.000000000E+00 -3.937274102E+03  3.937274102E+03  0.000000000E+00  0.00000E+00  9.000E+00
      25     1     1     2     0     0  1.336598300E+02  1.091969592E+02 -1.948447380E+03  1.960066611E+03  1.250000000E+02  0.00000E+00  9.000E+00
      25     1     1     2     0     0 -1.812759596E+02 -3.238829878E+01 -9.527367281E+02  9.783875758E+02  1.250000000E+02  0.00000E+00  9.000E+00
       2     1     1     2   502     0  4.761612965E+01 -7.680866042E+01 -1.015448265E+03  1.019461645E+03  1.525878906E-05  0.00000E+00  9.000E+00
#rwgt            1           1   5.1177586939771341E-002           2       12413           0
</event>
<event>
      5   9999  3.79277E-02  1.47463E+02 -1.00000E+00  1.16688E-01
      21    -1     0     0   502   501  0.000000000E+00  0.000000000E+00  7.751829977E+01  7.751829977E+01  0.000000000E+00  0.00000E+00  9.000E+00
       2    -1     0     0   501     0  0.000000000E+00  0.000000000E+00 -1.863918760E+03  1.863918760E+03  0.000000000E+00  0.00000E+00  9.000E+00
      25     1     1     2     0     0  2.034742672E+02  1.186429049E+01 -4.500102143E+02  5.095848622E+02  1.250000000E+02  0.00000E+00  9.000E+00
      25     1     1     2     0     0 -1.418392816E+02 -1.458291476E+02 -2.924119087E+02  3.775105912E+02  1.250000000E+02  0.00000E+00  9.000E+00
       2     1     1     2   502     0 -6.163498561E+01  1.339648571E+02 -1.043978337E+03  1.054341606E+03  0.000000000E+00  0.00000E+00  9.000E+00
#rwgt            1           1   3.2555965575647473E-002           2       12536           0
</event>
<event>
      5   9999  3.79277E-02  3.87147E+01 -1.00000E+00  1.45725E-01
       2    -1     0     0   502     0  0.000000000E+00  0.000000000E+00  1.609824456E+03  1.609824456E+03  0.000000000E+00  0.00000E+00  9.000E+00
      21    -1     0     0   501   502  0.000000000E+00  0.000000000E+00 -1.686605525E+02  1.686605525E+02  0.000000000E+00  0.00000E+00  9.000E+00
      25     1     1     2     0     0 -1.592468618E+02 -4.068421217E+01  3.433756680E+01  2.093294929E+02  1.250000000E+02  0.00000E+00  9.000E+00
      25     1     1     2     0     0  1.979605434E+02  4.095935397E+01  9.373601062E+01  2.554945892E+02  1.250000000E+02  0.00000E+00  9.000E+00
       2     1     1     2   501     0 -3.871368160E+01 -2.751417955E-01  1.313090326E+03  1.313660926E+03  1.525878906E-05  0.00000E+00  9.000E+00
#rwgt            1           1   4.1691258350025712E-002           2       12602           0
</event>
<event>
      5   9999  3.79277E-02  1.27827E+02 -1.00000E+00  1.19215E-01
      21    -1     0     0   502   501  0.000000000E+00  0.000000000E+00  1.333440707E+02  1.333440707E+02  0.000000000E+00  0.00000E+00  9.000E+00
      21    -1     0     0   511   502  0.000000000E+00  0.000000000E+00 -1.081118234E+03  1.081118234E+03  0.000000000E+00  0.00000E+00  9.000E+00
      25     1     1     2     0     0  8.450976786E+01  1.474738144E+02 -2.052589152E+01  2.119828744E+02  1.250000000E+02  0.00000E+00  9.000E+00
      25     1     1     2     0     0  3.961593599E+01 -1.169361910E+02 -2.094225090E+02  2.733610843E+02  1.250000000E+02  0.00000E+00  9.000E+00
      21     1     1     2   511   501 -1.241257039E+02 -3.053762343E+01 -7.178257631E+02  7.291183464E+02  0.000000000E+00  0.00000E+00  9.000E+00
#rwgt            1           1   3.9541314091631655E-002           2       12772           0
</event>
<event>
      5   9999  3.79277E-02  3.66905E+01 -1.00000E+00  1.47205E-01
      21    -1     0     0   502   501  0.000000000E+00  0.000000000E+00  1.314155497E+02  1.314155497E+02  0.000000000E+00  0.00000E+00  9.000E+00
      21    -1     0     0   512   502  0.000000000E+00  0.000000000E+00 -4.847577462E+02  4.847577462E+02  0.000000000E+00  0.00000E+00  9.000E+00
      25     1     1     2     0     0 -1.262207976E+02 -2.324966834E+01 -3.119774386E+02  3.597598630E+02  1.250000000E+02  0.00000E+00  9.000E+00
      25     1     1     2     0     0  1.237022220E+02 -1.335424998E+01  2.738948823E+01  1.784818192E+02  1.250000000E+02  0.00000E+00  9.000E+00
      21     1     1     2   512   501  2.518575511E+00  3.660391832E+01 -6.875424612E+01  7.793161373E+01  0.000000000E+00  0.00000E+00  9.000E+00
#rwgt            1           1   6.9580171047582781E-002           2       12910           0
</event>
<event>
      5   9999  3.79277E-02  3.53649E+01 -1.00000E+00  1.48237E-01
      21    -1     0     0   502   501  0.000000000E+00  0.000000000E+00  6.141011300E+02  6.141011300E+02  0.000000000E+00  0.00000E+00  9.000E+00
      21    -1     0     0   501   511  0.000000000E+00  0.000000000E+00 -1.168705103E+02  1.168705103E+02  0.000000000E+00  0.00000E+00  9.000E+00
      25     1     1     2     0     0 -1.657531923E+01  1.595538950E+02  4.449560136E+02  4.892269827E+02  1.250000000E+02  0.00000E+00  9.000E+00
      25     1     1     2     0     0  4.569075771E+01 -1.394798228E+02  1.992365905E+01  1.938149079E+02  1.250000000E+02  0.00000E+00  9.000E+00
      21     1     1     2   502   511 -2.911543848E+01 -2.007407215E+01  3.235094712E+01  4.792974974E+01  9.536743164E-07  0.00000E+00  9.000E+00
#rwgt            1           1   3.9548876294016086E-002           2       13010           0
</event>
<event>
      5   9999  3.79277E-02  6.37738E+01 -1.00000E+00  1.33303E-01
      21    -1     0     0   502   501  0.000000000E+00  0.000000000E+00  3.031135867E+02  3.031135867E+02  0.000000000E+00  0.00000E+00  9.000E+00
      21    -1     0     0   501   512  0.000000000E+00  0.000000000E+00 -3.175426598E+02  3.175426598E+02  0.000000000E+00  0.00000E+00  9.000E+00
      25     1     1     2     0     0 -1.204214889E+02  1.976943716E+02 -5.251187930E+01  2.682664665E+02  1.250000000E+02  0.00000E+00  9.000E+00
      25     1     1     2     0     0  1.819136486E+02 -1.807883377E+02  4.252202388E+01  2.884616458E+02  1.250000000E+02  0.00000E+00  9.000E+00
      21     1     1     2   502   512 -6.149215968E+01 -1.690603389E+01 -4.439217690E+00  6.392813417E+01  5.900558792E-07  0.00000E+00  9.000E+00
#rwgt            1           1   3.6898846574995550E-002           2       13188           0
</event>
<event>
      5   9999  3.79277E-02  2.07022E+01 -1.00000E+00  1.65142E-01
      21    -1     0     0   511   501  0.000000000E+00  0.000000000E+00  3.579137475E+01  3.579137475E+01  0.000000000E+00  0.00000E+00  9.000E+00
      21    -1     0     0   501   502  0.000000000E+00  0.000000000E+00 -2.597587278E+03  2.597587278E+03  0.000000000E+00  0.00000E+00  9.000E+00
      25     1     1     2     0     0 -1.359243032E+02  2.168055921E+01 -5.887546436E+02  6.174159807E+02  1.250000000E+02  0.00000E+00  9.000E+00
      25     1     1     2     0     0  1.505629935E+02 -7.041931004E+00 -1.983240792E+03  1.992884302E+03  1.250000000E+02  0.00000E+00  9.000E+00
      21     1     1     2   511   502 -1.463869034E+01 -1.463862821E+01  1.019953227E+01  2.307836972E+01  1.673182112E-06  0.00000E+00  9.000E+00
#rwgt            1           1   6.0627611125069786E-002           2       13297           0
</event>
<event>
      5   9999  3.79277E-02  9.78427E+00 -1.00000E+00  1.96858E-01
      21    -1     0     0   502   501  0.000000000E+00  0.000000000E+00  4.773313180E+01  4.773313180E+01  0.000000000E+00  0.00000E+00  9.000E+00
       2    -1     0     0   501     0  0.000000000E+00  0.000000000E+00 -2.208994645E+03  2.208994645E+03  0.000000000E+00  0.00000E+00  9.000E+00
      25     1     1     2     0     0  3.940917281E+01  8.436657607E+01 -5.583516485E+02  5.797002376E+02  1.250000000E+02  0.00000E+00  9.000E+00
      25     1     1     2     0     0 -4.643748055E+01 -7.755960480E+01 -1.235622507E+02  1.976475694E+02  1.250000000E+02  0.00000E+00  9.000E+00
       2     1     1     2   502     0  7.028307737E+00 -6.806971269E+00 -1.479347614E+03  1.479379970E+03  2.157918644E-05  0.00000E+00  9.000E+00
#rwgt            1           1   5.3542840658248152E-002           2       13460           0
</event>
<event>
      5   9999  3.79277E-02  1.22099E+02 -1.00000E+00  1.20050E-01
      21    -1     0     0   511   501  0.000000000E+00  0.000000000E+00  3.670898195E+02  3.670898195E+02  0.000000000E+00  0.00000E+00  9.000E+00
      21    -1     0     0   501   502  0.000000000E+00  0.000000000E+00 -2.671551025E+02  2.671551025E+02  0.000000000E+00  0.00000E+00  9.000E+00
      25     1     1     2     0     0 -2.004726126E+02  8.716175051E+01 -3.852141662E+00  2.518457427E+02  1.250000000E+02  0.00000E+00  9.000E+00
      25     1     1     2     0     0  7.865787889E+01 -9.548431301E+01 -5.299796232E+01  1.836793400E+02  1.250000000E+02  0.00000E+00  9.000E+00
      21     1     1     2   511   502  1.218147337E+02  8.322562497E+00  1.567848211E+02  1.987198392E+02  0.000000000E+00  0.00000E+00  9.000E+00
#rwgt            1           1   4.2455852041094408E-002           2       13716           0
</event>
<event>
      5   9999  3.79277E-02  1.92071E+02 -1.00000E+00  1.12291E-01
      21    -1     0     0   502   501  0.000000000E+00  0.000000000E+00  1.161674191E+02  1.161674191E+02  0.000000000E+00  0.00000E+00  9.000E+00
      21    -1     0     0   512   502  0.000000000E+00  0.000000000E+00 -1.308374629E+03  1.308374629E+03  0.000000000E+00  0.00000E+00  9.000E+00
      25     1     1     2     0     0 -1.718193186E+02  4.965297877E+01 -8.372818114E+01  2.337150078E+02  1.250000000E+02  0.00000E+00  9.000E+00
      25     1     1     2     0     0  1.100247508E+02  1.322060177E+02 -3.600444076E+02  4.181397522E+02  1.250000000E+02  0.00000E+00  9.000E+00
      21     1     1     2   512   501  6.179456772E+01 -1.818589965E+02 -7.484346207E+02  7.726872878E+02  1.078959322E-05  0.00000E+00  9.000E+00
#rwgt            2          11   1.4700229383510204E-003           2       13791           0
</event>
<event>
      5   9999  3.79277E-02  1.75795E+02 -1.00000E+00  1.13726E-01
      21    -1     0     0   502   501  0.000000000E+00  0.000000000E+00  7.927408999E+02  7.927408999E+02  0.000000000E+00  0.00000E+00  9.000E+00
      21    -1     0     0   511   502  0.000000000E+00  0.000000000E+00 -1.323878944E+02  1.323878944E+02  0.000000000E+00  0.00000E+00  9.000E+00
      25     1     1     2     0     0  4.397064019E+01 -7.325607867E+01  3.267286982E+02  3.601062517E+02  1.250000000E+02  0.00000E+00  9.000E+00
      25     1     1     2     0     0 -2.043019621E+02  1.453518041E+02  2.091327755E+02  3.496111504E+02  1.250000000E+02  0.00000E+00  9.000E+00
      21     1     1     2   511   501  1.603313219E+02 -7.209572542E+01  1.244915317E+02  2.154113922E+02  1.907348633E-06  0.00000E+00  9.000E+00
#rwgt            2          11   2.1762497706916918E-003           2       13931           0
</event>
<event>
      5   9999  3.79277E-02  8.16172E+01 -1.00000E+00  1.27930E-01
      21    -1     0     0   502   512  0.000000000E+00  0.000000000E+00  2.795071301E+02  2.795071301E+02  0.000000000E+00  0.00000E+00  9.000E+00
      21    -1     0     0   501   502  0.000000000E+00  0.000000000E+00 -5.735906801E+02  5.735906801E+02  0.000000000E+00  0.00000E+00  9.000E+00
      25     1     1     2     0     0 -1.951638136E+02 -2.021840253E+02 -3.121167183E+02  4.381884755E+02  1.250000000E+02  0.00000E+00  9.000E+00
      25     1     1     2     0     0  1.217014571E+02  2.377458651E+02 -6.118458849E+01  3.011692131E+02  1.250000000E+02  0.00000E+00  9.000E+00
      21     1     1     2   501   512  7.346235652E+01 -3.556183977E+01  7.921775683E+01  1.137401216E+02  1.907348633E-06  0.00000E+00  9.000E+00
#rwgt            1           1   3.5099218824984672E-002           2       13996           0
</event>
<event>
      5   9999  3.79277E-02  1.58000E+02 -1.00000E+00  1.15506E-01
      21    -1     0     0   511   501  0.000000000E+00  0.000000000E+00  6.654640833E+02  6.654640833E+02  0.000000000E+00  0.00000E+00  9.000E+00
      21    -1     0     0   501   502  0.000000000E+00  0.000000000E+00 -1.790726735E+02  1.790726735E+02  0.000000000E+00  0.00000E+00  9.000E+00
      25     1     1     2     0     0  2.433595882E+02  1.825215229E+02  2.010403830E+02  3.854610630E+02  1.250000000E+02  0.00000E+00  9.000E+00
      25     1     1     2     0     0 -1.308278891E+02 -7.161267599E+01  1.120232921E+02  2.245407088E+02  1.250000000E+02  0.00000E+00  9.000E+00
      21     1     1     2   511   502 -1.125316991E+02 -1.109088469E+02  1.733277346E+02  2.345349851E+02  1.907348633E-06  0.00000E+00  9.000E+00
#rwgt            1           1   2.9853706537584287E-002           2       14066           0
</event>
<event>
      5   9999  3.79277E-02  5.35779E+01 -1.00000E+00  1.37384E-01
      21    -1     0     0   502   501  0.000000000E+00  0.000000000E+00  8.206651563E+02  8.206651563E+02  0.000000000E+00  0.00000E+00  9.000E+00
      21    -1     0     0   501   512  0.000000000E+00  0.000000000E+00 -7.063440530E+01  7.063440530E+01  0.000000000E+00  0.00000E+00  9.000E+00
      25     1     1     2     0     0 -1.207012112E+02  8.712395806E+01  1.921015772E+02  2.732899237E+02  1.250000000E+02  0.00000E+00  9.000E+00
      25     1     1     2     0     0  9.880033393E+01 -1.360211742E+02  4.766937993E+02  5.206968831E+02  1.250000000E+02  0.00000E+00  9.000E+00
      21     1     1     2   502   512  2.190087722E+01  4.889721613E+01  8.123537453E+01  9.731275478E+01  0.000000000E+00  0.00000E+00  9.000E+00
#rwgt            1           1   4.3670023941259122E-002           2       14158           0
</event>
<event>
      5   9999  3.79277E-02  1.03221E+02 -1.00000E+00  1.23212E-01
      21    -1     0     0   502   501  0.000000000E+00  0.000000000E+00  6.218920033E+01  6.218920033E+01  0.000000000E+00  0.00000E+00  9.000E+00
      21    -1     0     0   501   511  0.000000000E+00  0.000000000E+00 -1.237855201E+03  1.237855201E+03  0.000000000E+00  0.00000E+00  9.000E+00
      25     1     1     2     0     0 -9.352031938E+01  1.026538959E+02 -3.485593828E+02  3.954775794E+02  1.250000000E+02  0.00000E+00  9.000E+00
      25     1     1     2     0     0  1.069344030E+02 -2.049997192E+02 -5.807835813E+02  6.374907213E+02  1.250000000E+02  0.00000E+00  9.000E+00
      21     1     1     2   502   511 -1.341408358E+01  1.023458233E+02 -2.463230368E+02  2.670761009E+02  2.697398305E-06  0.00000E+00  9.000E+00
#rwgt            1           1   3.1114234339685253E-002           2       14369           0
</event>
<event>
      5   9999  3.79277E-02  3.38227E+01 -1.00000E+00  1.49508E-01
       2    -1     0     0   502     0  0.000000000E+00  0.000000000E+00  8.494071705E+02  8.494071705E+02  0.000000000E+00  0.00000E+00  9.000E+00
      21    -1     0     0   501   502  0.000000000E+00  0.000000000E+00 -5.256827748E+01  5.256827748E+01  0.000000000E+00  0.00000E+00  9.000E+00
      25     1     1     2     0     0  1.685578167E+01 -1.116635632E+02  1.789978109E+02  2.458009053E+02  1.250000000E+02  0.00000E+00  9.000E+00
      25     1     1     2     0     0  6.136928233E+00  1.364690754E+02  5.506795296E+02  5.809771206E+02  1.250000000E+02  0.00000E+00  9.000E+00
       2     1     1     2   501     0 -2.299270990E+01 -2.480551216E+01  6.716155255E+01  7.519742205E+01  9.536743164E-07  0.00000E+00  9.000E+00
#rwgt            1           1   3.5603783594375320E-002           2       14514           0
</event>
<event>
      5   9999  3.79277E-02  2.37603E+01 -1.00000E+00  1.60423E-01
      21    -1     0     0   511   501  0.000000000E+00  0.000000000E+00  2.963196735E+02  2.963196735E+02  0.000000000E+00  0.00000E+00  9.000E+00
      21    -1     0     0   501   502  0.000000000E+00  0.000000000E+00 -1.592038309E+02  1.592038309E+02  0.000000000E+00  0.00000E+00  9.000E+00
      25     1     1     2     0     0  6.333587185E+01 -1.082762591E+02  7.704744277E+00  1.772555896E+02  1.250000000E+02  0.00000E+00  9.000E+00
      25     1     1     2     0     0 -7.835329405E+01  8.986354471E+01  2.909309212E+01  1.751744940E+02  1.250000000E+02  0.00000E+00  9.000E+00
      21     1     1     2   511   502  1.501742220E+01  1.841271441E+01  1.003180063E+02  1.030934208E+02  1.348699152E-06  0.00000E+00  9.000E+00
#rwgt            1           1   5.6745252285286402E-002           2       14636           0
</event>
<event>
      5   9999  3.79277E-02  3.31517E+01 -1.00000E+00  1.50086E-01
      21    -1     0     0   502   512  0.000000000E+00  0.000000000E+00  8.322621503E+01  8.322621503E+01  0.000000000E+00  0.00000E+00  9.000E+00
      21    -1     0     0   501   502  0.000000000E+00  0.000000000E+00 -5.250354422E+02  5.250354422E+02  0.000000000E+00  0.00000E+00  9.000E+00
      25     1     1     2     0     0  1.909611659E-01 -9.214887897E+01 -4.644953932E+01  1.620926034E+02  1.250000000E+02  0.00000E+00  9.000E+00
      25     1     1     2     0     0 -2.826045382E+01  1.097879341E+02 -3.606144024E+02  3.981454394E+02  1.250000000E+02  0.00000E+00  9.000E+00
      21     1     1     2   501   512  2.806949266E+01 -1.763905510E+01 -3.474528543E+01  4.802361443E+01  8.259061849E-07  0.00000E+00  9.000E+00
#rwgt            1           1   3.8964427267359610E-002           2       14704           0
</event>
<event>
      5   9999  3.79277E-02  2.65195E+01 -1.00000E+00  1.56855E-01
      21    -1     0     0   502   501  0.000000000E+00  0.000000000E+00  2.715219489E+02  2.715219489E+02  0.000000000E+00  0.00000E+00  9.000E+00
      21    -1     0     0   501   511  0.000000000E+00  0.000000000E+00 -3.404613101E+02  3.404613101E+02  0.000000000E+00  0.00000E+00  9.000E+00
      25     1     1     2     0     0  1.703381957E+02  2.222203599E+01  1.648841496E+02  2.689250873E+02  1.250000000E+02  0.00000E+00  9.000E+00
      25     1     1     2     0     0 -1.798218248E+02 -4.698787869E+01 -2.155334396E+02  3.108430681E+02  1.250000000E+02  0.00000E+00  9.000E+00
      21     1     1     2   502   511  9.483629118E+00  2.476584271E+01 -1.829007125E+01  3.221510348E+01  5.331201500E-07  0.00000E+00  9.000E+00
#rwgt            1           1   3.5987839332101770E-002           2       14911           0
</event>
<event>
      5   9999  3.79277E-02  2.31871E+01 -1.00000E+00  1.61239E-01
      21    -1     0     0   502   512  0.000000000E+00  0.000000000E+00  4.109386320E+02  4.109386320E+02  0.000000000E+00  0.00000E+00  9.000E+00
      21    -1     0     0   501   502  0.000000000E+00  0.000000000E+00 -1.674327242E+02  1.674327242E+02  0.000000000E+00  0.00000E+00  9.000E+00
      25     1     1     2     0     0 -8.060147653E+01  1.164231768E+02  1.958446466E+01  1.898934053E+02  1.250000000E+02  0.00000E+00  9.000E+00
      25     1     1     2     0     0  1.014059887E+02 -1.061852809E+02  3.237006015E+01  1.955282824E+02  1.250000000E+02  0.00000E+00  9.000E+00
      21     1     1     2   501   512 -2.080451220E+01 -1.023789588E+01  1.915513830E+02  1.929496685E+02  2.697398305E-06  0.00000E+00  9.000E+00
#rwgt            1           1   3.8798279148615909E-002           2       15273           0
</event>
<event>
      5   9999  3.79277E-02  1.45561E+02 -1.00000E+00  1.16913E-01
      21    -1     0     0   502   511  0.000000000E+00  0.000000000E+00  1.177216703E+02  1.177216703E+02  0.000000000E+00  0.00000E+00  9.000E+00
      21    -1     0     0   501   502  0.000000000E+00  0.000000000E+00 -6.977458674E+02  6.977458674E+02  0.000000000E+00  0.00000E+00  9.000E+00
      25     1     1     2     0     0  9.881028048E+01  2.749064319E+00 -1.878117517E+02  2.463113537E+02  1.250000000E+02  0.00000E+00  9.000E+00
      25     1     1     2     0     0 -2.116348888E+02 -9.472006731E+01 -2.869610921E+02  3.895290563E+02  1.250000000E+02  0.00000E+00  9.000E+00
      21     1     1     2   501   511  1.128246083E+02  9.197100299E+01 -1.052513532E+02  1.796271276E+02  3.303624740E-06  0.00000E+00  9.000E+00
#rwgt            1           1   4.1102191769589208E-002           2       15395           0
</event>
<event>
      5   9999  3.79277E-02  1.12242E+02 -1.00000E+00  1.21613E-01
      21    -1     0     0   502   512  0.000000000E+00  0.000000000E+00  2.631812995E+02  2.631812995E+02  0.000000000E+00  0.00000E+00  9.000E+00
      21    -1     0     0   501   502  0.000000000E+00  0.000000000E+00 -1.202038447E+03  1.202038447E+03  0.000000000E+00  0.00000E+00  9.000E+00
      25     1     1     2     0     0 -1.119599741E+02  1.894968041E+02 -2.922685179E+02  3.866393166E+02  1.250000000E+02  0.00000E+00  9.000E+00
      25     1     1     2     0     0  2.216172130E+02 -1.655462044E+02 -8.186663672E+02  8.731319234E+02  1.250000000E+02  0.00000E+00  9.000E+00
      21     1     1     2   501   512 -1.096572389E+02 -2.395059971E+01  1.720777373E+02  2.054485068E+02  2.697398305E-06  0.00000E+00  9.000E+00
#rwgt            1           1   3.9817811297892337E-002           2       15441           0
</event>
<event>
      5   9999  3.79277E-02  6.05751E+01 -1.00000E+00  1.34482E-01
      21    -1     0     0   511   501  0.000000000E+00  0.000000000E+00  5.602730055E+02  5.602730055E+02  0.000000000E+00  0.00000E+00  9.000E+00
      21    -1     0     0   501   502  0.000000000E+00  0.000000000E+00 -9.202027533E+01  9.202027533E+01  0.000000000E+00  0.00000E+00  9.000E+00
      25     1     1     2     0     0  1.047228923E+02 -4.207179291E+01  1.528704393E+02  2.274451388E+02  1.250000000E+02  0.00000E+00  9.000E+00
      25     1     1     2     0     0 -1.468677812E+02  8.558214785E+01  1.831370554E+02  2.793897462E+02  1.250000000E+02  0.00000E+00  9.000E+00
      21     1     1     2   511   502  4.214488896E+01 -4.351035494E+01  1.322452354E+02  1.454583959E+02  1.907348633E-06  0.00000E+00  9.000E+00
#rwgt            2          11   1.9453741247275325E-003           2       15593           0
</event>
<event>
      5   9999  3.79277E-02  1.82593E+01 -1.00000E+00  1.69699E-01
      21    -1     0     0   502   512  0.000000000E+00  0.000000000E+00  4.427933530E+02  4.427933530E+02  0.000000000E+00  0.00000E+00  9.000E+00
      21    -1     0     0   501   502  0.000000000E+00  0.000000000E+00 -2.497708248E+02  2.497708248E+02  0.000000000E+00  0.00000E+00  9.000E+00
      25     1     1     2     0     0 -1.189897543E+02  1.719689572E+02  1.621196466E+02  2.926425527E+02  1.250000000E+02  0.00000E+00  9.000E+00
      25     1     1     2     0     0  1.371058320E+02 -1.742518174E+02 -9.575972017E+01  2.719496811E+02  1.250000000E+02  0.00000E+00  9.000E+00
      21     1     1     2   501   512 -1.811607774E+01  2.282860214E+00  1.266626018E+02  1.279719439E+02  1.348699152E-06  0.00000E+00  9.000E+00
#rwgt            1           1   3.9568776439808294E-002           2       15778           0
</event>
<event>
      5   9999  3.79277E-02  1.38691E+02  7.55638E-03  1.17759E-01
       2    -1     0     0   501     0  0.000000000E+00  0.000000000E+00  6.193978228E+02  6.193978228E+02  0.000000000E+00  0.00000E+00  9.000E+00
      -2    -1     0     0     0   502  0.000000000E+00  0.000000000E+00 -8.876674434E+01  8.876674434E+01  0.000000000E+00  0.00000E+00  9.000E+00
      25     1     1     2     0     0 -1.352385985E+01  1.026246128E+02  1.717401644E+02  2.362930173E+02  1.250000000E+02  0.00000E+00  9.000E+00
      25     1     1     2     0     0 -1.363971936E+01  3.338057043E+01  2.882008439E+02  3.162040969E+02  1.250000000E+02  0.00000E+00  9.000E+00
      21     1     1     2   501   502  2.716357922E+01 -1.360051833E+02  7.069007010E+01  1.556674530E+02  2.336015456E-06  0.00000E+00  9.000E+00
#rwgt            3           7   1.1739209582349347E-003           2       16157           0
</event>
<event>
      5   9999 -3.79277E-02  1.20293E+01 -1.00000E+00  1.86917E-01
      21    -1     0     0   502   511  0.000000000E+00  0.000000000E+00  2.626374875E+02  2.626374875E+02  0.000000000E+00  0.00000E+00  9.000E+00
      21    -1     0     0   501   502  0.000000000E+00  0.000000000E+00 -2.417495022E+02  2.417495022E+02  0.000000000E+00  0.00000E+00  9.000E+00
      25     1     1     2     0     0  1.467602627E+02 -4.441291341E+01  2.628565822E+01  1.995670750E+02  1.250000000E+02  0.00000E+00  9.000E+00
      25     1     1     2     0     0 -1.408252893E+02  3.394959440E+01 -9.555101746E+01  2.138675618E+02  1.250000000E+02  0.00000E+00  9.000E+00
      21     1     1     2   501   511 -5.934973412E+00  1.046331902E+01  9.015334457E+01  9.095235287E+01  1.651812370E-06  0.00000E+00  9.000E+00
#rwgt            1           1  -4.0580392164145974E-002           2       16176           0
</event>
<event>
      5   9999  3.79277E-02  5.30093E+01 -1.00000E+00  1.37643E-01
      21    -1     0     0   502   512  0.000000000E+00  0.000000000E+00  1.903843546E+03  1.903843546E+03  0.000000000E+00  0.00000E+00  9.000E+00
      21    -1     0     0   501   502  0.000000000E+00  0.000000000E+00 -5.621335457E+01  5.621335457E+01  0.000000000E+00  0.00000E+00  9.000E+00
      25     1     1     2     0     0 -3.404259896E+01 -8.484051073E+01  1.266672147E+02  2.000659743E+02  1.250000000E+02  0.00000E+00  9.000E+00
      25     1     1     2     0     0  8.364285726E+01  1.035435975E+02  4.203412201E+02  4.582893687E+02  1.250000000E+02  0.00000E+00  9.000E+00
      21     1     1     2   501   512 -4.960025830E+01 -1.870308674E+01  1.300621757E+03  1.301701558E+03  1.525878906E-05  0.00000E+00  9.000E+00
#rwgt            1           1   3.8812728133471266E-002           2       16416           0
</event>
<event>
      5   9999  3.79277E-02  7.96840E+01 -1.00000E+00  1.28433E-01
      21    -1     0     0   502   501  0.000000000E+00  0.000000000E+00  5.093416126E+02  5.093416126E+02  0.000000000E+00  0.00000E+00  9.000E+00
      21    -1     0     0   511   502  0.000000000E+00  0.000000000E+00 -6.297407401E+02  6.297407401E+02  0.000000000E+00  0.00000E+00  9.000E+00
      25     1     1     2     0     0  1.482374750E+02  8.644101514E+01  3.019161009E+02  3.690863450E+02  1.250000000E+02  0.00000E+00  9.000E+00
      25     1     1     2     0     0 -1.089195109E+02 -1.557492824E+02  9.504468760E+01  2.465355785E+02  1.250000000E+02  0.00000E+00  9.000E+00
      21     1     1     2   511   501 -3.931796411E+01  6.930826726E+01 -5.173599160E+02  5.234604292E+02  0.000000000E+00  0.00000E+00  9.000E+00
#rwgt            1           1   4.6246072258347953E-002           2       16656           0
</event>
<event>
      5   9999 -3.79277E-02  3.09648E+00 -1.00000E+00  2.92759E-01
      21    -1     0     0   502   501  0.000000000E+00  0.000000000E+00  8.847645960E+02  8.847645960E+02  0.000000000E+00  0.00000E+00  9.000E+00
      -1    -1     0     0     0   502  0.000000000E+00  0.000000000E+00 -4.380910654E+02  4.380910654E+02  0.000000000E+00  0.00000E+00  9.000E+00
      25     1     1     2     0     0  1.165007699E+01 -1.960124653E+02  3.755354837E+02  4.418240717E+02  1.250000000E+02  0.00000E+00  9.000E+00
      25     1     1     2     0     0 -1.433026020E+01  1.975632020E+02  4.472693409E+02  5.048875503E+02  1.250000000E+02  0.00000E+00  9.000E+00
      -1     1     1     2     0   501  2.680183214E+00 -1.550736678E+00 -3.761312939E+02  3.761440395E+02  5.394796609E-06  0.00000E+00  9.000E+00
#rwgt            1           1  -5.2475726526185831E-002           2       16781           0
</event>
<event>
      5   9999  3.79277E-02  1.07478E+01 -1.00000E+00  1.92205E-01
      21    -1     0     0   511   501  0.000000000E+00  0.000000000E+00  1.269968087E+03  1.269968087E+03  0.000000000E+00  0.00000E+00  9.000E+00
      21    -1     0     0   501   502  0.000000000E+00  0.000000000E+00 -2.183644865E+03  2.183644865E+03  0.000000000E+00  0.00000E+00  9.000E+00
      25     1     1     2     0     0 -1.077560009E+02 -8.856523505E+01 -1.482598874E+03  1.494382675E+03  1.250000000E+02  0.00000E+00  9.000E+00
      25     1     1     2     0     0  1.065544910E+02  9.924567941E+01 -6.818858142E+02  7.083761910E+02  1.250000000E+02  0.00000E+00  9.000E+00
      21     1     1     2   511   502  1.201509929E+00 -1.068044436E+01  1.250807911E+03  1.250854086E+03  0.000000000E+00  0.00000E+00  9.000E+00
#rwgt            1           1   6.2346216237288456E-002           2       17342           0
</event>
<event>
      5   9999  3.79277E-02  4.48434E+01 -1.00000E+00  1.41827E-01
      21    -1     0     0   512   501  0.000000000E+00  0.000000000E+00  6.978716795E+02  6.978716795E+02  0.000000000E+00  0.00000E+00  9.000E+00
      21    -1     0     0   501   502  0.000000000E+00  0.000000000E+00 -9.987776573E+01  9.987776573E+01  0.000000000E+00  0.00000E+00  9.000E+00
      25     1     1     2     0     0  3.495448837E+01 -2.128570338E+02  3.197041035E+02  4.054203336E+02  1.250000000E+02  0.00000E+00  9.000E+00
      25     1     1     2     0     0 -1.038418805E+01  1.753439880E+02  1.681478087E+02  2.734081766E+02  1.250000000E+02  0.00000E+00  9.000E+00
      21     1     1     2   512   502 -2.457030032E+01  3.751304589E+01  1.101420015E+02  1.189209349E+02  0.000000000E+00  0.00000E+00  9.000E+00
#rwgt            1           1   4.3661844115200160E-002           2       17660           0
</event>
<event>
      5   9999  3.79277E-02  7.01422E+01 -1.00000E+00  1.31176E-01
      21    -1     0     0   511   501  0.000000000E+00  0.000000000E+00  4.419343502E+02  4.419343502E+02  0.000000000E+00  0.00000E+00  9.000E+00
      21    -1     0     0   501   502  0.000000000E+00  0.000000000E+00 -3.068919903E+02  3.068919903E+02  0.000000000E+00  0.00000E+00  9.000E+00
      25     1     1     2     0     0  1.089620891E+02 -1.785442928E+02 -8.659584777E+01  2.586013190E+02  1.250000000E+02  0.00000E+00  9.000E+00
      25     1     1     2     0     0 -5.139640583E+01  2.186206388E+02 -7.624486223E-01  2.570255932E+02  1.250000000E+02  0.00000E+00  9.000E+00
      21     1     1     2   511   502 -5.756568325E+01 -4.007634604E+01  2.224006563E+02  2.331994282E+02  2.697398305E-06  0.00000E+00  9.000E+00
#rwgt            1           1   3.8970301843945329E-002           2       17829           0
</event>
<event>
      5   9999  3.79277E-02  1.31292E+01 -1.00000E+00  1.83013E-01
      21    -1     0     0   502   512  0.000000000E+00  0.000000000E+00  8.917881568E+02  8.917881568E+02  0.000000000E+00  0.00000E+00  9.000E+00
      21    -1     0     0   501   502  0.000000000E+00  0.000000000E+00 -4.753876427E+01  4.753876427E+01  0.000000000E+00  0.00000E+00  9.000E+00
      25     1     1     2     0     0 -7.545232178E+01 -1.672108275E+01  1.061087370E+02  1.812642037E+02  1.250000000E+02  0.00000E+00  9.000E+00
      25     1     1     2     0     0  7.577019856E+01  3.595691487E+00  5.387066671E+02  5.581970308E+02  1.250000000E+02  0.00000E+00  9.000E+00
      21     1     1     2   501   512 -3.178767813E-01  1.312539126E+01  1.994339884E+02  1.998656866E+02  2.697398305E-06  0.00000E+00  9.000E+00
#rwgt            1           1   3.5189498121748222E-002           2       17950           0
</event>
<event>
      5   9999  3.79277E-02  3.00916E+01 -1.00000E+00  1.52948E-01
      21    -1     0     0   502   501  0.000000000E+00  0.000000000E+00  1.532927480E+03  1.532927480E+03  0.000000000E+00  0.00000E+00  9.000E+00
      21    -1     0     0   511   502  0.000000000E+00  0.000000000E+00 -4.128100267E+01  4.128100267E+01  0.000000000E+00  0.00000E+00  9.000E+00
      25     1     1     2     0     0  2.352507604E+01  6.556919485E+00  1.514781483E+02  1.979066745E+02  1.250000000E+02  0.00000E+00  9.000E+00
      25     1     1     2     0     0 -4.746198093E+01  1.167840527E+01  1.339495325E+03  1.346202715E+03  1.250000000E+02  0.00000E+00  9.000E+00
      21     1     1     2   511   501  2.393690489E+01 -1.823532476E+01  6.730044015E-01  3.009909333E+01  8.716542473E-07  0.00000E+00  9.000E+00
#rwgt            1           1   5.9867681658119128E-002           2       18135           0
</event>
<event>
      5   9999  3.79277E-02  3.72186E+01 -1.00000E+00  1.46808E-01
      21    -1     0     0   502   501  0.000000000E+00  0.000000000E+00  5.328010110E+02  5.328010110E+02  0.000000000E+00  0.00000E+00  9.000E+00
      21    -1     0     0   512   502  0.000000000E+00  0.000000000E+00 -3.171240763E+02  3.171240763E+02  0.000000000E+00  0.00000E+00  9.000E+00
      25     1     1     2     0     0  2.024516509E+02  4.781798372E+01 -6.704750585E+01  2.517808542E+02  1.250000000E+02  0.00000E+00  9.000E+00
      25     1     1     2     0     0 -1.665085848E+02 -3.815780724E+01  4.122281047E+02  4.633984650E+02  1.250000000E+02  0.00000E+00  9.000E+00
      21     1     1     2   512   501 -3.594306615E+01 -9.660176477E+00 -1.295036641E+02  1.347457681E+02  2.697398305E-06  0.00000E+00  9.000E+00
#rwgt            1           1   4.3300702890908267E-002           2       18312           0
</event>
<event>
      5   9999  3.79277E-02  7.60724E+01 -1.00000E+00  1.29417E-01
      21    -1     0     0   502   501  0.000000000E+00  0.000000000E+00  1.400915621E+03  1.400915621E+03  0.000000000E+00  0.00000E+00  9.000E+00
      21    -1     0     0   501   511  0.000000000E+00  0.000000000E+00 -2.552546276E+02  2.552546276E+02  0.000000000E+00  0.00000E+00  9.000E+00
      25     1     1     2     0     0 -1.173567233E+01  9.994212439E+01  2.661457924E+02  3.107808505E+02  1.250000000E+02  0.00000E+00  9.000E+00
      25     1     1     2     0     0  5.709389786E+01 -1.610129114E+02  1.095829839E+03  1.116088216E+03  1.250000000E+02  0.00000E+00  9.000E+00
      21     1     1     2   502   511 -4.535822553E+01  6.107078698E+01 -2.163146376E+02  2.293011820E+02  4.672030912E-06  0.00000E+00  9.000E+00
#rwgt            1           1   4.0364422935040473E-002           2       18841           0
</event>
<event>
      5   9999  3.79277E-02  1.89835E+01 -1.00000E+00  1.68260E-01
      21    -1     0     0   502   501  0.000000000E+00  0.000000000E+00  5.347208500E+01  5.347208500E+01  0.000000000E+00  0.00000E+00  9.000E+00
      21    -1     0     0   512   502  0.000000000E+00  0.000000000E+00 -7.346461657E+02  7.346461657E+02  0.000000000E+00  0.00000E+00  9.000E+00
      25     1     1     2     0     0  1.092159622E+02  6.008195212E+01 -2.219364403E+02  2.835820003E+02  1.250000000E+02  0.00000E+00  9.000E+00
      25     1     1     2     0     0 -1.280252954E+02 -6.264759738E+01 -4.255507216E+02  4.658686665E+02  1.250000000E+02  0.00000E+00  9.000E+00
      21     1     1     2   512   501  1.880933315E+01  2.565645256E+00 -3.368691875E+01  3.866758389E+01  0.000000000E+00  0.00000E+00  9.000E+00
#rwgt            1           1   4.6413448318281467E-002           2       18943           0
</event>
<event>
      5   9999  3.79277E-02  1.18873E+01 -1.00000E+00  1.87460E-01
      21    -1     0     0   502   501  0.000000000E+00  0.000000000E+00  1.050736313E+01  1.050736313E+01  0.000000000E+00  0.00000E+00  9.000E+00
      21    -1     0     0   511   502  0.000000000E+00  0.000000000E+00 -2.897722927E+03  2.897722927E+03  0.000000000E+00  0.00000E+00  9.000E+00
      25     1     1     2     0     0  8.900673857E+01 -4.902467695E+00 -1.800821920E+03  1.807354648E+03  1.250000000E+02  0.00000E+00  9.000E+00
      25     1     1     2     0     0 -9.953451867E+01 -6.178889042E-01 -8.978662154E+02  9.119738170E+02  1.250000000E+02  0.00000E+00  9.000E+00
      21     1     1     2   511   501  1.052778010E+01  5.520356600E+00 -1.885274278E+02  1.889018251E+02  0.000000000E+00  0.00000E+00  9.000E+00
#rwgt            1           1   4.3723168280989599E-002           2       19182           0
</event>
<event>
      5   9999  3.79277E-02  9.73399E+01 -1.00000E+00  1.24357E-01
      21    -1     0     0   512   501  0.000000000E+00  0.000000000E+00  1.207840770E+03  1.207840770E+03  0.000000000E+00  0.00000E+00  9.000E+00
      21    -1     0     0   501   502  0.000000000E+00  0.000000000E+00 -6.273310388E+01  6.273310388E+01  0.000000000E+00  0.00000E+00  9.000E+00
      25     1     1     2     0     0  2.586786557E+01  1.360645045E+02  2.927379066E+02  3.471356764E+02  1.250000000E+02  0.00000E+00  9.000E+00
      25     1     1     2     0     0 -9.606963933E+01 -2.034942742E+02  5.962425433E+02  6.494378074E+02  1.250000000E+02  0.00000E+00  9.000E+00
      21     1     1     2   512   502  7.020177376E+01  6.742976972E+01  2.561272160E+02  2.740003899E+02  3.814697266E-06  0.00000E+00  9.000E+00
#rwgt            1           1   3.9110491436383302E-002           2       19467           0
</event>
<event>
      5   9999  3.79277E-02  2.82543E+01 -1.00000E+00  1.54870E-01
      21    -1     0     0   502   501  0.000000000E+00  0.000000000E+00  9.628787414E+01  9.628787414E+01  0.000000000E+00  0.00000E+00  9.000E+00
      21    -1     0     0   511   502  0.000000000E+00  0.000000000E+00 -4.870235576E+02  4.870235576E+02  0.000000000E+00  0.00000E+00  9.000E+00
      25     1     1     2     0     0 -1.119477288E+02  2.265730938E+01 -3.325511883E+02  3.731768220E+02  1.250000000E+02  0.00000E+00  9.000E+00
      25     1     1     2     0     0  1.132426611E+02  5.567311635E+00 -3.231454107E+01  1.718258561E+02  1.250000000E+02  0.00000E+00  9.000E+00
      21     1     1     2   511   501 -1.294932319E+00 -2.822462102E+01 -2.586995411E+01  3.830875366E+01  0.000000000E+00  0.00000E+00  9.000E+00
#rwgt            1           1   3.4969038222648817E-002           2       19548           0
</event>
<event>
      5   9999  3.79277E-02  2.61607E+01 -1.00000E+00  1.57289E-01
      21    -1     0     0   502   501  0.000000000E+00  0.000000000E+00  5.559528076E+02  5.559528076E+02  0.000000000E+00  0.00000E+00  9.000E+00
      21    -1     0     0   501   512  0.000000000E+00  0.000000000E+00 -1.071585030E+02  1.071585030E+02  0.000000000E+00  0.00000E+00  9.000E+00
      25     1     1     2     0     0  4.785557688E+01  6.405353000E+01  3.488359248E+02  3.790837815E+02  1.250000000E+02  0.00000E+00  9.000E+00
      25     1     1     2     0     0 -7.390637079E+01 -6.165776120E+01  1.561949791E+02  2.220038348E+02  1.250000000E+02  0.00000E+00  9.000E+00
      21     1     1     2   502   512  2.605079392E+01 -2.395768806E+00 -5.623659930E+01  6.202369445E+01  1.784161275E-06  0.00000E+00  9.000E+00
#rwgt            1           1   2.9894560062344276E-002           2       19729           0
</event>
<event>
      5   9999  3.79277E-02  1.13611E+02 -1.00000E+00  1.21386E-01
       2    -1     0     0   502     0  0.000000000E+00  0.000000000E+00  2.593067584E+03  2.593067584E+03  0.000000000E+00  0.00000E+00  9.000E+00
      21    -1     0     0   501   502  0.000000000E+00  0.000000000E+00 -1.098789117E+02  1.098789117E+02  0.000000000E+00  0.00000E+00  9.000E+00
      25     1     1     2     0     0 -1.117474238E+02  1.879186192E+02  1.600454880E+02  2.983964685E+02  1.250000000E+02  0.00000E+00  9.000E+00
      25     1     1     2     0     0  1.024096989E+02 -7.469185399E+01  1.628488597E+02  2.412703267E+02  1.250000000E+02  0.00000E+00  9.000E+00
       2     1     1     2   501     0  9.337724987E+00 -1.132267652E+02  2.160294325E+03  2.163279700E+03  3.051757812E-05  0.00000E+00  9.000E+00
#rwgt            1           1   3.9046302205012165E-002           2       19981           0
</event>
<event>
      5   9999  3.79277E-02  2.03409E+01 -1.00000E+00  1.65766E-01
      21    -1     0     0   502   511  0.000000000E+00  0.000000000E+00  1.845368499E+02  1.845368499E+02  0.000000000E+00  0.00000E+00  9.000E+00
      21    -1     0     0   501   502  0.000000000E+00  0.000000000E+00 -2.134529483E+02  2.134529483E+02  0.000000000E+00  0.00000E+00  9.000E+00
      25     1     1     2     0     0  1.246109013E+02 -3.162042813E+01  9.459567645E-01  1.793143135E+02  1.250000000E+02  0.00000E+00  9.000E+00
      25     1     1     2     0     0 -1.417925821E+02  4.250809127E+01 -3.675107588E+01  1.971996850E+02  1.250000000E+02  0.00000E+00  9.000E+00
      21     1     1     2   501   511  1.718168080E+01 -1.088766313E+01  6.889020714E+00  2.147579964E+01  4.768371582E-07  0.00000E+00  9.000E+00
#rwgt            1           1   3.8833228600821224E-002           2       20141           0
</event>
<event>
      5   9999  3.79277E-02  2.37377E+01 -1.00000E+00  1.60455E-01
      21    -1     0     0   502   501  0.000000000E+00  0.000000000E+00  1.694386371E+03  1.694386371E+03  0.000000000E+00  0.00000E+00  9.000E+00
      21    -1     0     0   512   502  0.000000000E+00  0.000000000E+00 -5.058013738E+02  5.058013738E+02  0.000000000E+00  0.00000E+00  9.000E+00
      25     1     1     2     0     0  1.204335642E+02  8.389181785E+01  6.327948225E+02  6.615106710E+02  1.250000000E+02  0.00000E+00  9.000E+00
      25     1     1     2     0     0 -1.396780485E+02 -9.778890173E+01  1.036267224E+03  1.057614006E+03  1.250000000E+02  0.00000E+00  9.000E+00
      21     1     1     2   512   501  1.924448427E+01  1.389708388E+01 -4.804770498E+02  4.810630671E+02  1.078959322E-05  0.00000E+00  9.000E+00
#rwgt            1           1   7.7194711058761897E-002           2       20303           0
</event>
<event>
      5   9999  3.79277E-02  2.11856E+01 -1.00000E+00  1.64332E-01
      21    -1     0     0   502   501  0.000000000E+00  0.000000000E+00  1.540147096E+02  1.540147096E+02  0.000000000E+00  0.00000E+00  9.000E+00
      21    -1     0     0   501   511  0.000000000E+00  0.000000000E+00 -4.311892866E+02  4.311892866E+02  0.000000000E+00  0.00000E+00  9.000E+00
      25     1     1     2     0     0 -1.719428804E+02  1.182676612E+02 -1.224609408E+02  2.723477113E+02  1.250000000E+02  0.00000E+00  9.000E+00
      25     1     1     2     0     0  1.840416077E+02 -1.008765886E+02 -1.199368169E+02  2.721345982E+02  1.250000000E+02  0.00000E+00  9.000E+00
      21     1     1     2   502   511 -1.209872723E+01 -1.739107259E+01 -3.477681933E+01  4.072168671E+01  4.768371582E-07  0.00000E+00  9.000E+00
#rwgt            1           1   2.7076738054626893E-002           2       20476           0
</event>
<event>
      5   9999  3.79277E-02  1.22646E+02 -1.00000E+00  1.19968E-01
       2    -1     0     0   502     0  0.000000000E+00  0.000000000E+00  1.273209307E+03  1.273209307E+03  0.000000000E+00  0.00000E+00  9.000E+00
      21    -1     0     0   501   502  0.000000000E+00  0.000000000E+00 -3.362215185E+02  3.362215185E+02  0.000000000E+00  0.00000E+00  9.000E+00
      25     1     1     2     0     0  3.286250876E+01  3.448356045E+01  1.630105674E+01  1.347582460E+02  1.250000000E+02  0.00000E+00  9.000E+00
      25     1     1     2     0     0  8.902603326E+01 -2.087324951E+01 -2.518928506E+02  2.956963566E+02  1.250000000E+02  0.00000E+00  9.000E+00
       2     1     1     2   501     0 -1.218885420E+02 -1.361031094E+01  1.172579582E+03  1.178976223E+03  1.525878906E-05  0.00000E+00  9.000E+00
#rwgt            2          18   5.0203616284012183E-003           2       20770           0
</event>
<event>
      5   9999  3.79277E-02  2.31492E+01 -1.00000E+00  1.61294E-01
      21    -1     0     0   502   511  0.000000000E+00  0.000000000E+00  4.961151211E+02  4.961151211E+02  0.000000000E+00  0.00000E+00  9.000E+00
      21    -1     0     0   501   502  0.000000000E+00  0.000000000E+00 -1.097817397E+02  1.097817397E+02  0.000000000E+00  0.00000E+00  9.000E+00
      25     1     1     2     0     0  8.943291011E+01 -1.317664776E+02  2.696942459E+02  3.372249046E+02  1.250000000E+02  0.00000E+00  9.000E+00
      25     1     1     2     0     0 -1.122702436E+02  1.355535978E+02  9.142201128E+01  2.344405460E+02  1.250000000E+02  0.00000E+00  9.000E+00
      21     1     1     2   501   511  2.283733352E+01 -3.787120149E+00  2.521712421E+01  3.423141006E+01  4.768371582E-07  0.00000E+00  9.000E+00
#rwgt            1           1   4.5639643987671639E-002           2       20789           0
</event>
<event>
      5   9999  3.79277E-02  2.13143E+01 -1.00000E+00  1.64120E-01
      21    -1     0     0   502   501  0.000000000E+00  0.000000000E+00  2.522693611E+02  2.522693611E+02  0.000000000E+00  0.00000E+00  9.000E+00
      21    -1     0     0   501   512  0.000000000E+00  0.000000000E+00 -2.338424324E+02  2.338424324E+02  0.000000000E+00  0.00000E+00  9.000E+00
      25     1     1     2     0     0  5.930292775E+01  1.614738205E+02  9.410088390E+01  2.325308760E+02  1.250000000E+02  0.00000E+00  9.000E+00
      25     1     1     2     0     0 -4.040998866E+01 -1.516068995E+02 -2.955008357E+01  2.027703790E+02  1.250000000E+02  0.00000E+00  9.000E+00
      21     1     1     2   502   512 -1.889293909E+01 -9.866921030E+00 -4.612387165E+01  5.081053842E+01  6.743495762E-07  0.00000E+00  9.000E+00
#rwgt            1           1   4.3314297997418649E-002           2       21079           0
</event>
<event>
      5   9999  3.79277E-02  4.68769E+01 -1.00000E+00  1.40693E-01
      21    -1     0     0   502   501  0.000000000E+00  0.000000000E+00  9.229070887E+01  9.229070887E+01  0.000000000E+00  0.00000E+00  9.000E+00
       1    -1     0     0   501     0  0.000000000E+00  0.000000000E+00 -1.351674420E+03  1.351674420E+03  0.000000000E+00  0.00000E+00  9.000E+00
      25     1     1     2     0     0 -7.588787293E+01  1.145074629E+02 -5.713263224E+02  6.007576009E+02  1.250000000E+02  0.00000E+00  9.000E+00
      25     1     1     2     0     0  5.800597802E+01 -7.117525308E+01 -1.554967352E+00  1.551065055E+02  1.250000000E+02  0.00000E+00  9.000E+00
       1     1     1     2   502     0  1.788189491E+01 -4.333220982E+01 -6.865024209E+02  6.881010220E+02  0.000000000E+00  0.00000E+00  9.000E+00
#rwgt            1           1   3.7702626596511413E-002           2       21304           0
</event>
<event>
      5   9999  3.79277E-02  7.87238E+01 -1.00000E+00  1.28688E-01
      21    -1     0     0   502   501  0.000000000E+00  0.000000000E+00  1.455029424E+02  1.455029424E+02  0.000000000E+00  0.00000E+00  9.000E+00
      21    -1     0     0   511   502  0.000000000E+00  0.000000000E+00 -9.241992079E+02  9.241992079E+02  0.000000000E+00  0.00000E+00  9.000E+00
      25     1     1     2     0     0 -2.659103325E+02 -1.205100929E+02 -2.510909960E+02  4.048489542E+02  1.250000000E+02  0.00000E+00  9.000E+00
      25     1     1     2     0     0  2.762719975E+02  4.247113864E+01 -3.203339151E+02  4.431352293E+02  1.250000000E+02  0.00000E+00  9.000E+00
      21     1     1     2   511   501 -1.036166503E+01  7.803895422E+01 -2.072713544E+02  2.217179669E+02  4.672030912E-06  0.00000E+00  9.000E+00
#rwgt            1           1   3.6490884674515570E-002           2       21395           0
</event>
<event>
      5   9999  3.79277E-02  1.77072E+02 -1.00000E+00  1.13608E-01
      21    -1     0     0   502   501  0.000000000E+00  0.000000000E+00  8.930142442E+01  8.930142442E+01  0.000000000E+00  0.00000E+00  9.000E+00
      21    -1     0     0   512   502  0.000000000E+00  0.000000000E+00 -2.256884223E+03  2.256884223E+03  0.000000000E+00  0.00000E+00  9.000E+00
      25     1     1     2     0     0  9.720159411E+01 -9.460257376E+01 -4.165542481E+01  1.890977823E+02  1.250000000E+02  0.00000E+00  9.000E+00
      25     1     1     2     0     0  8.956010472E+00 -4.711910449E+01 -3.938867848E+02  4.160194940E+02  1.250000000E+02  0.00000E+00  9.000E+00
      21     1     1     2   512   501 -1.061576046E+02  1.417216783E+02 -1.732040589E+03  1.741068371E+03  3.051757812E-05  0.00000E+00  9.000E+00
#rwgt            1           1   3.5168883236146191E-002           2       21490           0
</event>
<event>
      5   9999  3.79277E-02  9.45447E+01 -1.00000E+00  1.24934E-01
      21    -1     0     0   502   501  0.000000000E+00  0.000000000E+00  1.587537891E+02  1.587537891E+02  0.000000000E+00  0.00000E+00  9.000E+00
      21    -1     0     0   501   511  0.000000000E+00  0.000000000E+00 -1.213124766E+03  1.213124766E+03  0.000000000E+00  0.00000E+00  9.000E+00
      25     1     1     2     0     0 -2.248374330E+02 -5.137504580E+00 -1.947324066E+02  3.226824684E+02  1.250000000E+02  0.00000E+00  9.000E+00
      25     1     1     2     0     0  1.895720570E+02  9.285890660E+01 -7.167807460E+01  2.555838174E+02  1.250000000E+02  0.00000E+00  9.000E+00
      21     1     1     2   502   511  3.526537602E+01 -8.772140202E+01 -7.879604958E+02  7.936122694E+02  0.000000000E+00  0.00000E+00  9.000E+00
#rwgt            1           1   5.6218844982729381E-002           2       21623           0
</event>
<event>
      5   9999  3.79277E-02  3.24482E+01 -1.00000E+00  1.50711E-01
      21    -1     0     0   502   512  0.000000000E+00  0.000000000E+00  9.069165792E+02  9.069165792E+02  0.000000000E+00  0.00000E+00  9.000E+00
      21    -1     0     0   501   502  0.000000000E+00  0.000000000E+00 -4.234635837E+01  4.234635837E+01  0.000000000E+00  0.00000E+00  9.000E+00
      25     1     1     2     0     0  1.045289096E+02  7.431490363E+01  5.546202631E+02  5.828186974E+02  1.250000000E+02  0.00000E+00  9.000E+00
      25     1     1     2     0     0 -8.253445578E+01 -5.045840222E+01  2.205660138E+02  2.713528205E+02  1.250000000E+02  0.00000E+00  9.000E+00
      21     1     1     2   501   512 -2.199445382E+01 -2.385650141E+01  8.938394393E+01  9.509141965E+01  9.536743164E-07  0.00000E+00  9.000E+00
#rwgt            1           1   4.0619904896583313E-002           2       21683           0
</event>
<event>
      5   9999  3.79277E-02  2.32547E+01 -1.00000E+00  1.61142E-01
      21    -1     0     0   502   501  0.000000000E+00  0.000000000E+00  8.669518361E+02  8.669518361E+02  0.000000000E+00  0.00000E+00  9.000E+00
      21    -1     0     0   501   511  0.000000000E+00  0.000000000E+00 -6.395896906E+01  6.395896906E+01  0.000000000E+00  0.00000E+00  9.000E+00
      25     1     1     2     0     0  1.332587852E+02  6.439316236E+01  2.407735162E+02  3.090327965E+02  1.250000000E+02  0.00000E+00  9.000E+00
      25     1     1     2     0     0 -1.489273636E+02 -8.157674410E+01  5.601625607E+02  5.985325548E+02  1.250000000E+02  0.00000E+00  9.000E+00
      21     1     1     2   502   511  1.566857839E+01  1.718358174E+01  2.056790196E+00  2.334545386E+01  2.747638362E-07  0.00000E+00  9.000E+00
#rwgt            1           1   3.8724158990478728E-002           2       21827           0
</event>
<event>
      5   9999  3.79277E-02  2.91988E+02 -1.00000E+00  1.05975E-01
      21    -1     0     0   502   512  0.000000000E+00  0.000000000E+00  1.126523294E+03  1.126523294E+03  0.000000000E+00  0.00000E+00  9.000E+00
      21    -1     0     0   501   502  0.000000000E+00  0.000000000E+00 -3.410487765E+02  3.410487765E+02  0.000000000E+00  0.00000E+00  9.000E+00
      25     1     1     2     0     0  2.091150387E+02 -3.445149510E+02  6.600453601E+02  7.833929590E+02  1.250000000E+02  0.00000E+00  9.000E+00
      25     1     1     2     0     0 -4.035127933E+00  1.366710276E+02 -1.823409964E+02  2.599393987E+02  1.250000000E+02  0.00000E+00  9.000E+00
      21     1     1     2   501   512 -2.050799107E+02  2.078439233E+02  3.077701535E+02  4.242397125E+02  3.814697266E-06  0.00000E+00  9.000E+00
#rwgt            2          11   1.9649687374750651E-003           2       21950           0
</event>
<event>
      5   9999  3.79277E-02  1.08331E+01 -1.00000E+00  1.91824E-01
      21    -1     0     0   502   511  0.000000000E+00  0.000000000E+00  3.340570671E+02  3.340570671E+02  0.000000000E+00  0.00000E+00  9.000E+00
      21    -1     0     0   501   502  0.000000000E+00  0.000000000E+00 -7.149631954E+02  7.149631954E+02  0.000000000E+00  0.00000E+00  9.000E+00
      25     1     1     2     0     0  1.292981879E+02  9.696279662E+01 -6.656799412E+02  6.963293685E+02  1.250000000E+02  0.00000E+00  9.000E+00
      25     1     1     2     0     0 -1.245923652E+02 -8.720515830E+01  2.646599808E+02  3.298452706E+02  1.250000000E+02  0.00000E+00  9.000E+00
      21     1     1     2   501   511 -4.705822727E+00 -9.757638320E+00  2.011383203E+01  2.284562348E+01  2.384185791E-07  0.00000E+00  9.000E+00
#rwgt            1           1  0.11518042168318214                2       22210           0
</event>
<event>
      5   9999  3.79277E-02  2.31197E+01 -1.00000E+00  1.61337E-01
      21    -1     0     0   502   512  0.000000000E+00  0.000000000E+00  1.110287630E+02  1.110287630E+02  0.000000000E+00  0.00000E+00  9.000E+00
      21    -1     0     0   501   502  0.000000000E+00  0.000000000E+00 -5.581275370E+02  5.581275370E+02  0.000000000E+00  0.00000E+00  9.000E+00
      25     1     1     2     0     0  9.149137891E+01  1.395038716E+02 -2.930893647E+02  3.596642578E+02  1.250000000E+02  0.00000E+00  9.000E+00
      25     1     1     2     0     0 -1.116927269E+02 -1.282598719E+02 -1.780496013E+02  2.761385893E+02  1.250000000E+02  0.00000E+00  9.000E+00
      21     1     1     2   501   512  2.020134794E+01 -1.124399973E+01  2.404019199E+01  3.335345289E+01  5.840038640E-07  0.00000E+00  9.000E+00
#rwgt            1           1   4.9271910783491933E-002           2       22552           0
</event>
<event>
      5   9999  3.79277E-02  6.68253E+01 -1.00000E+00  1.32250E-01
      21    -1     0     0   502   511  0.000000000E+00  0.000000000E+00  2.698389208E+02  2.698389208E+02  0.000000000E+00  0.00000E+00  9.000E+00
      21    -1     0     0   501   502  0.000000000E+00  0.000000000E+00 -1.838804142E+02  1.838804142E+02  0.000000000E+00  0.00000E+00  9.000E+00
      25     1     1     2     0     0  7.791729122E+01 -3.980537171E+01 -4.292716318E+01  1.585033540E+02  1.250000000E+02  0.00000E+00  9.000E+00
      25     1     1     2     0     0 -1.289298143E+02  8.297178595E+01  8.525279230E+01  2.154071793E+02  1.250000000E+02  0.00000E+00  9.000E+00
      21     1     1     2   501   511  5.101252311E+01 -4.316641424E+01  4.363287746E+01  7.980880169E+01  1.261592536E-06  0.00000E+00  9.000E+00
#rwgt            1           1   4.1393823464344739E-002           2       22830           0
</event>
<event>
      5   9999 -3.79277E-02  4.66288E+01 -1.00000E+00  1.40828E-01
      21    -1     0     0   502   501  0.000000000E+00  0.000000000E+00  3.683686805E+02  3.683686805E+02  0.000000000E+00  0.00000E+00  9.000E+00
      21    -1     0     0   501   512  0.000000000E+00  0.000000000E+00 -4.107055049E+02  4.107055049E+02  0.000000000E+00  0.00000E+00  9.000E+00
      25     1     1     2     0     0  2.420668044E+02  1.086010643E+02 -1.632019483E+02  3.356343321E+02  1.250000000E+02  0.00000E+00  9.000E+00
      25     1     1     2     0     0 -2.839883006E+02 -1.290176317E+02  1.692428843E+02  3.762486652E+02  1.250000000E+02  0.00000E+00  9.000E+00
      21     1     1     2   502   512  4.192149627E+01  2.041656737E+01 -4.837776034E+01  6.719118817E+01  6.743495762E-07  0.00000E+00  9.000E+00
#rwgt            1           1  -8.2848567939789577E-002           2       22992           0
</event>
<event>
      5   9999  3.79277E-02  2.60513E+01 -1.00000E+00  1.57423E-01
      21    -1     0     0   511   501  0.000000000E+00  0.000000000E+00  9.948688105E+02  9.948688105E+02  0.000000000E+00  0.00000E+00  9.000E+00
      21    -1     0     0   501   502  0.000000000E+00  0.000000000E+00 -2.137949456E+02  2.137949456E+02  0.000000000E+00  0.00000E+00  9.000E+00
      25     1     1     2     0     0 -3.720909944E+02 -1.617701991E+02  3.035474635E+02  5.219074324E+02  1.250000000E+02  0.00000E+00  9.000E+00
      25     1     1     2     0     0  3.949594566E+02  1.492921420E+02  3.670928204E+02  5.732915967E+02  1.250000000E+02  0.00000E+00  9.000E+00
      21     1     1     2   511   502 -2.286846227E+01  1.247805701E+01  1.104335809E+02  1.134647270E+02  1.348699152E-06  0.00000E+00  9.000E+00
#rwgt            1           1   2.5518546572078762E-002           2       23120           0
</event>
<event>
      5   9999  3.79277E-02  1.61574E+02 -1.00000E+00  1.15128E-01
      -2    -1     0     0     0   501  0.000000000E+00  0.000000000E+00  1.135364914E+03  1.135364914E+03  0.000000000E+00  0.00000E+00  9.000E+00
      21    -1     0     0   501   502  0.000000000E+00  0.000000000E+00 -5.964090041E+02  5.964090041E+02  0.000000000E+00  0.00000E+00  9.000E+00
      25     1     1     2     0     0  6.899933149E+01 -3.749662495E+02 -6.002095525E+01  4.056946032E+02  1.250000000E+02  0.00000E+00  9.000E+00
      25     1     1     2     0     0  1.881015336E+01  2.393353008E+02 -3.049973814E+02  4.077788748E+02  1.250000000E+02  0.00000E+00  9.000E+00
      -2     1     1     2     0   502 -8.780948485E+01  1.356309486E+02  9.039742464E+02  9.183004399E+02  1.078959322E-05  0.00000E+00  9.000E+00
#rwgt            2           4   8.5780599276373190E-005           2       23349           0
</event>
<event>
      5   9999  3.79277E-02  9.39056E+01 -1.00000E+00  1.25069E-01
      21    -1     0     0   502   501  0.000000000E+00  0.000000000E+00  3.207054189E+02  3.207054189E+02  0.000000000E+00  0.00000E+00  9.000E+00
      21    -1     0     0   501   511  0.000000000E+00  0.000000000E+00 -3.142238403E+02  3.142238403E+02  0.000000000E+00  0.00000E+00  9.000E+00
      25     1     1     2     0     0 -2.093200152E+01 -2.557776146E+01 -1.995391051E+02  2.377671656E+02  1.250000000E+02  0.00000E+00  9.000E+00
      25     1     1     2     0     0  9.185421573E+01  8.712691443E+01  2.387204968E+02  2.977260011E+02  1.250000000E+02  0.00000E+00  9.000E+00
      21     1     1     2   502   511 -7.092221421E+01 -6.154915297E+01 -3.269981307E+01  9.943609241E+01  1.719260824E-06  0.00000E+00  9.000E+00
#rwgt            1           1   4.8259495502375169E-002           2       23383           0
</event>
<event>
      5   9999  3.79277E-02  5.80324E+01 -1.00000E+00  1.35482E-01
      21    -1     0     0   502   501  0.000000000E+00  0.000000000E+00  1.883884497E+03  1.883884497E+03  0.000000000E+00  0.00000E+00  9.000E+00
      21    -1     0     0   512   502  0.000000000E+00  0.000000000E+00 -4.976462170E+01  4.976462170E+01  0.000000000E+00  0.00000E+00  9.000E+00
      25     1     1     2     0     0  1.290536292E+02  2.408578086E+02  8.491216266E+02  9.007218549E+02  1.250000000E+02  0.00000E+00  9.000E+00
      25     1     1     2     0     0 -1.132461174E+02 -1.850198531E+02  8.468840770E+02  8.831164527E+02  1.250000000E+02  0.00000E+00  9.000E+00
      21     1     1     2   512   501 -1.580751180E+01 -5.583795548E+01  1.381141719E+02  1.498108113E+02  2.697398305E-06  0.00000E+00  9.000E+00
#rwgt            1           1   2.7344710575110037E-002           2       23536           0
</event>
<event>
      5   9999  3.79277E-02  2.29503E+01 -1.00000E+00  1.61585E-01
      21    -1     0     0   502   501  0.000000000E+00  0.000000000E+00  3.633492239E+02  3.633492239E+02  0.000000000E+00  0.00000E+00  9.000E+00
      21    -1     0     0   511   502  0.000000000E+00  0.000000000E+00 -2.572190827E+02  2.572190827E+02  0.000000000E+00  0.00000E+00  9.000E+00
      25     1     1     2     0     0 -4.391328492E+01  1.327641880E+02  8.805663345E+01  2.072044326E+02  1.250000000E+02  0.00000E+00  9.000E+00
      25     1     1     2     0     0  2.957085312E+01 -1.148474410E+02  1.803746241E+02  2.494481410E+02  1.250000000E+02  0.00000E+00  9.000E+00
      21     1     1     2   511   501  1.434243180E+01 -1.791674707E+01 -1.623011163E+02  1.639157330E+02  0.000000000E+00  0.00000E+00  9.000E+00
#rwgt            1           1   3.6396272014358695E-002           2       23681           0
</event>
<event>
      5   9999  3.79277E-02  6.99599E+01 -1.00000E+00  1.31233E-01
      21    -1     0     0   502   501  0.000000000E+00  0.000000000E+00  3.640935456E+02  3.640935456E+02  0.000000000E+00  0.00000E+00  9.000E+00
      21    -1     0     0   501   512  0.000000000E+00  0.000000000E+00 -2.736671101E+02  2.736671101E+02  0.000000000E+00  0.00000E+00  9.000E+00
      25     1     1     2     0     0 -6.243366052E+01 -2.205298980E+02 -1.511878010E+01  2.615052110E+02  1.250000000E+02  0.00000E+00  9.000E+00
      25     1     1     2     0     0  1.323224988E+02  2.173776557E+02  1.144023348E+02  3.057371143E+02  1.250000000E+02  0.00000E+00  9.000E+00
      21     1     1     2   502   512 -6.988883833E+01  3.152242288E+00 -8.857119111E+00  7.051833034E+01  1.124618188E-06  0.00000E+00  9.000E+00
#rwgt            1           1   3.8244498632979525E-002           2       23876           0
</event>
<event>
      5   9999  3.79277E-02  6.90101E+01 -1.00000E+00  1.31535E-01
      21    -1     0     0   502   511  0.000000000E+00  0.000000000E+00  5.850609920E+02  5.850609920E+02  0.000000000E+00  0.00000E+00  9.000E+00
      21    -1     0     0   501   502  0.000000000E+00  0.000000000E+00 -1.656059306E+02  1.656059306E+02  0.000000000E+00  0.00000E+00  9.000E+00
      25     1     1     2     0     0 -5.911014551E+01  1.465436276E+02  1.349486344E+01  2.019310660E+02  1.250000000E+02  0.00000E+00  9.000E+00
      25     1     1     2     0     0  7.872245616E+01 -8.037910264E+01  3.547265597E+01  1.718759278E+02  1.250000000E+02  0.00000E+00  9.000E+00
      21     1     1     2   501   511 -1.961231065E+01 -6.616452495E+01  3.704875420E+02  3.768599287E+02  0.000000000E+00  0.00000E+00  9.000E+00
#rwgt            1           1   6.1576892477859795E-002           2       23998           0
</event>
<event>
      5   9999  3.79277E-02  7.18151E+01 -1.00000E+00  1.30660E-01
      21    -1     0     0   502   501  0.000000000E+00  0.000000000E+00  4.995540128E+02  4.995540128E+02  0.000000000E+00  0.00000E+00  9.000E+00
       2    -1     0     0   501     0  0.000000000E+00  0.000000000E+00 -4.439100026E+02  4.439100026E+02  0.000000000E+00  0.00000E+00  9.000E+00
      25     1     1     2     0     0 -1.663636982E+02 -8.002244406E+01  1.452353059E+02  2.660803746E+02  1.250000000E+02  0.00000E+00  9.000E+00
      25     1     1     2     0     0  1.054597642E+02  1.180765230E+02  2.551428502E+02  3.252486759E+02  1.250000000E+02  0.00000E+00  9.000E+00
       2     1     1     2   502     0  6.090393406E+01 -3.805407899E+01 -3.447341460E+02  3.521349650E+02  5.394796609E-06  0.00000E+00  9.000E+00
#rwgt            1           1   2.6838119196894866E-002           2       24198           0
</event>
<event>
      5   9999 -3.79277E-02  1.59369E+01 -1.00000E+00  1.74940E-01
      21    -1     0     0   511   501  0.000000000E+00  0.000000000E+00  3.202557329E+02  3.202557329E+02  0.000000000E+00  0.00000E+00  9.000E+00
      21    -1     0     0   501   502  0.000000000E+00  0.000000000E+00 -2.505484780E+02  2.505484780E+02  0.000000000E+00  0.00000E+00  9.000E+00
      25     1     1     2     0     0  1.201482159E+02 -1.373999660E+02  3.490696866E+01  2.239594626E+02  1.250000000E+02  0.00000E+00  9.000E+00
      25     1     1     2     0     0 -1.127545839E+02  1.232819753E+02 -8.549999280E+01  2.254934376E+02  1.250000000E+02  0.00000E+00  9.000E+00
      21     1     1     2   511   502 -7.393632060E+00  1.411799066E+01  1.203002791E+02  1.213513107E+02  1.348699152E-06  0.00000E+00  9.000E+00
#rwgt            1           1 -0.10473467499391073                2       24294           0
</event>
<event>
      5   9999  3.79277E-02  2.51004E+01 -1.00000E+00  1.58621E-01
      21    -1     0     0   512   501  0.000000000E+00  0.000000000E+00  2.343017889E+01  2.343017889E+01  0.000000000E+00  0.00000E+00  9.000E+00
      21    -1     0     0   501   502  0.000000000E+00  0.000000000E+00 -1.287676018E+03  1.287676018E+03  0.000000000E+00  0.00000E+00  9.000E+00
      25     1     1     2     0     0 -2.265760501E+01  2.934543238E+01 -3.224970384E+02  3.478560928E+02  1.250000000E+02  0.00000E+00  9.000E+00
      25     1     1     2     0     0  4.762726344E+01 -3.190404462E+01 -9.194444590E+02  9.296716288E+02  1.250000000E+02  0.00000E+00  9.000E+00
      21     1     1     2   512   502 -2.496965844E+01  2.558612241E+00 -2.230434140E+01  3.357847502E+01  1.011524364E-06  0.00000E+00  9.000E+00
#rwgt            1           1  0.12689822930270958                2       24524           0
</event>
<event>
      5   9999  3.79277E-02  3.72283E+01 -1.00000E+00  1.46801E-01
      21    -1     0     0   502   501  0.000000000E+00  0.000000000E+00  7.156555413E+01  7.156555413E+01  0.000000000E+00  0.00000E+00  9.000E+00
      21    -1     0     0   511   502  0.000000000E+00  0.000000000E+00 -6.232590668E+02  6.232590668E+02  0.000000000E+00  0.00000E+00  9.000E+00
      25     1     1     2     0     0  3.282350451E+01  1.140894997E+02 -3.388178178E+02  3.801530088E+02  1.250000000E+02  0.00000E+00  9.000E+00
      25     1     1     2     0     0 -6.735671637E+01 -1.001825942E+02 -1.109891713E+02  2.061966915E+02  1.250000000E+02  0.00000E+00  9.000E+00
      21     1     1     2   511   501  3.453321186E+01 -1.390690555E+01 -1.018865235E+02  1.084749207E+02  1.348699152E-06  0.00000E+00  9.000E+00
#rwgt            1           1   4.4738272924092867E-002           2       24664           0
</event>
<event>
      5   9999  3.79277E-02  2.82446E+01 -1.00000E+00  1.54881E-01
      21    -1     0     0   502   512  0.000000000E+00  0.000000000E+00  8.758797932E+01  8.758797932E+01  0.000000000E+00  0.00000E+00  9.000E+00
      21    -1     0     0   501   502  0.000000000E+00  0.000000000E+00 -2.029441044E+03  2.029441044E+03  0.000000000E+00  0.00000E+00  9.000E+00
      25     1     1     2     0     0 -1.095285960E+02  4.945683588E+01 -1.042761975E+03  1.057080899E+03  1.250000000E+02  0.00000E+00  9.000E+00
      25     1     1     2     0     0  1.095327637E+02 -7.770148305E+01 -9.681270403E+02  9.853577589E+02  1.250000000E+02  0.00000E+00  9.000E+00
      21     1     1     2   501   512 -4.167665135E-03  2.824464717E+01  6.903595037E+01  7.459036502E+01  3.303624740E-06  0.00000E+00  9.000E+00
#rwgt            1           1  0.23619921397662494                2       24762           0
</event>
<event>
      5   9999  3.79277E-02  2.74256E+01 -1.00000E+00  1.55796E-01
      21    -1     0     0   502   511  0.000000000E+00  0.000000000E+00  1.556251634E+02  1.556251634E+02  0.000000000E+00  0.00000E+00  9.000E+00
      21    -1     0     0   501   502  0.000000000E+00  0.000000000E+00 -2.397470146E+02  2.397470146E+02  0.000000000E+00  0.00000E+00  9.000E+00
      25     1     1     2     0     0 -5.068825879E+01  6.937165085E+01  4.977836164E+01  1.596390015E+02  1.250000000E+02  0.00000E+00  9.000E+00
      25     1     1     2     0     0  3.063782541E+01 -8.808374706E+01 -1.376977954E+02  2.080459221E+02  1.250000000E+02  0.00000E+00  9.000E+00
      21     1     1     2   501   511  2.005043338E+01  1.871209621E+01  3.797582617E+00  2.768725441E+01  4.150983178E-07  0.00000E+00  9.000E+00
#rwgt            1           1   4.7164523866932144E-002           2       24897           0
</event>
<event>
      5   9999  3.79277E-02  7.81706E+01 -1.00000E+00  1.28838E-01
      21    -1     0     0   502   501  0.000000000E+00  0.000000000E+00  7.406614196E+01  7.406614196E+01  0.000000000E+00  0.00000E+00  9.000E+00
      21    -1     0     0   512   502  0.000000000E+00  0.000000000E+00 -8.864471766E+02  8.864471766E+02  0.000000000E+00  0.00000E+00  9.000E+00
      25     1     1     2     0     0 -4.285955869E+01 -1.551912360E+02 -2.089791486E+02  2.919221575E+02  1.250000000E+02  0.00000E+00  9.000E+00
      25     1     1     2     0     0  8.702974540E+01  9.069594274E+01 -2.489133784E+02  3.055859954E+02  1.250000000E+02  0.00000E+00  9.000E+00
      21     1     1     2   512   501 -4.417018670E+01  6.449529327E+01 -3.544885077E+02  3.630051657E+02  3.814697266E-06  0.00000E+00  9.000E+00
#rwgt            1           1   3.3028055618221301E-002           2       24978           0
</event>
<event>
      5   9999  3.79277E-02  3.57220E+01 -1.00000E+00  1.47954E-01
      21    -1     0     0   502   511  0.000000000E+00  0.000000000E+00  5.850216680E+02  5.850216680E+02  0.000000000E+00  0.00000E+00  9.000E+00
      21    -1     0     0   501   502  0.000000000E+00  0.000000000E+00 -9.237362503E+01  9.237362503E+01  0.000000000E+00  0.00000E+00  9.000E+00
      25     1     1     2     0     0  1.443552091E+02 -1.993886966E+01  3.674766784E+02  4.146083623E+02  1.250000000E+02  0.00000E+00  9.000E+00
      25     1     1     2     0     0 -1.119416748E+02  4.924746512E+00  4.315348625E+01  1.733274793E+02  1.250000000E+02  0.00000E+00  9.000E+00
      21     1     1     2   501   511 -3.241353424E+01  1.501412315E+01  8.201787833E+01  8.945945149E+01  1.348699152E-06  0.00000E+00  9.000E+00
#rwgt            1           1   3.1894562879370307E-002           2       25056           0
</event>
<event>
      5   9999  3.79277E-02  1.43664E+01 -1.00000E+00  1.79168E-01
      21    -1     0     0   502   501  0.000000000E+00  0.000000000E+00  4.545552773E+02  4.545552773E+02  0.000000000E+00  0.00000E+00  9.000E+00
      21    -1     0     0   501   512  0.000000000E+00  0.000000000E+00 -1.664006941E+02  1.664006941E+02  0.000000000E+00  0.00000E+00  9.000E+00
      25     1     1     2     0     0 -9.799360632E+01 -1.484463123E+02  2.885528748E+01  2.193095578E+02  1.250000000E+02  0.00000E+00  9.000E+00
      25     1     1     2     0     0  8.366474742E+01  1.494844270E+02  2.949148118E+02  3.632425224E+02  1.250000000E+02  0.00000E+00  9.000E+00
      21     1     1     2   502   512  1.432885890E+01 -1.038114636E+00 -3.561551607E+01  3.840389126E+01  8.259061849E-07  0.00000E+00  9.000E+00
#rwgt            1           1   3.9495279135702305E-002           2       25181           0
</event>
<event>
      5   9999  3.79277E-02  2.35064E+01 -1.00000E+00  1.60781E-01
      21    -1     0     0   502   501  0.000000000E+00  0.000000000E+00  1.072717663E+03  1.072717663E+03  0.000000000E+00  0.00000E+00  9.000E+00
      21    -1     0     0   511   502  0.000000000E+00  0.000000000E+00 -5.051991790E+01  5.051991790E+01  0.000000000E+00  0.00000E+00  9.000E+00
      25     1     1     2     0     0  1.270158806E+02 -1.345990040E+02  4.635391491E+02  5.145322813E+02  1.250000000E+02  0.00000E+00  9.000E+00
      25     1     1     2     0     0 -1.328790576E+02  1.118355343E+02  5.304621504E+02  5.719957375E+02  1.250000000E+02  0.00000E+00  9.000E+00
      21     1     1     2   511   501  5.863177032E+00  2.276346976E+01  2.819644549E+01  3.670956196E+01  5.840038640E-07  0.00000E+00  9.000E+00
#rwgt            1           1   4.4602104446060102E-002           2       25505           0
</event>
<event>
      5   9999  3.79277E-02  8.84497E+01 -1.00000E+00  1.26274E-01
      21    -1     0     0   502   501  0.000000000E+00  0.000000000E+00  2.975190870E+02  2.975190870E+02  0.000000000E+00  0.00000E+00  9.000E+00
      21    -1     0     0   512   502  0.000000000E+00  0.000000000E+00 -1.375559178E+02  1.375559178E+02  0.000000000E+00  0.00000E+00  9.000E+00
      25     1     1     2     0     0  3.544345737E+01 -1.044458307E+02  6.843176599E+01  1.802028768E+02  1.250000000E+02  0.00000E+00  9.000E+00
      25     1     1     2     0     0  3.436678898E+01  5.013309931E+01  9.152612860E+01  1.664224626E+02  1.250000000E+02  0.00000E+00  9.000E+00
      21     1     1     2   512   501 -6.981024635E+01  5.431273136E+01  5.274644314E-03  8.844966541E+01  1.443097402E-07  0.00000E+00  9.000E+00
#rwgt            1           1   9.1680381619633156E-002           2       25626           0
</event>
<event>
      5   9999  3.79277E-02  2.69378E+01 -1.00000E+00  1.56360E-01
      21    -1     0     0   511   501  0.000000000E+00  0.000000000E+00  1.107342079E+03  1.107342079E+03  0.000000000E+00  0.00000E+00  9.000E+00
      21    -1     0     0   501   502  0.000000000E+00  0.000000000E+00 -5.208875059E+01  5.208875059E+01  0.000000000E+00  0.00000E+00  9.000E+00
      25     1     1     2     0     0  1.396552894E+02  6.613310017E+01  7.136449400E+02  7.408044864E+02  1.250000000E+02  0.00000E+00  9.000E+00
      25     1     1     2     0     0 -1.417460498E+02 -3.927657873E+01  2.139490271E+02  2.881558233E+02  1.250000000E+02  0.00000E+00  9.000E+00
      21     1     1     2   511   502  2.090760430E+00 -2.685652145E+01  1.276593617E+02  1.304705202E+02  1.348699152E-06  0.00000E+00  9.000E+00
#rwgt            1           1   3.9711208204269835E-002           2       25720           0
</event>
<event>
      5   9999  3.79277E-02  3.77475E+01 -1.00000E+00  1.46419E-01
      21    -1     0     0   502   501  0.000000000E+00  0.000000000E+00  1.218249280E+02  1.218249280E+02  0.000000000E+00  0.00000E+00  9.000E+00
      21    -1     0     0   501   512  0.000000000E+00  0.000000000E+00 -4.479426151E+02  4.479426151E+02  0.000000000E+00  0.00000E+00  9.000E+00
      25     1     1     2     0     0  1.257092485E+02 -1.294907124E+02 -8.318055162E+01  2.347651251E+02  1.250000000E+02  0.00000E+00  9.000E+00
      25     1     1     2     0     0 -9.152415834E+01  1.134828874E+02 -1.915447817E+02  2.712368719E+02  1.250000000E+02  0.00000E+00  9.000E+00
      21     1     1     2   502   512 -3.418509017E+01  1.600782506E+01 -5.139235379E+01  6.376554619E+01  6.743495762E-07  0.00000E+00  9.000E+00
#rwgt            1           1   3.9354336375464503E-002           2       25862           0
</event>
<event>
      5   9999  3.79277E-02  3.65176E+01 -1.00000E+00  1.47337E-01
      21    -1     0     0   511   501  0.000000000E+00  0.000000000E+00  5.110553267E+02  5.110553267E+02  0.000000000E+00  0.00000E+00  9.000E+00
      21    -1     0     0   501   502  0.000000000E+00  0.000000000E+00 -9.349131582E+01  9.349131582E+01  0.000000000E+00  0.00000E+00  9.000E+00
      25     1     1     2     0     0 -7.373178558E+01  1.130938802E+02  2.250939796E+02  2.907213470E+02  1.250000000E+02  0.00000E+00  9.000E+00
      25     1     1     2     0     0  1.061287980E+02 -1.299452796E+02  1.479714440E+02  2.562608938E+02  1.250000000E+02  0.00000E+00  9.000E+00
      21     1     1     2   511   502 -3.239701245E+01  1.685139939E+01  4.449858730E+01  5.756440176E+01  1.261592536E-06  0.00000E+00  9.000E+00
#rwgt            1           1   4.3609626184774340E-002           2       26112           0
</event>
<event>
      5   9999  3.79277E-02  1.52377E+02 -1.00000E+00  1.16124E-01
      21    -1     0     0   502   512  0.000000000E+00  0.000000000E+00  3.011798263E+02  3.011798263E+02  0.000000000E+00  0.00000E+00  9.000E+00
      21    -1     0     0   501   502  0.000000000E+00  0.000000000E+00 -6.974764624E+02  6.974764624E+02  0.000000000E+00  0.00000E+00  9.000E+00
      25     1     1     2     0     0 -2.032146050E+02 -3.430155334E+02 -2.323003692E+02  4.780630642E+02  1.250000000E+02  0.00000E+00  9.000E+00
      25     1     1     2     0     0  2.485975701E+02  1.975534608E+02 -1.236689272E+02  3.629698683E+02  1.250000000E+02  0.00000E+00  9.000E+00
      21     1     1     2   501   512 -4.538296510E+01  1.454620726E+02 -4.032733967E+01  1.576233562E+02  2.236564522E-06  0.00000E+00  9.000E+00
#rwgt            1           1   3.6273628871223533E-002           2       26278           0
</event>
<event>
      5   9999  3.79277E-02  4.18656E+01 -1.00000E+00  1.43623E-01
      21    -1     0     0   511   501  0.000000000E+00  0.000000000E+00  1.838875754E+02  1.838875754E+02  0.000000000E+00  0.00000E+00  9.000E+00
      21    -1     0     0   501   502  0.000000000E+00  0.000000000E+00 -5.050261496E+02  5.050261496E+02  0.000000000E+00  0.00000E+00  9.000E+00
      25     1     1     2     0     0 -1.368624779E+02 -3.275318856E+01 -3.638685008E+02  4.096698611E+02  1.250000000E+02  0.00000E+00  9.000E+00
      25     1     1     2     0     0  1.033599639E+02  5.785921468E+01 -4.846440941E+01  1.788987698E+02  1.250000000E+02  0.00000E+00  9.000E+00
      21     1     1     2   511   502  3.350251403E+01 -2.510602612E+01  9.119433602E+01  1.003450941E+02  1.907348633E-06  0.00000E+00  9.000E+00
#rwgt            1           1   3.9145170851477146E-002           2       26447           0
</event>
<event>
      5   9999  3.79277E-02  3.17414E+01 -1.00000E+00  1.51357E-01
      21    -1     0     0   502   501  0.000000000E+00  0.000000000E+00  8.460359381E+01  8.460359381E+01  0.000000000E+00  0.00000E+00  9.000E+00
       1    -1     0     0   501     0  0.000000000E+00  0.000000000E+00 -7.241347018E+02  7.241347018E+02  0.000000000E+00  0.00000E+00  9.000E+00
      25     1     1     2     0     0 -3.508681913E+01  1.316012787E+02 -1.171714732E+02  2.188701340E+02  1.250000000E+02  0.00000E+00  9.000E+00
      25     1     1     2     0     0  6.678551027E+01 -1.299555709E+02 -2.486569205E+02  3.143310658E+02  1.250000000E+02  0.00000E+00  9.000E+00
       1     1     1     2   502     0 -3.169869114E+01 -1.645707793E+00 -2.737027142E+02  2.755370958E+02  3.814697266E-06  0.00000E+00  9.000E+00
#rwgt            1           1   4.1987156458764205E-002           2       26575           0
</event>
<event>
      5   9999  3.79277E-02  1.85704E+02 -1.00000E+00  1.12833E-01
      21    -1     0     0   502   511  0.000000000E+00  0.000000000E+00  1.192276698E+02  1.192276698E+02  0.000000000E+00  0.00000E+00  9.000E+00
      21    -1     0     0   501   502  0.000000000E+00  0.000000000E+00 -7.691934054E+02  7.691934054E+02  0.000000000E+00  0.00000E+00  9.000E+00
      25     1     1     2     0     0  1.024982837E+01 -7.425325026E+01 -1.336303634E+02  1.977389142E+02  1.250000000E+02  0.00000E+00  9.000E+00
      25     1     1     2     0     0  1.459565730E+02  1.746792105E+02 -3.801879948E+02  4.604172664E+02  1.250000000E+02  0.00000E+00  9.000E+00
      21     1     1     2   501   511 -1.562064013E+02 -1.004259603E+02 -1.361473774E+02  2.302648946E+02  0.000000000E+00  0.00000E+00  9.000E+00
#rwgt            2          11   1.7893314249423857E-003           2       26702           0
</event>
<event>
      5   9999  3.79277E-02  2.88698E+01 -1.00000E+00  1.54207E-01
      21    -1     0     0   512   501  0.000000000E+00  0.000000000E+00  5.700512632E+01  5.700512632E+01  0.000000000E+00  0.00000E+00  9.000E+00
      21    -1     0     0   501   502  0.000000000E+00  0.000000000E+00 -7.516529156E+02  7.516529156E+02  0.000000000E+00  0.00000E+00  9.000E+00
      25     1     1     2     0     0 -1.101855777E+02 -4.110166688E+01 -4.352897170E+02  4.679020691E+02  1.250000000E+02  0.00000E+00  9.000E+00
      25     1     1     2     0     0  1.266993877E+02  6.478203037E+01 -2.410881961E+02  3.065908750E+02  1.250000000E+02  0.00000E+00  9.000E+00
      21     1     1     2   512   502 -1.651380999E+01 -2.368036349E+01 -1.826987616E+01  3.416509784E+01  3.371747881E-07  0.00000E+00  9.000E+00
#rwgt            1           1   4.6409413415198844E-002           2       26752           0
</event>
<event>
      5   9999  3.79277E-02  3.24873E+01 -1.00000E+00  1.50675E-01
      21    -1     0     0   511   501  0.000000000E+00  0.000000000E+00  1.031215466E+02  1.031215466E+02  0.000000000E+00  0.00000E+00  9.000E+00
      21    -1     0     0   501   502  0.000000000E+00  0.000000000E+00 -1.314560281E+03  1.314560281E+03  0.000000000E+00  0.00000E+00  9.000E+00
      25     1     1     2     0     0 -8.102470891E+01  2.008030546E+02 -9.753649709E+02  1.006900540E+03  1.250000000E+02  0.00000E+00  9.000E+00
      25     1     1     2     0     0  9.227854319E+01 -2.312789027E+02 -2.510190955E+02  3.750211283E+02  1.250000000E+02  0.00000E+00  9.000E+00
      21     1     1     2   511   502 -1.125383428E+01  3.047584807E+01  1.494533179E+01  3.576016001E+01  1.092571186E-06  0.00000E+00  9.000E+00
#rwgt            1           1  0.13335316882379442                2       26890           0
</event>
<event>
      5   9999  3.79277E-02  9.55615E+01 -1.00000E+00  1.24721E-01
      21    -1     0     0   502   501  0.000000000E+00  0.000000000E+00  2.574057799E+02  2.574057799E+02  0.000000000E+00  0.00000E+00  9.000E+00
      21    -1     0     0   501   512  0.000000000E+00  0.000000000E+00 -8.669673602E+02  8.669673602E+02  0.000000000E+00  0.00000E+00  9.000E+00
      25     1     1     2     0     0  4.922366735E+01  3.136599984E+02 -1.004585194E+02  3.556999833E+02  1.250000000E+02  0.00000E+00  9.000E+00
      25     1     1     2     0     0  3.435296159E+01 -3.599951705E+02 -1.742185969E+02  4.204209418E+02  1.250000000E+02  0.00000E+00  9.000E+00
      21     1     1     2   502   512 -8.357662894E+01  4.633517216E+01 -3.348844640E+02  3.482522151E+02  5.394796609E-06  0.00000E+00  9.000E+00
#rwgt            1           1   3.4180543915106512E-002           2       27049           0
</event>
<event>
      5   9999  3.79277E-02  1.26173E+01 -1.00000E+00  1.84766E-01
      21    -1     0     0   502   501  0.000000000E+00  0.000000000E+00  7.797577152E+01  7.797577152E+01  0.000000000E+00  0.00000E+00  9.000E+00
      21    -1     0     0   511   502  0.000000000E+00  0.000000000E+00 -6.344890299E+02  6.344890299E+02  0.000000000E+00  0.00000E+00  9.000E+00
      25     1     1     2     0     0 -2.607413775E+01 -8.053099686E+01 -2.048019947E+01  1.523467777E+02  1.250000000E+02  0.00000E+00  9.000E+00
      25     1     1     2     0     0  3.119722805E+01  6.900062903E+01 -4.493004900E+02  4.724725221E+02  1.250000000E+02  0.00000E+00  9.000E+00
      21     1     1     2   511   501 -5.123090296E+00  1.153036782E+01 -8.673256891E+01  8.764550158E+01  0.000000000E+00  0.00000E+00  9.000E+00
#rwgt            1           1   4.1827291869257530E-002           2       27188           0
</event>
<event>
      5   9999  3.79277E-02  5.06705E+01 -1.00000E+00  1.38746E-01
      21    -1     0     0   502   512  0.000000000E+00  0.000000000E+00  1.974082810E+03  1.974082810E+03  0.000000000E+00  0.00000E+00  9.000E+00
      21    -1     0     0   501   502  0.000000000E+00  0.000000000E+00 -1.745930594E+02  1.745930594E+02  0.000000000E+00  0.00000E+00  9.000E+00
      25     1     1     2     0     0 -2.094490468E+02 -8.400044414E+01  3.166044076E+02  4.083972683E+02  1.250000000E+02  0.00000E+00  9.000E+00
      25     1     1     2     0     0  2.582090719E+02  9.778305234E+01  5.081476988E+01  3.073118790E+02  1.250000000E+02  0.00000E+00  9.000E+00
      21     1     1     2   501   512 -4.876002507E+01 -1.378260820E+01  1.432070573E+03  1.432966722E+03  2.642899792E-05  0.00000E+00  9.000E+00
#rwgt            1           1   4.0094932755237137E-002           2       27377           0
</event>
<event>
      5   9999  3.79277E-02  1.37956E+02 -1.00000E+00  1.17853E-01
       2    -1     0     0   502     0  0.000000000E+00  0.000000000E+00  1.739111647E+03  1.739111647E+03  0.000000000E+00  0.00000E+00  9.000E+00
      21    -1     0     0   501   502  0.000000000E+00  0.000000000E+00 -7.297240044E+01  7.297240044E+01  0.000000000E+00  0.00000E+00  9.000E+00
      25     1     1     2     0     0  1.698664127E+01 -1.141962954E+02  6.477601377E+02  6.697369154E+02  1.250000000E+02  0.00000E+00  9.000E+00
      25     1     1     2     0     0 -9.309946160E+01 -8.628764675E-01  4.926547311E+01  1.634635774E+02  1.250000000E+02  0.00000E+00  9.000E+00
       2     1     1     2   501     0  7.611282033E+01  1.150591719E+02  9.691136355E+02  9.788835544E+02  1.078959322E-05  0.00000E+00  9.000E+00
#rwgt            1           1   4.2163417254010419E-002           2       27593           0
</event>
<event>
      5   9999  3.79277E-02  4.62539E+01 -1.00000E+00  1.41033E-01
      21    -1     0     0   502   511  0.000000000E+00  0.000000000E+00  8.320002090E+02  8.320002090E+02  0.000000000E+00  0.00000E+00  9.000E+00
      21    -1     0     0   501   502  0.000000000E+00  0.000000000E+00 -5.367520028E+02  5.367520028E+02  0.000000000E+00  0.00000E+00  9.000E+00
      25     1     1     2     0     0  1.656706181E+02  1.301847205E+02 -3.106863446E+02  3.956587164E+02  1.250000000E+02  0.00000E+00  9.000E+00
      25     1     1     2     0     0 -1.500135769E+02 -1.737080412E+02 -8.940384067E+01  2.762183983E+02  1.250000000E+02  0.00000E+00  9.000E+00
      21     1     1     2   501   511 -1.565704124E+01  4.352332071E+01  6.953383915E+02  6.968750972E+02  0.000000000E+00  0.00000E+00  9.000E+00
#rwgt            1           1   3.5925396274730341E-002           2       27644           0
</event>
<event>
      5   9999  3.79277E-02  1.97615E+02 -1.00000E+00  1.11838E-01
      21    -1     0     0   502   501  0.000000000E+00  0.000000000E+00  1.474926579E+03  1.474926579E+03  0.000000000E+00  0.00000E+00  9.000E+00
      21    -1     0     0   501   512  0.000000000E+00  0.000000000E+00 -8.182183689E+02  8.182183689E+02  0.000000000E+00  0.00000E+00  9.000E+00
      25     1     1     2     0     0 -7.715180065E+01  2.157830460E+02  6.678565284E+02  7.170579236E+02  1.250000000E+02  0.00000E+00  9.000E+00
      25     1     1     2     0     0 -1.024380780E+02 -1.333250842E+02  7.556901368E+02  7.841949507E+02  1.250000000E+02  0.00000E+00  9.000E+00
      21     1     1     2   502   512  1.795898786E+02 -8.245796179E+01 -7.668384551E+02  7.918920736E+02  1.525878906E-05  0.00000E+00  9.000E+00
#rwgt            1           1   4.0920275160177155E-002           2       27764           0
</event>
<event>
      5   9999  3.79277E-02  1.25083E+02 -1.00000E+00  1.19608E-01
      21    -1     0     0   502   501  0.000000000E+00  0.000000000E+00  1.881857649E+02  1.881857649E+02  0.000000000E+00  0.00000E+00  9.000E+00
      21    -1     0     0   511   502  0.000000000E+00  0.000000000E+00 -6.098589289E+02  6.098589289E+02  0.000000000E+00  0.00000E+00  9.000E+00
      25     1     1     2     0     0 -8.295031705E+01 -4.880155655E+01  1.077772898E+02  1.910583451E+02  1.250000000E+02  0.00000E+00  9.000E+00
      25     1     1     2     0     0 -3.250563960E+01  9.692382721E+01 -2.174885139E+02  2.708820750E+02  1.250000000E+02  0.00000E+00  9.000E+00
      21     1     1     2   511   501  1.154559566E+02 -4.812227066E+01 -3.119619399E+02  3.361042737E+02  5.394796609E-06  0.00000E+00  9.000E+00
#rwgt            1           1   4.9519787970666085E-002           2       27849           0
</event>
<event>
      5   9999  3.79277E-02  2.89154E+01 -1.00000E+00  1.54159E-01
      21    -1     0     0   502   512  0.000000000E+00  0.000000000E+00  8.245400487E+01  8.245400487E+01  0.000000000E+00  0.00000E+00  9.000E+00
      21    -1     0     0   501   502  0.000000000E+00  0.000000000E+00 -9.468627970E+02  9.468627970E+02  0.000000000E+00  0.00000E+00  9.000E+00
      25     1     1     2     0     0  8.796285101E+01 -3.722354360E+01 -7.979638726E+01  1.763959148E+02  1.250000000E+02  0.00000E+00  9.000E+00
      25     1     1     2     0     0 -7.078327714E+01  6.048214024E+01 -8.034383052E+02  8.184170525E+02  1.250000000E+02  0.00000E+00  9.000E+00
      21     1     1     2   501   512 -1.717957387E+01 -2.325859664E+01  1.882590029E+01  3.450383453E+01  4.768371582E-07  0.00000E+00  9.000E+00
#rwgt            1           1   3.4511358774328205E-002           2       28044           0
</event>
<event>
      5   9999  3.79277E-02  1.37863E+01 -1.00000E+00  1.80907E-01
       2    -1     0     0   502     0  0.000000000E+00  0.000000000E+00  1.294972771E+03  1.294972771E+03  0.000000000E+00  0.00000E+00  9.000E+00
      21    -1     0     0   501   502  0.000000000E+00  0.000000000E+00 -2.782963976E+01  2.782963976E+01  0.000000000E+00  0.00000E+00  9.000E+00
      25     1     1     2     0     0  6.805160154E+00 -1.308807709E+02  5.957588677E+02  6.226794639E+02  1.250000000E+02  0.00000E+00  9.000E+00
      25     1     1     2     0     0  5.718516157E+00  1.251170648E+02  5.454189035E+02  5.734054078E+02  1.250000000E+02  0.00000E+00  9.000E+00
       2     1     1     2   501     0 -1.252367631E+01  5.763706020E+00  1.259653600E+02  1.267175390E+02  1.348699152E-06  0.00000E+00  9.000E+00
#rwgt            1           1   3.9806662836167538E-002           2       28303           0
</event>
<event>
      5   9999  3.79277E-02  2.52613E+01 -1.00000E+00  1.58413E-01
      21    -1     0     0   502   501  0.000000000E+00  0.000000000E+00  9.909921847E+02  9.909921847E+02  0.000000000E+00  0.00000E+00  9.000E+00
      21    -1     0     0   511   502  0.000000000E+00  0.000000000E+00 -5.402039966E+01  5.402039966E+01  0.000000000E+00  0.00000E+00  9.000E+00
      25     1     1     2     0     0  7.490951076E+01 -1.561159347E+02  4.028654310E+02  4.559705861E+02  1.250000000E+02  0.00000E+00  9.000E+00
      25     1     1     2     0     0 -5.233725744E+01  1.674571989E+02  5.120036802E+02  5.554762555E+02  1.250000000E+02  0.00000E+00  9.000E+00
      21     1     1     2   511   501 -2.257225332E+01 -1.134126417E+01  2.210267383E+01  3.356574270E+01  4.129530925E-07  0.00000E+00  9.000E+00
#rwgt            1           1   2.8275003811220771E-002           2       28581           0
</event>
<event>
      5   9999  3.79277E-02  1.43072E+02 -1.00000E+00  1.17213E-01
      21    -1     0     0   502   512  0.000000000E+00  0.000000000E+00  1.152876659E+02  1.152876659E+02  0.000000000E+00  0.00000E+00  9.000E+00
      21    -1     0     0   501   502  0.000000000E+00  0.000000000E+00 -1.514064949E+03  1.514064949E+03  0.000000000E+00  0.00000E+00  9.000E+00
      25     1     1     2     0     0  2.188681866E+01 -1.057582147E+02 -3.641106588E+01  1.691585012E+02  1.250000000E+02  0.00000E+00  9.000E+00
      25     1     1     2     0     0  1.196727256E+02  8.500819076E+01 -1.281353755E+03  1.295777913E+03  1.250000000E+02  0.00000E+00  9.000E+00
      21     1     1     2   501   512 -1.415595443E+02  2.075002396E+01 -8.101246200E+01  1.644162007E+02  3.438521648E-06  0.00000E+00  9.000E+00
#rwgt            1           1   3.3042739012155285E-002           2       28771           0
</event>
<event>
      5   9999  3.79277E-02  1.54302E+01 -1.00000E+00  1.76234E-01
      21    -1     0     0   502   501  0.000000000E+00  0.000000000E+00  1.993109270E+01  1.993109270E+01  0.000000000E+00  0.00000E+00  9.000E+00
      21    -1     0     0   501   511  0.000000000E+00  0.000000000E+00 -1.321123077E+03  1.321123077E+03  0.000000000E+00  0.00000E+00  9.000E+00
      25     1     1     2     0     0  7.352477547E+01  5.212634338E+01 -6.105501269E+02  6.296979480E+02  1.250000000E+02  0.00000E+00  9.000E+00
      25     1     1     2     0     0 -7.891545169E+01 -3.766836747E+01 -5.836260651E+02  6.032337343E+02  1.250000000E+02  0.00000E+00  9.000E+00
      21     1     1     2   502   511  5.390676220E+00 -1.445797591E+01 -1.070157922E+02  1.081224872E+02  0.000000000E+00  0.00000E+00  9.000E+00
#rwgt            1           1   2.1975269245225082E-002           2       28873           0
</event>
<event>
      5   9999  3.79277E-02  4.02746E+01 -1.00000E+00  1.44656E-01
      21    -1     0     0   502   512  0.000000000E+00  0.000000000E+00  1.510826500E+03  1.510826500E+03  0.000000000E+00  0.00000E+00  9.000E+00
      21    -1     0     0   501   502  0.000000000E+00  0.000000000E+00 -2.798110993E+01  2.798110993E+01  0.000000000E+00  0.00000E+00  9.000E+00
      25     1     1     2     0     0  6.462888614E+01  1.023054087E+02  6.207554675E+02  6.446748328E+02  1.250000000E+02  0.00000E+00  9.000E+00
      25     1     1     2     0     0 -9.810626597E+01 -7.991554460E+01  5.178413870E+02  5.475363329E+02  1.250000000E+02  0.00000E+00  9.000E+00
      21     1     1     2   501   512  3.347737983E+01 -2.238986412E+01  3.442485353E+02  3.465964440E+02  0.000000000E+00  0.00000E+00  9.000E+00
#rwgt            1           1   3.2268273890350571E-002           2       29039           0
</event>
<event>
      5   9999  3.79277E-02  6.36853E+01 -1.00000E+00  1.33334E-01
      21    -1     0     0   502   501  0.000000000E+00  0.000000000E+00  1.964203087E+02  1.964203087E+02  0.000000000E+00  0.00000E+00  9.000E+00
      21    -1     0     0   501   511  0.000000000E+00  0.000000000E+00 -4.904137867E+02  4.904137867E+02  0.000000000E+00  0.00000E+00  9.000E+00
      25     1     1     2     0     0  4.266082378E+01  1.445047793E+02  5.426631132E+01  2.031536603E+02  1.250000000E+02  0.00000E+00  9.000E+00
      25     1     1     2     0     0  1.742093922E+01 -1.233860240E+02 -5.690639066E+01  1.854479370E+02  1.250000000E+02  0.00000E+00  9.000E+00
      21     1     1     2   502   511 -6.008176300E+01 -2.111875532E+01 -2.913533986E+02  2.982324982E+02  5.394796609E-06  0.00000E+00  9.000E+00
#rwgt            1           1   4.4726526718154448E-002           2       29157           0
</event>
<event>
      5   9999  3.79277E-02  1.45062E+01 -1.00000E+00  1.78764E-01
       2    -1     0     0   502     0  0.000000000E+00  0.000000000E+00  4.035153515E+02  4.035153515E+02  0.000000000E+00  0.00000E+00  9.000E+00
      21    -1     0     0   501   502  0.000000000E+00  0.000000000E+00 -1.232115436E+03  1.232115436E+03  0.000000000E+00  0.00000E+00  9.000E+00
      25     1     1     2     0     0 -2.679530630E+02 -6.705443608E+01 -6.814952961E+02  7.458927402E+02  1.250000000E+02  0.00000E+00  9.000E+00
      25     1     1     2     0     0  2.755016144E+02  5.466696364E+01 -4.726676223E+02  5.638521948E+02  1.250000000E+02  0.00000E+00  9.000E+00
       2     1     1     2   501     0 -7.548551368E+00  1.238747244E+01  3.255628338E+02  3.258858525E+02  5.394796609E-06  0.00000E+00  9.000E+00
#rwgt            1           1   1.7366291993738694E-002           2       29241           0
</event>
<event>
      5   9999  3.79277E-02  2.07519E+02 -1.00000E+00  1.11068E-01
      21    -1     0     0   502   511  0.000000000E+00  0.000000000E+00  6.931371406E+02  6.931371406E+02  0.000000000E+00  0.00000E+00  9.000E+00
      21    -1     0     0   501   502  0.000000000E+00  0.000000000E+00 -3.860519336E+02  3.860519336E+02  0.000000000E+00  0.00000E+00  9.000E+00
      25     1     1     2     0     0  2.628545032E+01  1.112488854E+02  4.385879528E+01  1.749738075E+02  1.250000000E+02  0.00000E+00  9.000E+00
      25     1     1     2     0     0  1.556373185E+02 -1.140739721E+01 -2.677266464E+02  3.341491595E+02  1.250000000E+02  0.00000E+00  9.000E+00
      21     1     1     2   501   511 -1.819227688E+02 -9.984148815E+01  5.309530582E+02  5.700661072E+02  0.000000000E+00  0.00000E+00  9.000E+00
#rwgt            1           1   2.9998775258187855E-002           2       29470           0
</event>
<event>
      5   9999  3.79277E-02  2.22271E+01 -1.00000E+00  1.62673E-01
      21    -1     0     0   502   512  0.000000000E+00  0.000000000E+00  7.417268736E+02  7.417268736E+02  0.000000000E+00  0.00000E+00  9.000E+00
      21    -1     0     0   501   502  0.000000000E+00  0.000000000E+00 -1.252351443E+02  1.252351443E+02  0.000000000E+00  0.00000E+00  9.000E+00
      25     1     1     2     0     0 -1.736139857E+02  1.684146955E+02  1.168048067E+02  2.962662461E+02  1.250000000E+02  0.00000E+00  9.000E+00
      25     1     1     2     0     0  1.553365786E+02 -1.557663924E+02  4.675572168E+02  5.316270993E+02  1.250000000E+02  0.00000E+00  9.000E+00
      21     1     1     2   501   512  1.827740712E+01 -1.264830307E+01  3.212970582E+01  3.906867259E+01  4.768371582E-07  0.00000E+00  9.000E+00
#rwgt            1           1   3.6267096350204850E-002           2       29570           0
</event>
<event>
      5   9999  3.79277E-02  2.79793E+01 -1.00000E+00  1.55173E-01
      21    -1     0     0   502   511  0.000000000E+00  0.000000000E+00  1.224825655E+02  1.224825655E+02  0.000000000E+00  0.00000E+00  9.000E+00
      21    -1     0     0   501   502  0.000000000E+00  0.000000000E+00 -3.505556358E+02  3.505556358E+02  0.000000000E+00  0.00000E+00  9.000E+00
      25     1     1     2     0     0 -8.533627175E+01  5.933512027E+01 -2.442875707E+02  2.934354324E+02  1.250000000E+02  0.00000E+00  9.000E+00
      25     1     1     2     0     0  5.745532632E+01 -6.167958817E+01  1.124080038E+01  1.511847933E+02  1.250000000E+02  0.00000E+00  9.000E+00
      21     1     1     2   501   511  2.788094543E+01  2.344467899E+00  4.973700054E+00  2.841797565E+01  1.192092896E-07  0.00000E+00  9.000E+00
#rwgt            1           1   4.7332323434899192E-003           2       29781           0
</event>
<event>
      5   9999  3.79277E-02  3.28261E+01 -1.00000E+00  1.50373E-01
      21    -1     0     0   502   501  0.000000000E+00  0.000000000E+00  6.113798446E+02  6.113798446E+02  0.000000000E+00  0.00000E+00  9.000E+00
       3    -1     0     0   501     0  0.000000000E+00  0.000000000E+00 -3.815121016E+02  3.815121016E+02  0.000000000E+00  0.00000E+00  9.000E+00
      25     1     1     2     0     0 -2.474387930E+02 -7.003832180E+01  1.413201405E+02  3.189478091E+02  1.250000000E+02  0.00000E+00  9.000E+00
      25     1     1     2     0     0  2.651720481E+02  4.241430213E+01  3.223907843E+02  4.378081839E+02  1.250000000E+02  0.00000E+00  9.000E+00
       3     1     1     2   502     0 -1.773325507E+01  2.762401967E+01 -2.338431818E+02  2.361359533E+02  4.672030912E-06  0.00000E+00  9.000E+00
#rwgt            2          14   6.1270543961758437E-005           2       30005           0
</event>
<event>
      5   9999  3.79277E-02  4.71459E+01 -1.00000E+00  1.40548E-01
      21    -1     0     0   502   501  0.000000000E+00  0.000000000E+00  1.581792802E+03  1.581792802E+03  0.000000000E+00  0.00000E+00  9.000E+00
      21    -1     0     0   501   511  0.000000000E+00  0.000000000E+00 -8.130352647E+01  8.130352647E+01  0.000000000E+00  0.00000E+00  9.000E+00
      25     1     1     2     0     0  1.374828027E+02 -2.752080887E+02  4.945994842E+02  5.957303609E+02  1.250000000E+02  0.00000E+00  9.000E+00
      25     1     1     2     0     0 -9.476071119E+01  2.552692479E+02  9.381767127E+02  9.848566015E+02  1.250000000E+02  0.00000E+00  9.000E+00
      21     1     1     2   502   511 -4.272209155E+01  1.993884079E+01  6.771307879E+01  8.250936624E+01  0.000000000E+00  0.00000E+00  9.000E+00
#rwgt            1           1   3.3367292093093387E-002           2       30039           0
</event>
<event>
      5   9999  3.79277E-02  1.57357E+02 -1.00000E+00  1.15575E-01
      21    -1     0     0   502   501  0.000000000E+00  0.000000000E+00  4.807324820E+02  4.807324820E+02  0.000000000E+00  0.00000E+00  9.000E+00
      21    -1     0     0   512   502  0.000000000E+00  0.000000000E+00 -1.988515473E+02  1.988515473E+02  0.000000000E+00  0.00000E+00  9.000E+00
      25     1     1     2     0     0  1.046793649E+02 -2.362158685E+02  1.215259888E+02  3.116877795E+02  1.250000000E+02  0.00000E+00  9.000E+00
      25     1     1     2     0     0 -8.775266560E+01  7.977227099E+01  1.009490987E+02  1.996994393E+02  1.250000000E+02  0.00000E+00  9.000E+00
      21     1     1     2   512   501 -1.692669927E+01  1.564435975E+02  5.940584716E+01  1.681968104E+02  1.507891493E-06  0.00000E+00  9.000E+00
#rwgt            1           1   2.4201170331087790E-002           2       30157           0
</event>
<event>
      5   9999  3.79277E-02  1.64713E+01 -1.00000E+00  1.73639E-01
      21    -1     0     0   502   501  0.000000000E+00  0.000000000E+00  7.399734959E+01  7.399734959E+01  0.000000000E+00  0.00000E+00  9.000E+00
       1    -1     0     0   501     0  0.000000000E+00  0.000000000E+00 -1.282261442E+03  1.282261442E+03  0.000000000E+00  0.00000E+00  9.000E+00
      25     1     1     2     0     0 -2.782859538E+01  1.893530225E+02 -1.771307369E+02  2.891873023E+02  1.250000000E+02  0.00000E+00  9.000E+00
      25     1     1     2     0     0  4.038077183E+01 -2.000183040E+02 -7.917496619E+02  8.271217902E+02  1.250000000E+02  0.00000E+00  9.000E+00
       1     1     1     2   502     0 -1.255217645E+01  1.066528155E+01 -2.393836932E+02  2.399496987E+02  2.697398305E-06  0.00000E+00  9.000E+00
#rwgt            1           1   3.4906106961581349E-002           2       30266           0
</event>
<event>
      5   9999  3.79277E-02  4.37241E+01 -1.00000E+00  1.42483E-01
      21    -1     0     0   502   501  0.000000000E+00  0.000000000E+00  1.159956676E+03  1.159956676E+03  0.000000000E+00  0.00000E+00  9.000E+00
      -2    -1     0     0     0   502  0.000000000E+00  0.000000000E+00 -1.466126656E+02  1.466126656E+02  0.000000000E+00  0.00000E+00  9.000E+00
      25     1     1     2     0     0  7.625869066E+01 -1.338869746E+02  2.205863836E+02  2.966891682E+02  1.250000000E+02  0.00000E+00  9.000E+00
      25     1     1     2     0     0 -5.064933687E+01  9.844753799E+01  8.888020740E+02  9.043513697E+02  1.250000000E+02  0.00000E+00  9.000E+00
      -2     1     1     2     0   501 -2.560935379E+01  3.543943663E+01 -9.604444695E+01  1.055288039E+02  2.697398305E-06  0.00000E+00  9.000E+00
#rwgt            1           1   4.0795813351691801E-002           2       30466           0
</event>
<event>
      5   9999  3.79277E-02  1.80544E+02 -1.00000E+00  1.13290E-01
      21    -1     0     0   502   501  0.000000000E+00  0.000000000E+00  1.051170144E+03  1.051170144E+03  0.000000000E+00  0.00000E+00  9.000E+00
      21    -1     0     0   501   511  0.000000000E+00  0.000000000E+00 -3.791139527E+02  3.791139527E+02  0.000000000E+00  0.00000E+00  9.000E+00
      25     1     1     2     0     0  1.737656770E+02 -2.986818689E+01  7.941560864E+02  8.230404053E+02  1.250000000E+02  0.00000E+00  9.000E+00
      25     1     1     2     0     0 -9.365013449E+01  1.916633470E+02  1.436647280E+02  2.859540878E+02  1.250000000E+02  0.00000E+00  9.000E+00
      21     1     1     2   502   511 -8.011554255E+01 -1.617951601E+02 -2.657646235E+02  3.212896032E+02  7.629394531E-06  0.00000E+00  9.000E+00
#rwgt            1           1   6.8623221073316490E-002           2       30627           0
</event>
<event>
      5   9999  3.79277E-02  2.29733E+01 -1.00000E+00  1.61551E-01
      21    -1     0     0   502   501  0.000000000E+00  0.000000000E+00  3.172228458E+02  3.172228458E+02  0.000000000E+00  0.00000E+00  9.000E+00
      21    -1     0     0   512   502  0.000000000E+00  0.000000000E+00 -2.911475427E+02  2.911475427E+02  0.000000000E+00  0.00000E+00  9.000E+00
      25     1     1     2     0     0  8.674872332E+01 -8.456427769E+01 -1.557349554E+02  2.335697635E+02  1.250000000E+02  0.00000E+00  9.000E+00
      25     1     1     2     0     0 -9.046339993E+01  1.072352835E+02  2.443095108E+02  3.082128644E+02  1.250000000E+02  0.00000E+00  9.000E+00
      21     1     1     2   512   501  3.714676612E+00 -2.267100577E+01 -6.249925226E+01  6.658776058E+01  1.168007728E-06  0.00000E+00  9.000E+00
#rwgt            1           1   3.1647773219717353E-002           2       30714           0
</event>
<event>
      5   9999  3.79277E-02  5.07991E+00 -1.00000E+00  2.37319E-01
      21    -1     0     0   502   501  0.000000000E+00  0.000000000E+00  3.773108785E+02  3.773108785E+02  0.000000000E+00  0.00000E+00  9.000E+00
      21    -1     0     0   501   511  0.000000000E+00  0.000000000E+00 -1.207722500E+02  1.207722500E+02  0.000000000E+00  0.00000E+00  9.000E+00
      25     1     1     2     0     0  1.173668605E+02  1.098090889E+02  1.996097159E+02  2.851351515E+02  1.250000000E+02  0.00000E+00  9.000E+00
      25     1     1     2     0     0 -1.155002208E+02 -1.050845606E+02  5.651654456E+01  2.078513548E+02  1.250000000E+02  0.00000E+00  9.000E+00
      21     1     1     2   502   511 -1.866639653E+00 -4.724528333E+00  4.123680804E-01  5.096622313E+00  1.116344635E-07  0.00000E+00  9.000E+00
#rwgt            1           1   2.2793036035632739E-002           2       30858           0
</event>
<event>
      5   9999  3.79277E-02  1.88289E+01 -1.00000E+00  1.68561E-01
      21    -1     0     0   502   501  0.000000000E+00  0.000000000E+00  1.266709420E+02  1.266709420E+02  0.000000000E+00  0.00000E+00  9.000E+00
       1    -1     0     0   501     0  0.000000000E+00  0.000000000E+00 -9.797224962E+02  9.797224962E+02  0.000000000E+00  0.00000E+00  9.000E+00
      25     1     1     2     0     0 -6.322320835E+01  6.721001173E+01 -9.004309731E+01  1.795748288E+02  1.250000000E+02  0.00000E+00  9.000E+00
      25     1     1     2     0     0  7.080348526E+01 -4.997440805E+01  1.107471557E+01  1.525064730E+02  1.250000000E+02  0.00000E+00  9.000E+00
       1     1     1     2   502     0 -7.580276910E+00 -1.723560367E+01 -7.740831725E+02  7.743121364E+02  1.078959322E-05  0.00000E+00  9.000E+00
#rwgt            1           1   3.2035654770862468E-002           2       31311           0
</event>
<event>
      5   9999 -3.79277E-02  3.81205E+01 -1.00000E+00  1.46148E-01
      21    -1     0     0   502   501  0.000000000E+00  0.000000000E+00  2.202849784E+02  2.202849784E+02  0.000000000E+00  0.00000E+00  9.000E+00
      21    -1     0     0   501   511  0.000000000E+00  0.000000000E+00 -4.211582273E+02  4.211582273E+02  0.000000000E+00  0.00000E+00  9.000E+00
      25     1     1     2     0     0 -1.161004894E+02  1.776348419E+02  4.845209045E+01  2.510100910E+02  1.250000000E+02  0.00000E+00  9.000E+00
      25     1     1     2     0     0  1.520417349E+02 -1.649305188E+02 -1.881243196E+02  3.183308418E+02  1.250000000E+02  0.00000E+00  9.000E+00
      21     1     1     2   502   511 -3.594124541E+01 -1.270432308E+01 -6.120101972E+01  7.210227293E+01  1.168007728E-06  0.00000E+00  9.000E+00
#rwgt            1           1  -6.3265664135109506E-002           2       31468           0
</event>
<event>
      5   9999 -3.79277E-02  8.59242E+01 -1.00000E+00  1.26866E-01
      21    -1     0     0   502   501  0.000000000E+00  0.000000000E+00  1.044739874E+03  1.044739874E+03  0.000000000E+00  0.00000E+00  9.000E+00
      21    -1     0     0   501   512  0.000000000E+00  0.000000000E+00 -8.540281151E+01  8.540281151E+01  0.000000000E+00  0.00000E+00  9.000E+00
      25     1     1     2     0     0  2.524448419E+01  6.035522790E+01  8.582003637E+02  8.697200134E+02  1.250000000E+02  0.00000E+00  9.000E+00
      25     1     1     2     0     0 -8.220818656E+01  3.972883659E+00  8.766796896E+01  1.734492506E+02  1.250000000E+02  0.00000E+00  9.000E+00
      21     1     1     2   502   512  5.696370237E+01 -6.432811156E+01  1.346872955E+01  8.697342123E+01  2.037049233E-06  0.00000E+00  9.000E+00
#rwgt            1           1  -9.6494358430572035E-003           2       31556           0
</event>
<event>
      5   9999 -3.79277E-02  2.96664E+01 -1.00000E+00  1.53378E-01
      21    -1     0     0   511   501  0.000000000E+00  0.000000000E+00  4.442218825E+02  4.442218825E+02  0.000000000E+00  0.00000E+00  9.000E+00
      21    -1     0     0   501   502  0.000000000E+00  0.000000000E+00 -2.300780095E+02  2.300780095E+02  0.000000000E+00  0.00000E+00  9.000E+00
      25     1     1     2     0     0  2.697564887E+02  1.446851216E+00  3.521878226E+01  2.993927507E+02  1.250000000E+02  0.00000E+00  9.000E+00
      25     1     1     2     0     0 -2.416796819E+02 -1.102735423E+01  9.916603080E+01  2.898095458E+02  1.250000000E+02  0.00000E+00  9.000E+00
      21     1     1     2   511   502 -2.807680674E+01  9.580503015E+00  7.975905987E+01  8.509759542E+01  9.536743164E-07  0.00000E+00  9.000E+00
#rwgt            1           1 -0.35657881128186564                2       31722           0
</event>
<event>
      5   9999  3.79277E-02  8.89891E+01 -1.00000E+00  1.26150E-01
      21    -1     0     0   502   501  0.000000000E+00  0.000000000E+00  4.253911132E+02  4.253911132E+02  0.000000000E+00  0.00000E+00  9.000E+00
      -1    -1     0     0     0   502  0.000000000E+00  0.000000000E+00 -1.834748177E+02  1.834748177E+02  0.000000000E+00  0.00000E+00  9.000E+00
      25     1     1     2     0     0 -7.434901003E+00 -1.297881799E+02  3.002789285E+02  3.502751551E+02  1.250000000E+02  0.00000E+00  9.000E+00
      25     1     1     2     0     0 -5.429568469E+01  6.569136664E+01  1.577573678E+00  1.512972761E+02  1.250000000E+02  0.00000E+00  9.000E+00
      -1     1     1     2     0   501  6.173058569E+01  6.409681322E+01 -5.994020672E+01  1.072934996E+02  1.348699152E-06  0.00000E+00  9.000E+00
#rwgt            1           1   3.8377025415663929E-002           2       32141           0
</event>
<event>
      5   9999 -3.79277E-02  1.00128E+01 -1.00000E+00  1.95693E-01
      21    -1     0     0   502   501  0.000000000E+00  0.000000000E+00  6.940222913E+02  6.940222913E+02  0.000000000E+00  0.00000E+00  9.000E+00
      21    -1     0     0   501   511  0.000000000E+00  0.000000000E+00 -8.205449016E+02  8.205449016E+02  0.000000000E+00  0.00000E+00  9.000E+00
      25     1     1     2     0     0 -1.976552478E+02 -2.076175577E+02  3.246085699E+02  4.507420225E+02  1.250000000E+02  0.00000E+00  9.000E+00
      25     1     1     2     0     0  1.880189059E+02  2.103372380E+02  2.285965130E+02  3.840237342E+02  1.250000000E+02  0.00000E+00  9.000E+00
      21     1     1     2   502   511  9.636341842E+00 -2.719680327E+00 -6.797276931E+02  6.798014361E+02  0.000000000E+00  0.00000E+00  9.000E+00
#rwgt            1           1 -0.23578038734352258                2       32178           0
</event>
<event>
      5   9999  3.79277E-02  7.21179E+01 -1.00000E+00  1.30568E-01
      21    -1     0     0   502   501  0.000000000E+00  0.000000000E+00  3.769746587E+02  3.769746587E+02  0.000000000E+00  0.00000E+00  9.000E+00
      21    -1     0     0   512   502  0.000000000E+00  0.000000000E+00 -4.958826499E+02  4.958826499E+02  0.000000000E+00  0.00000E+00  9.000E+00
      25     1     1     2     0     0 -2.061032880E+01  4.975368141E+01  3.050899073E+02  3.340734440E+02  1.250000000E+02  0.00000E+00  9.000E+00
      25     1     1     2     0     0 -2.408367000E+01 -1.063526187E+02 -7.435639795E+01  1.817822229E+02  1.250000000E+02  0.00000E+00  9.000E+00
      21     1     1     2   512   501  4.469399880E+01  5.659893725E+01 -3.496415006E+02  3.570016417E+02  3.814697266E-06  0.00000E+00  9.000E+00
#rwgt            1           1   3.1839915592448365E-002           2       32510           0
</event>
<event>
      5   9999  3.79277E-02  5.72005E+01 -1.00000E+00  1.35822E-01
      21    -1     0     0   502   511  0.000000000E+00  0.000000000E+00  5.034174130E+02  5.034174130E+02  0.000000000E+00  0.00000E+00  9.000E+00
      21    -1     0     0   501   502  0.000000000E+00  0.000000000E+00 -4.047539680E+02  4.047539680E+02  0.000000000E+00  0.00000E+00  9.000E+00
      25     1     1     2     0     0  1.679529720E+02 -2.907188352E+02 -1.256170438E+01  3.584807364E+02  1.250000000E+02  0.00000E+00  9.000E+00
      25     1     1     2     0     0 -1.757602864E+02  2.340536562E+02 -9.781574343E+01  3.329650311E+02  1.250000000E+02  0.00000E+00  9.000E+00
      21     1     1     2   501   511  7.807314324E+00  5.666517897E+01  2.090408929E+02  2.167256135E+02  0.000000000E+00  0.00000E+00  9.000E+00
#rwgt            2          11   1.0715008943523448E-003           2       32568           0
</event>
<event>
      5   9999  3.79277E-02  1.99193E+02 -1.00000E+00  1.11712E-01
      21    -1     0     0   512   501  0.000000000E+00  0.000000000E+00  2.839726390E+02  2.839726390E+02  0.000000000E+00  0.00000E+00  9.000E+00
      21    -1     0     0   501   502  0.000000000E+00  0.000000000E+00 -1.887004412E+03  1.887004412E+03  0.000000000E+00  0.00000E+00  9.000E+00
      25     1     1     2     0     0  3.100820995E+02  1.682977222E+02 -9.268174822E+02  9.995452351E+02  1.250000000E+02  0.00000E+00  9.000E+00
      25     1     1     2     0     0 -1.642295740E+02 -3.263320987E+01 -8.692730572E+02  8.940340750E+02  1.250000000E+02  0.00000E+00  9.000E+00
      21     1     1     2   512   502 -1.458525255E+02 -1.356645124E+02  1.930587666E+02  2.773977406E+02  3.814697266E-06  0.00000E+00  9.000E+00
#rwgt            1           1   3.6032356354126181E-002           2       32618           0
</event>
<event>
      5   9999  3.79277E-02  5.40278E+01 -1.00000E+00  1.37183E-01
      21    -1     0     0   502   511  0.000000000E+00  0.000000000E+00  2.262295284E+02  2.262295284E+02  0.000000000E+00  0.00000E+00  9.000E+00
      21    -1     0     0   501   502  0.000000000E+00  0.000000000E+00 -5.922293100E+02  5.922293100E+02  0.000000000E+00  0.00000E+00  9.000E+00
      25     1     1     2     0     0 -8.650706119E+01 -1.067191333E+02 -4.061826335E+02  4.466338286E+02  1.250000000E+02  0.00000E+00  9.000E+00
      25     1     1     2     0     0  4.189220335E+01  7.624758939E+01 -1.256345767E+02  1.974277043E+02  1.250000000E+02  0.00000E+00  9.000E+00
      21     1     1     2   501   511  4.461485784E+01  3.047154393E+01  1.658174286E+02  1.743973054E+02  3.303624740E-06  0.00000E+00  9.000E+00
#rwgt            1           1   3.8102480270618307E-002           2       32662           0
</event>
<event>
      5   9999  3.79277E-02  4.75554E+01 -1.00000E+00  1.40329E-01
      21    -1     0     0   502   501  0.000000000E+00  0.000000000E+00  4.272828664E+02  4.272828664E+02  0.000000000E+00  0.00000E+00  9.000E+00
      21    -1     0     0   501   512  0.000000000E+00  0.000000000E+00 -1.138193609E+02  1.138193609E+02  0.000000000E+00  0.00000E+00  9.000E+00
      25     1     1     2     0     0  3.023050633E+01  2.396995479E+00 -2.437820291E+00  1.286490267E+02  1.250000000E+02  0.00000E+00  9.000E+00
      25     1     1     2     0     0 -3.945910888E+01 -4.904839515E+01  3.335544994E+02  3.617269280E+02  1.250000000E+02  0.00000E+00  9.000E+00
      21     1     1     2   502   512  9.228602543E+00  4.665139967E+01 -1.765317359E+01  5.072627262E+01  5.840038640E-07  0.00000E+00  9.000E+00
#rwgt            1           1   2.8063199009715697E-002           2       32836           0
</event>
<event>
      5   9999  3.79277E-02  1.64823E+01 -1.00000E+00  1.73613E-01
      21    -1     0     0   502   501  0.000000000E+00  0.000000000E+00  2.219200060E+02  2.219200060E+02  0.000000000E+00  0.00000E+00  9.000E+00
      21    -1     0     0   501   511  0.000000000E+00  0.000000000E+00 -5.064270432E+02  5.064270432E+02  0.000000000E+00  0.00000E+00  9.000E+00
      25     1     1     2     0     0  1.370147734E+02 -1.506482306E+01  1.310689529E+02  2.276050691E+02  1.250000000E+02  0.00000E+00  9.000E+00
      25     1     1     2     0     0 -1.238857490E+02  2.502955474E+01 -1.442782879E+02  2.289440582E+02  1.250000000E+02  0.00000E+00  9.000E+00
      21     1     1     2   502   511 -1.312902442E+01 -9.964731686E+00 -2.712977022E+02  2.717979220E+02  0.000000000E+00  0.00000E+00  9.000E+00
#rwgt            1           1   4.3538794806811960E-003           2       33064           0
</event>
<event>
      5   9999  3.79277E-02  7.11700E+00 -1.00000E+00  2.14541E-01
      21    -1     0     0   512   501  0.000000000E+00  0.000000000E+00  1.004441387E+02  1.004441387E+02  0.000000000E+00  0.00000E+00  9.000E+00
      21    -1     0     0   501   502  0.000000000E+00  0.000000000E+00 -3.321870560E+02  3.321870560E+02  0.000000000E+00  0.00000E+00  9.000E+00
      25     1     1     2     0     0 -1.416678145E+01  7.001354929E+01 -2.431559585E+02  2.825816960E+02  1.250000000E+02  0.00000E+00  9.000E+00
      25     1     1     2     0     0  7.340674409E+00 -6.799961363E+01  1.123531269E+01  1.429302809E+02  1.250000000E+02  0.00000E+00  9.000E+00
      21     1     1     2   512   502  6.826107045E+00 -2.013935667E+00  1.777285161E-01  7.119217772E+00  9.189468908E-08  0.00000E+00  9.000E+00
#rwgt            1           1   3.0270939435478268E-002           2       33345           0
</event>
<event>
      5   9999  3.79277E-02  1.04921E+01 -1.00000E+00  1.93376E-01
      21    -1     0     0   502   501  0.000000000E+00  0.000000000E+00  5.404035056E+01  5.404035056E+01  0.000000000E+00  0.00000E+00  9.000E+00
      21    -1     0     0   501   511  0.000000000E+00  0.000000000E+00 -4.958708735E+02  4.958708735E+02  0.000000000E+00  0.00000E+00  9.000E+00
      25     1     1     2     0     0 -5.458921249E+01 -2.565895375E+01 -3.323593388E+02  3.601750881E+02  1.250000000E+02  0.00000E+00  9.000E+00
      25     1     1     2     0     0  5.348244217E+01  3.609248129E+01 -8.824352109E+01  1.660570921E+02  1.250000000E+02  0.00000E+00  9.000E+00
      21     1     1     2   502   511  1.106770328E+00 -1.043352754E+01 -2.122766302E+01  2.367904379E+01  3.371747881E-07  0.00000E+00  9.000E+00
#rwgt            1           1   3.9013778746497155E-002           2       33804           0
</event>
<event>
      5   9999  3.79277E-02  5.30810E+01 -1.00000E+00  1.37610E-01
      21    -1     0     0   502   501  0.000000000E+00  0.000000000E+00  5.460363372E+02  5.460363372E+02  0.000000000E+00  0.00000E+00  9.000E+00
       1    -1     0     0   501     0  0.000000000E+00  0.000000000E+00 -1.893526477E+02  1.893526477E+02  0.000000000E+00  0.00000E+00  9.000E+00
      25     1     1     2     0     0 -1.166398957E+02  8.279193160E+01  1.815477688E+02  2.627621768E+02  1.250000000E+02  0.00000E+00  9.000E+00
      25     1     1     2     0     0  1.362119756E+02 -3.345105809E+01  2.903154312E+02  3.458044609E+02  1.250000000E+02  0.00000E+00  9.000E+00
       1     1     1     2   502     0 -1.957207985E+01 -4.934087351E+01 -1.151795105E+02  1.268223472E+02  0.000000000E+00  0.00000E+00  9.000E+00
#rwgt            1           1   4.3357274601759171E-002           2       34005           0
</event>
<event>
      5   9999  3.79277E-02  8.69234E+00 -1.00000E+00  2.03067E-01
      21    -1     0     0   502   501  0.000000000E+00  0.000000000E+00  7.086704292E+01  7.086704292E+01  0.000000000E+00  0.00000E+00  9.000E+00
      21    -1     0     0   501   511  0.000000000E+00  0.000000000E+00 -4.916031422E+02  4.916031422E+02  0.000000000E+00  0.00000E+00  9.000E+00
      25     1     1     2     0     0  2.870273632E+01  6.621405976E+01 -3.814263202E+01  1.492916915E+02  1.250000000E+02  0.00000E+00  9.000E+00
      25     1     1     2     0     0 -3.736576744E+01 -6.550083693E+01 -3.454156513E+02  3.749980432E+02  1.250000000E+02  0.00000E+00  9.000E+00
      21     1     1     2   502   511  8.663031124E+00 -7.132228263E-01 -3.717781598E+01  3.818045044E+01  0.000000000E+00  0.00000E+00  9.000E+00
#rwgt            1           1   4.1097534550490984E-002           2       34509           0
</event>
<event>
      5   9999  3.79277E-02  6.56410E+01 -1.00000E+00  1.32651E-01
      21    -1     0     0   502   501  0.000000000E+00  0.000000000E+00  5.035344557E+02  5.035344557E+02  0.000000000E+00  0.00000E+00  9.000E+00
      21    -1     0     0   501   512  0.000000000E+00  0.000000000E+00 -1.447602500E+02  1.447602500E+02  0.000000000E+00  0.00000E+00  9.000E+00
      25     1     1     2     0     0  4.977122041E+01  5.127844085E+01 -5.007663644E+01  1.524444895E+02  1.250000000E+02  0.00000E+00  9.000E+00
      25     1     1     2     0     0 -3.784113758E+01  1.326933341E+01  4.096856935E+02  4.302038985E+02  1.250000000E+02  0.00000E+00  9.000E+00
      21     1     1     2   502   512 -1.193008283E+01 -6.454777426E+01 -8.348512927E-01  6.564631761E+01  8.120107477E-07  0.00000E+00  9.000E+00
#rwgt            1           1   3.3330040257524056E-002           2       34783           0
</event>
<event>
      5   9999  3.79277E-02  3.11587E+01 -1.00000E+00  1.51905E-01
      21    -1     0     0   502   501  0.000000000E+00  0.000000000E+00  2.470569122E+02  2.470569122E+02  0.000000000E+00  0.00000E+00  9.000E+00
      21    -1     0     0   511   502  0.000000000E+00  0.000000000E+00 -3.173825453E+02  3.173825453E+02  0.000000000E+00  0.00000E+00  9.000E+00
      25     1     1     2     0     0 -9.191993737E+01 -6.710122131E+01 -1.059183206E+00  1.690502016E+02  1.250000000E+02  0.00000E+00  9.000E+00
      25     1     1     2     0     0  7.582484196E+01  9.378098144E+01  1.151261419E+02  2.083825993E+02  1.250000000E+02  0.00000E+00  9.000E+00
      21     1     1     2   511   501  1.609509541E+01 -2.667976013E+01 -1.843925918E+02  1.870066566E+02  2.697398305E-06  0.00000E+00  9.000E+00
#rwgt            1           1   4.1468231425353129E-002           2       34936           0
</event>
<event>
      5   9999  3.79277E-02  7.22817E+01 -1.00000E+00  1.30519E-01
      21    -1     0     0   502   512  0.000000000E+00  0.000000000E+00  4.307418202E+01  4.307418202E+01  0.000000000E+00  0.00000E+00  9.000E+00
      21    -1     0     0   501   502  0.000000000E+00  0.000000000E+00 -2.558370293E+03  2.558370293E+03  0.000000000E+00  0.00000E+00  9.000E+00
      25     1     1     2     0     0  2.237766806E+02 -1.281907117E+02 -1.770488161E+03  1.793533437E+03  1.250000000E+02  0.00000E+00  9.000E+00
      25     1     1     2     0     0 -1.919690135E+02  6.328377873E+01 -5.192352599E+02  5.710404486E+02  1.250000000E+02  0.00000E+00  9.000E+00
      21     1     1     2   501   512 -3.180766710E+01  6.490693296E+01 -2.255726893E+02  2.368705887E+02  3.814697266E-06  0.00000E+00  9.000E+00
#rwgt            1           1   9.3355696565020296E-002           2       35125           0
</event>
<event>
      5   9999  3.79277E-02  1.36021E+01 -1.00000E+00  1.81482E-01
      21    -1     0     0   502   511  0.000000000E+00  0.000000000E+00  8.819432295E+01  8.819432295E+01  0.000000000E+00  0.00000E+00  9.000E+00
      21    -1     0     0   501   502  0.000000000E+00  0.000000000E+00 -4.716279605E+02  4.716279605E+02  0.000000000E+00  0.00000E+00  9.000E+00
      25     1     1     2     0     0 -1.000820031E+01  1.477003849E+02 -1.285537101E+02  2.325223089E+02  1.250000000E+02  0.00000E+00  9.000E+00
      25     1     1     2     0     0  1.071647075E+01 -1.341167812E+02 -2.543061979E+02  3.136858238E+02  1.250000000E+02  0.00000E+00  9.000E+00
      21     1     1     2   501   511 -7.082704425E-01 -1.358360369E+01 -5.737295832E-01  1.361415080E+01  2.389999469E-07  0.00000E+00  9.000E+00
#rwgt            1           1   4.9634212869184124E-002           2       35260           0
</event>
<event>
      5   9999  3.79277E-02  4.68671E+01 -1.00000E+00  1.40698E-01
      21    -1     0     0   512   501  0.000000000E+00  0.000000000E+00  7.709459770E+01  7.709459770E+01  0.000000000E+00  0.00000E+00  9.000E+00
      21    -1     0     0   501   502  0.000000000E+00  0.000000000E+00 -7.544769442E+02  7.544769442E+02  0.000000000E+00  0.00000E+00  9.000E+00
      25     1     1     2     0     0  3.057819419E+01  1.372020704E+02 -4.499898850E+02  4.877246464E+02  1.250000000E+02  0.00000E+00  9.000E+00
      25     1     1     2     0     0  1.369036678E+01 -1.525911601E+02 -2.210053230E+02  2.965465243E+02  1.250000000E+02  0.00000E+00  9.000E+00
      21     1     1     2   512   502 -4.426856097E+01  1.538908976E+01 -6.387138436E+00  4.730037115E+01  1.685873940E-07  0.00000E+00  9.000E+00
#rwgt            1           1   2.6103908970376486E-002           2       35553           0
</event>
<event>
      5   9999  3.79277E-02  1.33652E+01 -1.00000E+00  1.82239E-01
      21    -1     0     0   511   501  0.000000000E+00  0.000000000E+00  1.281508203E+03  1.281508203E+03  0.000000000E+00  0.00000E+00  9.000E+00
      21    -1     0     0   501   502  0.000000000E+00  0.000000000E+00 -4.119265476E+01  4.119265476E+01  0.000000000E+00  0.00000E+00  9.000E+00
      25     1     1     2     0     0  1.252275341E+02 -1.283586013E+02  6.990886962E+02  7.324669760E+02  1.250000000E+02  0.00000E+00  9.000E+00
      25     1     1     2     0     0 -1.276038332E+02  1.152063065E+02  4.458547232E+02  4.939298184E+02  1.250000000E+02  0.00000E+00  9.000E+00
      21     1     1     2   511   502  2.376299081E+00  1.315229487E+01  9.537212895E+01  9.630406346E+01  1.907348633E-06  0.00000E+00  9.000E+00
#rwgt            1           1   4.4523204855414035E-002           2       35629           0
</event>
<event>
      5   9999  3.79277E-02  3.56705E+01 -1.00000E+00  1.47995E-01
      21    -1     0     0   502   501  0.000000000E+00  0.000000000E+00  2.928181609E+03  2.928181609E+03  0.000000000E+00  0.00000E+00  9.000E+00
      21    -1     0     0   512   502  0.000000000E+00  0.000000000E+00 -4.854943311E+01  4.854943311E+01  0.000000000E+00  0.00000E+00  9.000E+00
      25     1     1     2     0     0  7.805102576E+01 -3.206203817E+01  1.006997324E+03  1.018228141E+03  1.250000000E+02  0.00000E+00  9.000E+00
      25     1     1     2     0     0 -5.483043518E+01  5.913949880E+01  1.904723164E+03  1.910523276E+03  1.250000000E+02  0.00000E+00  9.000E+00
      21     1     1     2   512   501 -2.322059058E+01 -2.707746063E+01 -3.208831166E+01  4.797962532E+01  4.720447033E-06  0.00000E+00  9.000E+00
#rwgt            1           1   2.8935535684688089E-002           2       35868           0
</event>
<event>
      5   9999  3.79277E-02  3.91063E+01 -1.00000E+00  1.45451E-01
      21    -1     0     0   502   501  0.000000000E+00  0.000000000E+00  1.261005032E+02  1.261005032E+02  0.000000000E+00  0.00000E+00  9.000E+00
      21    -1     0     0   501   511  0.000000000E+00  0.000000000E+00 -4.953715581E+02  4.953715581E+02  0.000000000E+00  0.00000E+00  9.000E+00
      25     1     1     2     0     0 -1.484815208E+01 -7.267315601E+01  3.461468605E+01  1.494156341E+02  1.250000000E+02  0.00000E+00  9.000E+00
      25     1     1     2     0     0 -1.044719209E+01  1.024967699E+02 -1.695989800E+02  2.345283473E+02  1.250000000E+02  0.00000E+00  9.000E+00
      21     1     1     2   502   511  2.529534417E+01 -2.982361390E+01 -2.342867610E+02  2.375280799E+02  2.697398305E-06  0.00000E+00  9.000E+00
#rwgt            1           1   3.7496226964129513E-002           2       36090           0
</event>
<event>
      5   9999  3.79277E-02  3.82559E+02 -1.00000E+00  1.02271E-01
       3    -1     0     0   502     0  0.000000000E+00  0.000000000E+00  2.748772027E+03  2.748772027E+03  0.000000000E+00  0.00000E+00  9.000E+00
      21    -1     0     0   501   502  0.000000000E+00  0.000000000E+00 -2.092288176E+02  2.092288176E+02  0.000000000E+00  0.00000E+00  9.000E+00
      25     1     1     2     0     0 -2.133104415E+01 -1.049982692E+02  9.296333978E+02  9.440989907E+02  1.250000000E+02  0.00000E+00  9.000E+00
      25     1     1     2     0     0 -3.120001996E+02 -8.272970657E+01 -1.312629836E+01  3.463894176E+02  1.250000000E+02  0.00000E+00  9.000E+00
       3     1     1     2   501     0  3.333312438E+02  1.877279758E+02  1.623036110E+03  1.667512437E+03  0.000000000E+00  0.00000E+00  9.000E+00
#rwgt            1           1   3.8874512332821402E-002           2       36151           0
</event>
<event>
      5   9999  3.79277E-02  1.62415E+01 -1.00000E+00  1.74191E-01
      21    -1     0     0   502   501  0.000000000E+00  0.000000000E+00  1.519569985E+02  1.519569985E+02  0.000000000E+00  0.00000E+00  9.000E+00
      21    -1     0     0   501   511  0.000000000E+00  0.000000000E+00 -4.319803736E+02  4.319803736E+02  0.000000000E+00  0.00000E+00  9.000E+00
      25     1     1     2     0     0 -2.329709230E+00  1.449208614E+02  5.098488162E+01  1.980705475E+02  1.250000000E+02  0.00000E+00  9.000E+00
      25     1     1     2     0     0  4.533420192E-01 -1.287881282E+02 -2.822976870E+02  3.345199121E+02  1.250000000E+02  0.00000E+00  9.000E+00
      21     1     1     2   502   511  1.876367211E+00 -1.613273320E+01 -4.871056973E+01  5.134691264E+01  0.000000000E+00  0.00000E+00  9.000E+00
#rwgt            1           1   4.3357377867644480E-002           2       36190           0
</event>
<event>
      5   9999  3.79277E-02  6.08273E+01 -1.00000E+00  1.34386E-01
      21    -1     0     0   502   501  0.000000000E+00  0.000000000E+00  6.010596915E+02  6.010596915E+02  0.000000000E+00  0.00000E+00  9.000E+00
      21    -1     0     0   512   502  0.000000000E+00  0.000000000E+00 -3.302039045E+02  3.302039045E+02  0.000000000E+00  0.00000E+00  9.000E+00
      25     1     1     2     0     0  2.995627863E+02  2.253664397E+02  1.696824124E+02  4.300523412E+02  1.250000000E+02  0.00000E+00  9.000E+00
      25     1     1     2     0     0 -2.909732748E+02 -2.855841921E+02  1.082815023E+02  4.399700685E+02  1.250000000E+02  0.00000E+00  9.000E+00
      21     1     1     2   512   501 -8.589511596E+00  6.021775246E+01 -7.108127757E+00  6.124118632E+01  1.221531721E-06  0.00000E+00  9.000E+00
#rwgt            1           1   3.6966641459613758E-002           2       36399           0
</event>
<event>
      5   9999  3.79277E-02  7.01101E+01 -1.00000E+00  1.31186E-01
      21    -1     0     0   511   501  0.000000000E+00  0.000000000E+00  8.307118482E+02  8.307118482E+02  0.000000000E+00  0.00000E+00  9.000E+00
      21    -1     0     0   501   502  0.000000000E+00  0.000000000E+00 -1.578899024E+02  1.578899024E+02  0.000000000E+00  0.00000E+00  9.000E+00
      25     1     1     2     0     0 -8.104863691E+00 -2.310135912E+02  1.524084187E+02  3.037865932E+02  1.250000000E+02  0.00000E+00  9.000E+00
      25     1     1     2     0     0  5.347204334E+01  2.844668258E+02  2.412923648E+02  3.970234750E+02  1.250000000E+02  0.00000E+00  9.000E+00
      21     1     1     2   511   502 -4.536717964E+01 -5.345323458E+01  2.791211622E+02  2.877916824E+02  0.000000000E+00  0.00000E+00  9.000E+00
#rwgt            1           1   3.6926100573360009E-002           2       36517           0
</event>
<event>
      5   9999  3.79277E-02  2.61067E+01 -1.00000E+00  1.57355E-01
      21    -1     0     0   512   501  0.000000000E+00  0.000000000E+00  1.782337481E+02  1.782337481E+02  0.000000000E+00  0.00000E+00  9.000E+00
      21    -1     0     0   501   502  0.000000000E+00  0.000000000E+00 -2.474648738E+02  2.474648738E+02  0.000000000E+00  0.00000E+00  9.000E+00
      25     1     1     2     0     0 -8.569565486E+01  1.114507259E+02 -9.335432945E+01  2.100120006E+02  1.250000000E+02  0.00000E+00  9.000E+00
      25     1     1     2     0     0  6.119466602E+01 -1.204653323E+02  6.492607923E+00  1.841842485E+02  1.250000000E+02  0.00000E+00  9.000E+00
      21     1     1     2   512   502  2.450098884E+01  9.014606441E+00  1.763059574E+01  3.150237276E+01  2.384185791E-07  0.00000E+00  9.000E+00
#rwgt            1           1   2.0067110645118524E-002           2       36647           0
</event>
<event>
      5   9999  3.79277E-02  3.65370E+01 -1.00000E+00  1.47322E-01
      21    -1     0     0   502   511  0.000000000E+00  0.000000000E+00  1.919773061E+03  1.919773061E+03  0.000000000E+00  0.00000E+00  9.000E+00
      21    -1     0     0   501   502  0.000000000E+00  0.000000000E+00 -2.614885378E+02  2.614885378E+02  0.000000000E+00  0.00000E+00  9.000E+00
      25     1     1     2     0     0  4.779997217E+02 -2.162636497E+02  9.875644552E+02  1.125238754E+03  1.250000000E+02  0.00000E+00  9.000E+00
      25     1     1     2     0     0 -5.142301561E+02  2.115403002E+02  2.312677282E+02  6.150542367E+02  1.250000000E+02  0.00000E+00  9.000E+00
      21     1     1     2   501   511  3.623043437E+01  4.723349578E+00  4.394523395E+02  4.409686079E+02  9.344061824E-06  0.00000E+00  9.000E+00
#rwgt            1           1   1.1908964242253095E-002           2       36852           0
</event>
<event>
      5   9999  3.79277E-02  8.67347E+01 -1.00000E+00  1.26673E-01
      21    -1     0     0   502   501  0.000000000E+00  0.000000000E+00  2.159277884E+02  2.159277884E+02  0.000000000E+00  0.00000E+00  9.000E+00
      21    -1     0     0   501   512  0.000000000E+00  0.000000000E+00 -3.587992787E+02  3.587992787E+02  0.000000000E+00  0.00000E+00  9.000E+00
      25     1     1     2     0     0 -1.534561215E+02 -3.316145559E+01 -7.450271179E+01  2.140656848E+02  1.250000000E+02  0.00000E+00  9.000E+00
      25     1     1     2     0     0  6.768010211E+01  4.602142846E+01  9.404080375E+01  1.765424619E+02  1.250000000E+02  0.00000E+00  9.000E+00
      21     1     1     2   502   512  8.577601936E+01 -1.285997287E+01 -1.624095823E+02  1.841189203E+02  2.697398305E-06  0.00000E+00  9.000E+00
#rwgt            1           1   2.6560662375138509E-002           2       36993           0
</event>
<event>
      5   9999 -3.79277E-02  5.55684E+01 -1.00000E+00  1.36509E-01
      21    -1     0     0   502   501  0.000000000E+00  0.000000000E+00  3.905011081E+02  3.905011081E+02  0.000000000E+00  0.00000E+00  9.000E+00
      21    -1     0     0   511   502  0.000000000E+00  0.000000000E+00 -5.029417314E+02  5.029417314E+02  0.000000000E+00  0.00000E+00  9.000E+00
      25     1     1     2     0     0  1.625094774E+02  2.591384077E+02  2.209208717E+02  3.974834288E+02  1.250000000E+02  0.00000E+00  9.000E+00
      25     1     1     2     0     0 -1.193341332E+02 -2.241564079E+02 -1.865610468E+02  3.389937385E+02  1.250000000E+02  0.00000E+00  9.000E+00
      21     1     1     2   511   501 -4.317534420E+01 -3.498199971E+01 -1.468004482E+02  1.569656722E+02  3.303624740E-06  0.00000E+00  9.000E+00
#rwgt            1           1 -0.38753669820596687                2       37062           0
</event>
<event>
      5   9999  3.79277E-02  8.56014E+01 -1.00000E+00  1.26943E-01
      21    -1     0     0   502   501  0.000000000E+00  0.000000000E+00  8.005824211E+02  8.005824211E+02  0.000000000E+00  0.00000E+00  9.000E+00
      21    -1     0     0   501   512  0.000000000E+00  0.000000000E+00 -1.567042655E+02  1.567042655E+02  0.000000000E+00  0.00000E+00  9.000E+00
      25     1     1     2     0     0  8.472917521E+01 -1.876816485E+02  2.211176895E+01  2.419036267E+02  1.250000000E+02  0.00000E+00  9.000E+00
      25     1     1     2     0     0  3.629429891E-01  1.970050052E+02  5.686188051E+02  6.146246410E+02  1.250000000E+02  0.00000E+00  9.000E+00
      21     1     1     2   502   512 -8.509211820E+01 -9.323356743E+00  5.314758160E+01  1.007584190E+02  1.348699152E-06  0.00000E+00  9.000E+00
#rwgt            1           1   3.9325335591689221E-002           2       37250           0
</event>
<event>
      5   9999  3.79277E-02  4.19320E+01 -1.00000E+00  1.43581E-01
      21    -1     0     0   502   501  0.000000000E+00  0.000000000E+00  4.725864859E+02  4.725864859E+02  0.000000000E+00  0.00000E+00  9.000E+00
      21    -1     0     0   501   511  0.000000000E+00  0.000000000E+00 -1.193977005E+02  1.193977005E+02  0.000000000E+00  0.00000E+00  9.000E+00
      25     1     1     2     0     0  2.340400325E+01  1.493542563E+01  3.815778155E+02  4.024890602E+02  1.250000000E+02  0.00000E+00  9.000E+00
      25     1     1     2     0     0 -5.651097759E+01  1.079830780E+01 -4.442959113E+01  1.445997324E+02  1.250000000E+02  0.00000E+00  9.000E+00
      21     1     1     2   502   511  3.310697434E+01 -2.573373343E+01  1.604056094E+01  4.489539377E+01  4.129530925E-07  0.00000E+00  9.000E+00
#rwgt            1           1   4.4105022692143128E-002           2       37344           0
</event>
<event>
      5   9999  3.79277E-02  5.40845E+01 -1.00000E+00  1.37157E-01
      21    -1     0     0   502   501  0.000000000E+00  0.000000000E+00  8.029238968E+02  8.029238968E+02  0.000000000E+00  0.00000E+00  9.000E+00
       2    -1     0     0   501     0  0.000000000E+00  0.000000000E+00 -2.009488222E+02  2.009488222E+02  0.000000000E+00  0.00000E+00  9.000E+00
      25     1     1     2     0     0 -7.075518532E+01 -1.744910371E+02  5.502472919E+02  5.948533437E+02  1.250000000E+02  0.00000E+00  9.000E+00
      25     1     1     2     0     0  1.169828378E+02  1.464171702E+02  1.678432855E+02  2.809258631E+02  1.250000000E+02  0.00000E+00  9.000E+00
       2     1     1     2   502     0 -4.622765253E+01  2.807386695E+01 -1.161155028E+02  1.280935121E+02  1.348699152E-06  0.00000E+00  9.000E+00
#rwgt            1           1   3.9676187963315339E-002           2       37606           0
</event>
<event>
      5   9999  3.79277E-02  6.00751E+01 -1.00000E+00  1.34674E-01
      21    -1     0     0   502   501  0.000000000E+00  0.000000000E+00  4.618242538E+02  4.618242538E+02  0.000000000E+00  0.00000E+00  9.000E+00
      21    -1     0     0   511   502  0.000000000E+00  0.000000000E+00 -3.051797148E+02  3.051797148E+02  0.000000000E+00  0.00000E+00  9.000E+00
      25     1     1     2     0     0 -4.553218909E+01  9.637940734E+01 -1.152608155E+02  2.006794110E+02  1.250000000E+02  0.00000E+00  9.000E+00
      25     1     1     2     0     0  4.273186554E+00 -1.400452709E+02  3.905475066E+02  4.333396969E+02  1.250000000E+02  0.00000E+00  9.000E+00
      21     1     1     2   511   501  4.125900254E+01  4.366586357E+01 -1.186421521E+02  1.329848607E+02  2.336015456E-06  0.00000E+00  9.000E+00
#rwgt            1           1   3.6682986747384211E-002           2       37705           0
</event>
<event>
      5   9999  3.79277E-02  5.19222E+01 -1.00000E+00  1.38147E-01
      21    -1     0     0   502   512  0.000000000E+00  0.000000000E+00  6.414681843E+01  6.414681843E+01  0.000000000E+00  0.00000E+00  9.000E+00
      21    -1     0     0   501   502  0.000000000E+00  0.000000000E+00 -2.488415936E+03  2.488415936E+03  0.000000000E+00  0.00000E+00  9.000E+00
      25     1     1     2     0     0 -3.277439677E+01  5.080035298E+01 -2.239631374E+03  2.243931489E+03  1.250000000E+02  0.00000E+00  9.000E+00
      25     1     1     2     0     0 -1.914360679E+01 -5.146358454E+01 -2.102862739E+02  2.507195549E+02  1.250000000E+02  0.00000E+00  9.000E+00
      21     1     1     2   501   512  5.191800356E+01  6.632315667E-01  2.564853101E+01  5.791170964E+01  1.719260824E-06  0.00000E+00  9.000E+00
#rwgt            1           1   7.4722125099903308E-002           2       37808           0
</event>
<event>
      5   9999 -3.79277E-02  1.63827E+02 -1.00000E+00  1.14896E-01
       3    -1     0     0   502     0  0.000000000E+00  0.000000000E+00  1.671245595E+03  1.671245595E+03  0.000000000E+00  0.00000E+00  9.000E+00
      21    -1     0     0   501   502  0.000000000E+00  0.000000000E+00 -2.290154759E+02  2.290154759E+02  0.000000000E+00  0.00000E+00  9.000E+00
      25     1     1     2     0     0  4.622074645E+01 -1.076323071E+02  1.257397248E+01  1.717677959E+02  1.250000000E+02  0.00000E+00  9.000E+00
      25     1     1     2     0     0 -4.161736534E+01  2.713941494E+02  1.254334869E+01  3.019422545E+02  1.250000000E+02  0.00000E+00  9.000E+00
       3     1     1     2   501     0 -4.603381104E+00 -1.637618423E+02  1.417112798E+03  1.426551021E+03  0.000000000E+00  0.00000E+00  9.000E+00
#rwgt            1           1 -0.11383850246761400                2       37941           0
</event>
<event>
      5   9999  3.79277E-02  4.74841E+01 -1.00000E+00  1.40367E-01
      21    -1     0     0   502   501  0.000000000E+00  0.000000000E+00  4.395168492E+02  4.395168492E+02  0.000000000E+00  0.00000E+00  9.000E+00
      21    -1     0     0   501   511  0.000000000E+00  0.000000000E+00 -1.140254874E+02  1.140254874E+02  0.000000000E+00  0.00000E+00  9.000E+00
      25     1     1     2     0     0 -1.046231442E+02 -1.229730444E+01  3.120538816E+02  3.522780877E+02  1.250000000E+02  0.00000E+00  9.000E+00
      25     1     1     2     0     0  7.700918865E+01 -2.633184340E+01  2.764445644E+01  1.517003529E+02  1.250000000E+02  0.00000E+00  9.000E+00
      21     1     1     2   502   511  2.761395556E+01  3.862914784E+01 -1.420697628E+01  4.956389592E+01  1.685873940E-07  0.00000E+00  9.000E+00
#rwgt            1           1   4.9292693479016665E-002           2       38000           0
</event>
<event>
      5   9999  3.79277E-02  2.20443E+01 -1.00000E+00  1.62956E-01
      21    -1     0     0   502   512  0.000000000E+00  0.000000000E+00  6.154860041E+01  6.154860041E+01  0.000000000E+00  0.00000E+00  9.000E+00
      21    -1     0     0   501   502  0.000000000E+00  0.000000000E+00 -1.156543608E+03  1.156543608E+03  0.000000000E+00  0.00000E+00  9.000E+00
      25     1     1     2     0     0  1.119202840E+02 -1.439780943E+02 -2.325115580E+02  3.208464838E+02  1.250000000E+02  0.00000E+00  9.000E+00
      25     1     1     2     0     0 -1.293589467E+02  1.304930952E+02 -8.172488449E+02  8.469255336E+02  1.250000000E+02  0.00000E+00  9.000E+00
      21     1     1     2   501   512  1.743866270E+01  1.348499908E+01 -4.523460476E+01  5.032019102E+01  4.768371582E-07  0.00000E+00  9.000E+00
#rwgt            1           1  0.12038931964667277                2       38060           0
</event>
<event>
      5   9999  3.79277E-02  3.16165E+01 -1.00000E+00  1.51473E-01
      21    -1     0     0   502   501  0.000000000E+00  0.000000000E+00  5.805416219E+02  5.805416219E+02  0.000000000E+00  0.00000E+00  9.000E+00
      21    -1     0     0   501   511  0.000000000E+00  0.000000000E+00 -9.030141501E+01  9.030141501E+01  0.000000000E+00  0.00000E+00  9.000E+00
      25     1     1     2     0     0  5.094852845E+01  9.468519563E+01  7.308406095E+01  1.803533165E+02  1.250000000E+02  0.00000E+00  9.000E+00
      25     1     1     2     0     0 -6.985004183E+01 -1.200295617E+02  4.190484150E+02  4.588166280E+02  1.250000000E+02  0.00000E+00  9.000E+00
      21     1     1     2   502   511  1.890151338E+01  2.534436607E+01 -1.892269030E+00  3.167309239E+01  7.782915149E-07  0.00000E+00  9.000E+00
#rwgt            1           1   3.1610570703559215E-002           2       38234           0
</event>
<event>
      5   9999  3.79277E-02  5.74679E+01 -1.00000E+00  1.35712E-01
      21    -1     0     0   502   501  0.000000000E+00  0.000000000E+00  8.337482237E+02  8.337482237E+02  0.000000000E+00  0.00000E+00  9.000E+00
      21    -1     0     0   512   502  0.000000000E+00  0.000000000E+00 -6.817665519E+02  6.817665519E+02  0.000000000E+00  0.00000E+00  9.000E+00
      25     1     1     2     0     0 -3.722264555E+02  3.883419183E+00  8.187289542E+01  4.011181697E+02  1.250000000E+02  0.00000E+00  9.000E+00
      25     1     1     2     0     0  3.429158501E+02 -5.331469327E+01  5.328697603E+02  6.480809503E+02  1.250000000E+02  0.00000E+00  9.000E+00
      21     1     1     2   512   501  2.931060536E+01  4.943127409E+01 -4.627609839E+02  4.663156556E+02  9.344061824E-06  0.00000E+00  9.000E+00
#rwgt            1           1   5.9126416214894735E-002           2       38472           0
</event>
<event>
      5   9999  3.79277E-02  5.30670E+01 -1.00000E+00  1.37616E-01
      21    -1     0     0   502   501  0.000000000E+00  0.000000000E+00  7.661166887E+01  7.661166887E+01  0.000000000E+00  0.00000E+00  9.000E+00
      21    -1     0     0   501   511  0.000000000E+00  0.000000000E+00 -2.220640567E+03  2.220640567E+03  0.000000000E+00  0.00000E+00  9.000E+00
      25     1     1     2     0     0  2.160958842E+02  1.603798295E+02 -1.223849095E+03  1.259305653E+03  1.250000000E+02  0.00000E+00  9.000E+00
      25     1     1     2     0     0 -2.528132190E+02 -1.220660560E+02 -3.519116491E+02  4.672060086E+02  1.250000000E+02  0.00000E+00  9.000E+00
      21     1     1     2   502   511  3.671733477E+01 -3.831377355E+01 -5.682681548E+02  5.707405748E+02  7.629394531E-06  0.00000E+00  9.000E+00
#rwgt            1           1   3.0812558574074965E-002           2       38748           0
</event>
<event>
      5   9999  3.79277E-02  9.11384E+01 -1.00000E+00  1.25668E-01
      21    -1     0     0   502   501  0.000000000E+00  0.000000000E+00  6.698082862E+01  6.698082862E+01  0.000000000E+00  0.00000E+00  9.000E+00
       2    -1     0     0   501     0  0.000000000E+00  0.000000000E+00 -1.677355700E+03  1.677355700E+03  0.000000000E+00  0.00000E+00  9.000E+00
      25     1     1     2     0     0 -1.529790229E+02  2.192509050E+02 -8.460847373E+02  8.960791949E+02  1.250000000E+02  0.00000E+00  9.000E+00
      25     1     1     2     0     0  6.185750763E+01 -2.210069151E+02 -4.434761296E+02  5.147489536E+02  1.250000000E+02  0.00000E+00  9.000E+00
       2     1     1     2   502     0  9.112151524E+01  1.756010146E+00 -3.208140041E+02  3.335083797E+02  7.629394531E-06  0.00000E+00  9.000E+00
#rwgt            1           1   3.1263041849508552E-002           2       38901           0
</event>
<event>
      5   9999  3.79277E-02  6.03163E+01 -1.00000E+00  1.34581E-01
       2    -1     0     0   502     0  0.000000000E+00  0.000000000E+00  1.284669597E+03  1.284669597E+03  0.000000000E+00  0.00000E+00  9.000E+00
      21    -1     0     0   501   502  0.000000000E+00  0.000000000E+00 -5.249861111E+02  5.249861111E+02  0.000000000E+00  0.00000E+00  9.000E+00
      25     1     1     2     0     0 -7.516130524E+01  9.312700820E+01  5.564829923E+00  1.731410662E+02  1.250000000E+02  0.00000E+00  9.000E+00
      25     1     1     2     0     0  8.031109898E+01 -3.303094512E+01 -4.272789886E+02  4.535782734E+02  1.250000000E+02  0.00000E+00  9.000E+00
       2     1     1     2   501     0 -5.149793739E+00 -6.009606308E+01  1.181397644E+03  1.182936368E+03  1.525878906E-05  0.00000E+00  9.000E+00
#rwgt            1           1   3.0166391055732805E-002           2       39055           0
</event>
<event>
      5   9999  3.79277E-02  2.22675E+01 -1.00000E+00  1.62610E-01
      21    -1     0     0   502   511  0.000000000E+00  0.000000000E+00  5.821289265E+02  5.821289265E+02  0.000000000E+00  0.00000E+00  9.000E+00
      21    -1     0     0   501   502  0.000000000E+00  0.000000000E+00 -7.906062835E+01  7.906062835E+01  0.000000000E+00  0.00000E+00  9.000E+00
      25     1     1     2     0     0  1.339059720E+02 -2.920838545E+01  1.360694724E+02  2.300518211E+02  1.250000000E+02  0.00000E+00  9.000E+00
      25     1     1     2     0     0 -1.526360900E+02  4.125106520E+01  3.081105918E+02  3.681800689E+02  1.250000000E+02  0.00000E+00  9.000E+00
      21     1     1     2   501   511  1.873011801E+01 -1.204267975E+01  5.888823395E+01  6.295766477E+01  9.536743164E-07  0.00000E+00  9.000E+00
#rwgt            1           1   3.6459645355894570E-002           2       39188           0
</event>
<event>
      5   9999  3.79277E-02  2.12130E+01 -1.00000E+00  1.64286E-01
      21    -1     0     0   502   501  0.000000000E+00  0.000000000E+00  9.204813876E+01  9.204813876E+01  0.000000000E+00  0.00000E+00  9.000E+00
      21    -1     0     0   501   512  0.000000000E+00  0.000000000E+00 -5.306194414E+02  5.306194414E+02  0.000000000E+00  0.00000E+00  9.000E+00
      25     1     1     2     0     0 -1.517415546E+02  8.069954548E+01 -2.814433616E+02  3.526659636E+02  1.250000000E+02  0.00000E+00  9.000E+00
      25     1     1     2     0     0  1.306986406E+02 -7.801871300E+01 -1.319353853E+02  2.370675012E+02  1.250000000E+02  0.00000E+00  9.000E+00
      21     1     1     2   502   512  2.104291400E+01 -2.680832488E+00 -2.519255568E+01  3.293411535E+01  3.371747881E-07  0.00000E+00  9.000E+00
#rwgt            1           1   3.3694566143586062E-002           2       39479           0
</event>
<event>
      5   9999  3.79277E-02  5.43174E+01 -1.00000E+00  1.37054E-01
      21    -1     0     0   511   501  0.000000000E+00  0.000000000E+00  4.315365601E+02  4.315365601E+02  0.000000000E+00  0.00000E+00  9.000E+00
      21    -1     0     0   501   502  0.000000000E+00  0.000000000E+00 -1.289206852E+02  1.289206852E+02  0.000000000E+00  0.00000E+00  9.000E+00
      25     1     1     2     0     0  1.141869201E+02  8.408642368E+01  1.526620660E+02  2.429812457E+02  1.250000000E+02  0.00000E+00  9.000E+00
      25     1     1     2     0     0 -6.557719831E+01 -5.984851535E+01 -4.872542384E+00  1.533980293E+02  1.250000000E+02  0.00000E+00  9.000E+00
      21     1     1     2   511   502 -4.860972183E+01 -2.423790833E+01  1.548263514E+02  1.640779703E+02  1.907348633E-06  0.00000E+00  9.000E+00
#rwgt            1           1   3.6084763234771743E-002           2       39607           0
</event>
<event>
      5   9999  3.79277E-02  1.82728E+02 -1.00000E+00  1.13095E-01
      21    -1     0     0   512   501  0.000000000E+00  0.000000000E+00  5.795505853E+02  5.795505853E+02  0.000000000E+00  0.00000E+00  9.000E+00
      21    -1     0     0   501   502  0.000000000E+00  0.000000000E+00 -9.851993943E+02  9.851993943E+02  0.000000000E+00  0.00000E+00  9.000E+00
      25     1     1     2     0     0  2.821497584E+02  1.626571677E+01 -4.390828971E+02  5.369281612E+02  1.250000000E+02  0.00000E+00  9.000E+00
      25     1     1     2     0     0 -1.246209131E+02  7.633213083E+01 -4.616446744E+02  5.000977621E+02  1.250000000E+02  0.00000E+00  9.000E+00
      21     1     1     2   512   502 -1.575288453E+02 -9.259784761E+01  4.950787625E+02  5.277240563E+02  7.629394531E-06  0.00000E+00  9.000E+00
#rwgt            1           1   3.5436894922781528E-002           2       39817           0
</event>
<event>
      5   9999  3.79277E-02  3.93080E+01 -1.00000E+00  1.45312E-01
      21    -1     0     0   502   511  0.000000000E+00  0.000000000E+00  4.081318323E+01  4.081318323E+01  0.000000000E+00  0.00000E+00  9.000E+00
      21    -1     0     0   501   502  0.000000000E+00  0.000000000E+00 -1.711971305E+03  1.711971305E+03  0.000000000E+00  0.00000E+00  9.000E+00
      25     1     1     2     0     0 -7.053976805E+01  5.259118581E+01 -1.285977131E+03  1.295030452E+03  1.250000000E+02  0.00000E+00  9.000E+00
      25     1     1     2     0     0  3.566884287E+01 -7.073333936E+01 -3.909527469E+02  4.180245471E+02  1.250000000E+02  0.00000E+00  9.000E+00
      21     1     1     2   501   511  3.487092518E+01  1.814215354E+01  5.771755402E+00  3.972948928E+01  1.782168911E-06  0.00000E+00  9.000E+00
#rwgt            1           1   5.6950515685791674E-002           2       39915           0
</event>
<event>
      5   9999  3.79277E-02  1.19228E+02 -1.00000E+00  1.20487E-01
      21    -1     0     0   512   501  0.000000000E+00  0.000000000E+00  2.303730823E+02  2.303730823E+02  0.000000000E+00  0.00000E+00  9.000E+00
      21    -1     0     0   501   502  0.000000000E+00  0.000000000E+00 -6.345433925E+02  6.345433925E+02  0.000000000E+00  0.00000E+00  9.000E+00
      25     1     1     2     0     0 -6.175331051E+01  1.686278012E+02 -5.220136392E+02  5.660141750E+02  1.250000000E+02  0.00000E+00  9.000E+00
      25     1     1     2     0     0  7.702793878E+01 -5.038207137E+01  6.054289037E+01  1.666196208E+02  1.250000000E+02  0.00000E+00  9.000E+00
      21     1     1     2   512   502 -1.527462826E+01 -1.182457298E+02  5.730043873E+01  1.322826790E+02  2.861022949E-06  0.00000E+00  9.000E+00
#rwgt            1           1   3.6318484352549273E-002           2       40124           0
</event>
<event>
      5   9999  3.79277E-02  1.37977E+01 -1.00000E+00  1.80871E-01
      21    -1     0     0   502   511  0.000000000E+00  0.000000000E+00  8.902425519E+01  8.902425519E+01  0.000000000E+00  0.00000E+00  9.000E+00
      21    -1     0     0   501   502  0.000000000E+00  0.000000000E+00 -3.283422651E+02  3.283422651E+02  0.000000000E+00  0.00000E+00  9.000E+00
      25     1     1     2     0     0 -5.880896443E+00 -1.127725728E+01 -2.137091188E+02  2.479079445E+02  1.250000000E+02  0.00000E+00  9.000E+00
      25     1     1     2     0     0  9.318293773E+00 -2.085438868E+00 -5.506996900E+01  1.369265538E+02  1.250000000E+02  0.00000E+00  9.000E+00
      21     1     1     2   501   511 -3.437397330E+00  1.336269614E+01  2.946107786E+01  3.253202203E+01  4.768371582E-07  0.00000E+00  9.000E+00
#rwgt            1           1   3.7008158615179143E-002           2       40273           0
</event>
<event>
      5   9999 -3.79277E-02  7.87461E+01 -1.00000E+00  1.28682E-01
      21    -1     0     0   512   501  0.000000000E+00  0.000000000E+00  4.795934130E+02  4.795934130E+02  0.000000000E+00  0.00000E+00  9.000E+00
      21    -1     0     0   501   502  0.000000000E+00  0.000000000E+00 -2.136418212E+02  2.136418212E+02  0.000000000E+00  0.00000E+00  9.000E+00
      25     1     1     2     0     0  2.182342117E+01  2.421925596E+02 -2.711606258E+01  2.747613119E+02  1.250000000E+02  0.00000E+00  9.000E+00
      25     1     1     2     0     0  9.476215512E+00 -1.699341071E+02  2.547720014E+02  3.309096132E+02  1.250000000E+02  0.00000E+00  9.000E+00
      21     1     1     2   512   502 -3.129963668E+01 -7.225845246E+01  3.829565298E+01  8.756430920E+01  1.348699152E-06  0.00000E+00  9.000E+00
#rwgt            1           1  -3.4549148701899533E-002           2       40427           0
</event>
<event>
      5   9999  3.79277E-02  9.13962E+01 -1.00000E+00  1.25611E-01
      21    -1     0     0   502   511  0.000000000E+00  0.000000000E+00  4.519087836E+02  4.519087836E+02  0.000000000E+00  0.00000E+00  9.000E+00
      21    -1     0     0   501   502  0.000000000E+00  0.000000000E+00 -1.342137310E+03  1.342137310E+03  0.000000000E+00  0.00000E+00  9.000E+00
      25     1     1     2     0     0 -2.127818395E+02 -1.635351536E+01 -8.630797161E+02  8.978168773E+02  1.250000000E+02  0.00000E+00  9.000E+00
      25     1     1     2     0     0  2.185334860E+02 -7.486151769E+01 -4.186394271E+02  4.942115956E+02  1.250000000E+02  0.00000E+00  9.000E+00
      21     1     1     2   501   511 -5.751646471E+00  9.121503304E+01  3.914906172E+02  4.020176203E+02  5.394796609E-06  0.00000E+00  9.000E+00
#rwgt            1           1   3.7578544525733316E-002           2       40619           0
</event>
<event>
      5   9999  3.79277E-02  3.19535E+01 -1.00000E+00  1.51161E-01
      21    -1     0     0   502   501  0.000000000E+00  0.000000000E+00  1.285549279E+03  1.285549279E+03  0.000000000E+00  0.00000E+00  9.000E+00
      21    -1     0     0   512   502  0.000000000E+00  0.000000000E+00 -7.696719611E+01  7.696719611E+01  0.000000000E+00  0.00000E+00  9.000E+00
      25     1     1     2     0     0 -2.537024455E+02  2.925233197E+01  5.206225522E+02  5.932060954E+02  1.250000000E+02  0.00000E+00  9.000E+00
      25     1     1     2     0     0  2.766949346E+02 -7.062916932E+00  6.612713530E+02  7.276776580E+02  1.250000000E+02  0.00000E+00  9.000E+00
      21     1     1     2   512   501 -2.299248908E+01 -2.218941504E+01  2.668817793E+01  4.163272193E+01  5.840038640E-07  0.00000E+00  9.000E+00
#rwgt            1           1   3.5718722333611196E-002           2       40715           0
</event>
<event>
      5   9999  3.79277E-02  4.25085E+01 -1.00000E+00  1.43221E-01
      -2    -1     0     0     0   501  0.000000000E+00  0.000000000E+00  6.345960650E+02  6.345960650E+02  0.000000000E+00  0.00000E+00  9.000E+00
      21    -1     0     0   501   502  0.000000000E+00  0.000000000E+00 -3.560456197E+02  3.560456197E+02  0.000000000E+00  0.00000E+00  9.000E+00
      25     1     1     2     0     0 -1.243141117E+02  4.668668326E+01 -2.111484482E+02  2.790023511E+02  1.250000000E+02  0.00000E+00  9.000E+00
      25     1     1     2     0     0  9.459351507E+01 -1.629487461E+01 -5.376109810E+01  1.665194034E+02  1.250000000E+02  0.00000E+00  9.000E+00
      -2     1     1     2     0   502  2.972059667E+01 -3.039180864E+01  5.434599915E+02  5.451199302E+02  7.629394531E-06  0.00000E+00  9.000E+00
#rwgt            1           1  0.17301827017519825                2       40922           0
</event>
<event>
      5   9999  3.79277E-02  1.10984E+02 -1.00000E+00  1.21826E-01
      21    -1     0     0   502   501  0.000000000E+00  0.000000000E+00  7.061508585E+01  7.061508585E+01  0.000000000E+00  0.00000E+00  9.000E+00
       2    -1     0     0   501     0  0.000000000E+00  0.000000000E+00 -1.964551501E+03  1.964551501E+03  0.000000000E+00  0.00000E+00  9.000E+00
      25     1     1     2     0     0  6.119375827E+01 -5.401796511E+01 -4.154374079E+02  4.414474561E+02  1.250000000E+02  0.00000E+00  9.000E+00
      25     1     1     2     0     0 -1.266247404E+02 -3.562702992E+01 -9.322684029E+01  2.040082201E+02  1.250000000E+02  0.00000E+00  9.000E+00
       2     1     1     2   502     0  6.543098210E+01  8.964499503E+01 -1.385272167E+03  1.389710911E+03  1.525878906E-05  0.00000E+00  9.000E+00
#rwgt            1           1   4.0274998564510910E-002           2       41006           0
</event>
<event>
      5   9999  3.79277E-02  3.43205E+01 -1.00000E+00  1.49089E-01
      21    -1     0     0   502   511  0.000000000E+00  0.000000000E+00  6.395884508E+01  6.395884508E+01  0.000000000E+00  0.00000E+00  9.000E+00
      21    -1     0     0   501   502  0.000000000E+00  0.000000000E+00 -5.045129781E+02  5.045129781E+02  0.000000000E+00  0.00000E+00  9.000E+00
      25     1     1     2     0     0  2.324497514E+01  4.413411713E+01 -3.674384873E+02  3.913108625E+02  1.250000000E+02  0.00000E+00  9.000E+00
      25     1     1     2     0     0 -1.266203755E+01 -1.148597012E+01 -6.486939105E+01  1.418636409E+02  1.250000000E+02  0.00000E+00  9.000E+00
      21     1     1     2   501   511 -1.058293759E+01 -3.264814701E+01 -8.246254694E+00  3.529731984E+01  3.576278687E-07  0.00000E+00  9.000E+00
#rwgt            1           1   3.9552437553155004E-002           2       41099           0
</event>
<event>
      5   9999  3.79277E-02  6.80834E+01 -1.00000E+00  1.31834E-01
      21    -1     0     0   502   501  0.000000000E+00  0.000000000E+00  1.877259982E+02  1.877259982E+02  0.000000000E+00  0.00000E+00  9.000E+00
      21    -1     0     0   512   502  0.000000000E+00  0.000000000E+00 -6.640763093E+02  6.640763093E+02  0.000000000E+00  0.00000E+00  9.000E+00
      25     1     1     2     0     0  1.551288899E+02 -5.194275979E+01 -7.883867488E+01  2.204621496E+02  1.250000000E+02  0.00000E+00  9.000E+00
      25     1     1     2     0     0 -1.717282684E+02  1.179716547E+02 -1.566500182E+01  2.434713571E+02  1.250000000E+02  0.00000E+00  9.000E+00
      21     1     1     2   512   501  1.659937851E+01 -6.602889488E+01 -3.818466344E+02  3.878688007E+02  0.000000000E+00  0.00000E+00  9.000E+00
#rwgt            1           1   3.4575113051109371E-002           2       41210           0
</event>
<event>
      5   9999  3.79277E-02  1.00637E+02 -1.00000E+00  1.23704E-01
      21    -1     0     0   502   501  0.000000000E+00  0.000000000E+00  3.203664438E+02  3.203664438E+02  0.000000000E+00  0.00000E+00  9.000E+00
       2    -1     0     0   501     0  0.000000000E+00  0.000000000E+00 -9.780613433E+02  9.780613433E+02  0.000000000E+00  0.00000E+00  9.000E+00
      25     1     1     2     0     0  1.661173846E+02  4.959910918E+01  7.898037746E+01  2.278551231E+02  1.250000000E+02  0.00000E+00  9.000E+00
      25     1     1     2     0     0 -1.949616222E+02  4.681581336E+01  7.867805586E+01  2.490321084E+02  1.250000000E+02  0.00000E+00  9.000E+00
       2     1     1     2   502     0  2.884423758E+01 -9.641492254E+01 -8.153533327E+02  8.215405556E+02  1.525878906E-05  0.00000E+00  9.000E+00
#rwgt            1           1   9.5142134883564128E-002           2       41309           0
</event>
<event>
      5   9999  3.79277E-02  1.16883E+02 -1.00000E+00  1.20856E-01
      21    -1     0     0   502   501  0.000000000E+00  0.000000000E+00  3.850709819E+02  3.850709819E+02  0.000000000E+00  0.00000E+00  9.000E+00
      21    -1     0     0   511   502  0.000000000E+00  0.000000000E+00 -1.342409122E+02  1.342409122E+02  0.000000000E+00  0.00000E+00  9.000E+00
      25     1     1     2     0     0 -2.754330237E+01 -9.623849467E+01  2.195905468E+02  2.717820627E+02  1.250000000E+02  0.00000E+00  9.000E+00
      25     1     1     2     0     0  1.638887552E+01 -2.011065911E+01  5.131553406E+00  1.277668450E+02  1.250000000E+02  0.00000E+00  9.000E+00
      21     1     1     2   511   501  1.115442685E+01  1.163491538E+02  2.610796952E+01  1.197629863E+02  2.185142372E-06  0.00000E+00  9.000E+00
#rwgt            1           1   4.2976054535677190E-002           2       41502           0
</event>
<event>
      5   9999  3.79277E-02  3.64305E+01 -1.00000E+00  1.47404E-01
      21    -1     0     0   512   501  0.000000000E+00  0.000000000E+00  3.024078471E+02  3.024078471E+02  0.000000000E+00  0.00000E+00  9.000E+00
      21    -1     0     0   501   502  0.000000000E+00  0.000000000E+00 -2.250828645E+02  2.250828645E+02  0.000000000E+00  0.00000E+00  9.000E+00
      25     1     1     2     0     0 -5.974621829E+01 -2.848575555E+01 -1.700500175E+02  2.211855722E+02  1.250000000E+02  0.00000E+00  9.000E+00
      25     1     1     2     0     0  2.538236309E+01  1.639016063E+01  1.277968032E+02  1.813006471E+02  1.250000000E+02  0.00000E+00  9.000E+00
      21     1     1     2   512   502  3.436385520E+01  1.209559492E+01  1.195781969E+02  1.250044924E+02  1.348699152E-06  0.00000E+00  9.000E+00
#rwgt            1           1   5.1575004310223195E-002           2       41650           0
</event>
<event>
      5   9999  3.79277E-02  2.22932E+01 -1.00000E+00  1.62571E-01
      21    -1     0     0   511   501  0.000000000E+00  0.000000000E+00  5.515595864E+02  5.515595864E+02  0.000000000E+00  0.00000E+00  9.000E+00
      21    -1     0     0   501   502  0.000000000E+00  0.000000000E+00 -9.139436498E+01  9.139436498E+01  0.000000000E+00  0.00000E+00  9.000E+00
      25     1     1     2     0     0  6.004119119E+00  7.930330726E+00  4.046722722E+02  4.236550336E+02  1.250000000E+02  0.00000E+00  9.000E+00
      25     1     1     2     0     0  1.494122440E+01 -1.556447308E+01 -3.049973876E+01  1.304635086E+02  1.250000000E+02  0.00000E+00  9.000E+00
      21     1     1     2   511   502 -2.094534352E+01  7.634142358E+00  8.599268789E+01  8.883540913E+01  0.000000000E+00  0.00000E+00  9.000E+00
#rwgt            1           1   4.4017228475774259E-002           2       41824           0
</event>
<event>
      5   9999  3.79277E-02  5.30034E+01 -1.00000E+00  1.37645E-01
      21    -1     0     0   502   512  0.000000000E+00  0.000000000E+00  6.695743037E+02  6.695743037E+02  0.000000000E+00  0.00000E+00  9.000E+00
      21    -1     0     0   501   502  0.000000000E+00  0.000000000E+00 -9.697691246E+01  9.697691246E+01  0.000000000E+00  0.00000E+00  9.000E+00
      25     1     1     2     0     0  8.188823019E+01 -1.421149031E+02  3.768150993E+02  4.295543586E+02  1.250000000E+02  0.00000E+00  9.000E+00
      25     1     1     2     0     0 -1.302321475E+02  1.203840208E+02  1.316252777E+02  2.537773403E+02  1.250000000E+02  0.00000E+00  9.000E+00
      21     1     1     2   501   512  4.834391728E+01  2.173088239E+01  6.415701427E+01  8.321951735E+01  1.348699152E-06  0.00000E+00  9.000E+00
#rwgt            1           1   4.1126897927885174E-002           2       42030           0
</event>
<event>
      5   9999  3.79277E-02  1.80665E+01 -1.00000E+00  1.70097E-01
      21    -1     0     0   511   501  0.000000000E+00  0.000000000E+00  2.417719613E+03  2.417719613E+03  0.000000000E+00  0.00000E+00  9.000E+00
      21    -1     0     0   501   502  0.000000000E+00  0.000000000E+00 -2.851075072E+01  2.851075072E+01  0.000000000E+00  0.00000E+00  9.000E+00
      25     1     1     2     0     0 -6.967627903E+01  1.462883167E+02  4.903316850E+02  5.313240224E+02  1.250000000E+02  0.00000E+00  9.000E+00
      25     1     1     2     0     0  8.195427453E+01 -1.330351058E+02  1.261347487E+03  1.277120717E+03  1.250000000E+02  0.00000E+00  9.000E+00
      21     1     1     2   511   502 -1.227799550E+01 -1.325321087E+01  6.375296905E+02  6.377856246E+02  0.000000000E+00  0.00000E+00  9.000E+00
#rwgt            1           1   1.3738663419875381E-002           2       42135           0
</event>
<event>
      5   9999  3.79277E-02  1.19067E+02 -1.00000E+00  1.20512E-01
      21    -1     0     0   502   512  0.000000000E+00  0.000000000E+00  9.680891769E+02  9.680891769E+02  0.000000000E+00  0.00000E+00  9.000E+00
      21    -1     0     0   501   502  0.000000000E+00  0.000000000E+00 -3.227700939E+02  3.227700939E+02  0.000000000E+00  0.00000E+00  9.000E+00
      25     1     1     2     0     0 -5.483627393E+01  9.885145911E+01 -2.514474285E+02  3.027035467E+02  1.250000000E+02  0.00000E+00  9.000E+00
      25     1     1     2     0     0  8.328341420E+00  1.075695234E+01  5.370402181E+01  1.367267174E+02  1.250000000E+02  0.00000E+00  9.000E+00
      21     1     1     2   501   512  4.650793251E+01 -1.096084114E+02  8.430624898E+02  8.514290066E+02  1.525878906E-05  0.00000E+00  9.000E+00
#rwgt            1           1   4.5199858420179741E-002           2       42550           0
</event>
<event>
      5   9999  3.79277E-02  4.36053E+01 -1.00000E+00  1.42553E-01
      21    -1     0     0   502   501  0.000000000E+00  0.000000000E+00  2.506455410E+02  2.506455410E+02  0.000000000E+00  0.00000E+00  9.000E+00
      21    -1     0     0   501   511  0.000000000E+00  0.000000000E+00 -3.450468044E+02  3.450468044E+02  0.000000000E+00  0.00000E+00  9.000E+00
      25     1     1     2     0     0  1.106274215E+02 -6.916018646E+01 -7.305762888E+01  1.948947791E+02  1.250000000E+02  0.00000E+00  9.000E+00
      25     1     1     2     0     0 -1.358552481E+02  3.359363538E+01  1.397117979E+02  2.339435129E+02  1.250000000E+02  0.00000E+00  9.000E+00
      21     1     1     2   502   511  2.522782662E+01  3.556655109E+01 -1.610554325E+02  1.668540534E+02  1.907348633E-06  0.00000E+00  9.000E+00
#rwgt            1           1   2.9458883824562708E-002           2       42776           0
</event>
<event>
      5   9999 -3.79277E-02  1.50672E+01 -1.00000E+00  1.77201E-01
      21    -1     0     0   502   501  0.000000000E+00  0.000000000E+00  2.025234535E+03  2.025234535E+03  0.000000000E+00  0.00000E+00  9.000E+00
      21    -1     0     0   512   502  0.000000000E+00  0.000000000E+00 -3.098564280E+01  3.098564280E+01  0.000000000E+00  0.00000E+00  9.000E+00
      25     1     1     2     0     0  5.743037762E+01  6.560813754E+01  1.076941087E+03  1.087671725E+03  1.250000000E+02  0.00000E+00  9.000E+00
      25     1     1     2     0     0 -6.582272023E+01 -7.812173011E+01  9.329593936E+02  9.468230381E+02  1.250000000E+02  0.00000E+00  9.000E+00
      21     1     1     2   512   501  8.392342609E+00  1.251359257E+01 -1.565158874E+01  2.172541469E+01  1.420542632E-06  0.00000E+00  9.000E+00
#rwgt            1           1  -8.9613521165983076E-002           2       42901           0
</event>
<event>
      5   9999  3.79277E-02  1.75939E+01 -1.00000E+00  1.71097E-01
      21    -1     0     0   502   511  0.000000000E+00  0.000000000E+00  6.676671631E+02  6.676671631E+02  0.000000000E+00  0.00000E+00  9.000E+00
      21    -1     0     0   501   502  0.000000000E+00  0.000000000E+00 -4.711052991E+02  4.711052991E+02  0.000000000E+00  0.00000E+00  9.000E+00
      25     1     1     2     0     0 -1.587607399E+02 -1.411889689E+02 -2.493581217E+02  3.506333845E+02  1.250000000E+02  0.00000E+00  9.000E+00
      25     1     1     2     0     0  1.611260345E+02  1.237548106E+02 -8.775750253E+01  2.541716574E+02  1.250000000E+02  0.00000E+00  9.000E+00
      21     1     1     2   501   511 -2.365294674E+00  1.743415834E+01  5.336774883E+02  5.339674204E+02  1.078959322E-05  0.00000E+00  9.000E+00
#rwgt            1           1   2.5888316276214969E-002           2       43029           0
</event>
<event>
      5   9999  3.79277E-02  4.65155E+01 -1.00000E+00  1.40889E-01
       2    -1     0     0   502     0  0.000000000E+00  0.000000000E+00  3.309629518E+02  3.309629518E+02  0.000000000E+00  0.00000E+00  9.000E+00
      21    -1     0     0   501   502  0.000000000E+00  0.000000000E+00 -5.594634304E+02  5.594634304E+02  0.000000000E+00  0.00000E+00  9.000E+00
      25     1     1     2     0     0 -8.075684093E+01  8.548636137E+01 -3.297636426E+02  3.717507839E+02  1.250000000E+02  0.00000E+00  9.000E+00
      25     1     1     2     0     0  3.631264270E+01 -9.921247167E+01 -1.743684518E+02  2.391465650E+02  1.250000000E+02  0.00000E+00  9.000E+00
       2     1     1     2   501     0  4.444419823E+01  1.372611030E+01  2.756316158E+02  2.795290334E+02  0.000000000E+00  0.00000E+00  9.000E+00
#rwgt            1           1   4.3757014086747321E-002           2       43238           0
</event>
<event>
      5   9999  3.79277E-02  4.00251E+01 -1.00000E+00  1.44823E-01
      21    -1     0     0   502   511  0.000000000E+00  0.000000000E+00  4.290710461E+01  4.290710461E+01  0.000000000E+00  0.00000E+00  9.000E+00
      21    -1     0     0   501   502  0.000000000E+00  0.000000000E+00 -1.668033336E+03  1.668033336E+03  0.000000000E+00  0.00000E+00  9.000E+00
      25     1     1     2     0     0 -9.799448520E+01  1.770007851E+02 -5.280339079E+02  5.791174363E+02  1.250000000E+02  0.00000E+00  9.000E+00
      25     1     1     2     0     0  8.029625783E+01 -1.411012186E+02 -1.050963287E+03  1.070750145E+03  1.250000000E+02  0.00000E+00  9.000E+00
      21     1     1     2   501   511  1.769822737E+01 -3.589956644E+01 -4.612903674E+01  6.107285938E+01  9.536743164E-07  0.00000E+00  9.000E+00
#rwgt            1           1   4.4168153858499051E-002           2       43413           0
</event>
<event>
      5   9999  3.79277E-02  4.35152E+01 -1.00000E+00  1.42607E-01
       2    -1     0     0   502     0  0.000000000E+00  0.000000000E+00  6.396274837E+02  6.396274837E+02  0.000000000E+00  0.00000E+00  9.000E+00
      21    -1     0     0   501   502  0.000000000E+00  0.000000000E+00 -2.527226073E+02  2.527226073E+02  0.000000000E+00  0.00000E+00  9.000E+00
      25     1     1     2     0     0 -6.265333183E+01  3.324551520E+01 -1.404928678E+02  2.009824623E+02  1.250000000E+02  0.00000E+00  9.000E+00
      25     1     1     2     0     0  9.489223708E+01 -4.018448272E+00 -5.121936860E+00  1.570729729E+02  1.250000000E+02  0.00000E+00  9.000E+00
       2     1     1     2   501     0 -3.223890525E+01 -2.922706693E+01  5.325196810E+02  5.342946557E+02  0.000000000E+00  0.00000E+00  9.000E+00
#rwgt            1           1   3.5136605011675495E-002           2       43549           0
</event>
<event>
      5   9999  3.79277E-02  1.41161E+02 -1.00000E+00  1.17449E-01
      21    -1     0     0   502   511  0.000000000E+00  0.000000000E+00  1.095685724E+02  1.095685724E+02  0.000000000E+00  0.00000E+00  9.000E+00
      21    -1     0     0   501   502  0.000000000E+00  0.000000000E+00 -1.340591818E+03  1.340591818E+03  0.000000000E+00  0.00000E+00  9.000E+00
      25     1     1     2     0     0  6.839221143E+01 -1.568573656E+02 -8.151595834E+02  8.422540437E+02  1.250000000E+02  0.00000E+00  9.000E+00
      25     1     1     2     0     0 -1.013892484E+02  1.960731910E+01 -4.361337268E+02  4.652975976E+02  1.250000000E+02  0.00000E+00  9.000E+00
      21     1     1     2   501   511  3.299703697E+01  1.372500465E+02  2.027006491E+01  1.426087489E+02  6.743495762E-07  0.00000E+00  9.000E+00
#rwgt            1           1   4.0618224289363229E-002           2       43713           0
</event>
<event>
      5   9999  3.79277E-02  3.87880E+01 -1.00000E+00  1.45674E-01
      21    -1     0     0   502   501  0.000000000E+00  0.000000000E+00  7.424827183E+01  7.424827183E+01  0.000000000E+00  0.00000E+00  9.000E+00
      21    -1     0     0   501   512  0.000000000E+00  0.000000000E+00 -4.558498386E+02  4.558498386E+02  0.000000000E+00  0.00000E+00  9.000E+00
      25     1     1     2     0     0  1.993829797E+00 -2.815898002E+01 -1.709632226E+01  1.292833622E+02  1.250000000E+02  0.00000E+00  9.000E+00
      25     1     1     2     0     0  2.566852328E+01  9.689105390E-01 -2.690449116E+02  2.977750432E+02  1.250000000E+02  0.00000E+00  9.000E+00
      21     1     1     2   502   512 -2.766235308E+01  2.719006948E+01 -9.546033290E+01  1.030397050E+02  1.348699152E-06  0.00000E+00  9.000E+00
#rwgt            1           1   4.0109901254856660E-002           2       43743           0
</event>
<event>
      5   9999  3.79277E-02  2.90485E+01 -1.00000E+00  1.54018E-01
      21    -1     0     0   502   511  0.000000000E+00  0.000000000E+00  9.954908534E+02  9.954908534E+02  0.000000000E+00  0.00000E+00  9.000E+00
      21    -1     0     0   501   502  0.000000000E+00  0.000000000E+00 -1.947498955E+02  1.947498955E+02  0.000000000E+00  0.00000E+00  9.000E+00
      25     1     1     2     0     0  4.130666152E+01 -6.920581165E+00  1.136346274E+02  1.740458654E+02  1.250000000E+02  0.00000E+00  9.000E+00
      25     1     1     2     0     0 -1.831222861E+01 -1.082959523E+01 -1.398238377E+02  1.887546647E+02  1.250000000E+02  0.00000E+00  9.000E+00
      21     1     1     2   501   511 -2.299443291E+01  1.775017639E+01  8.269301682E+02  8.274402188E+02  0.000000000E+00  0.00000E+00  9.000E+00
#rwgt            1           1   4.8589188224671259E-002           2       43856           0
</event>
<event>
      5   9999  3.79277E-02  6.43322E+01 -1.00000E+00  1.33105E-01
      21    -1     0     0   502   501  0.000000000E+00  0.000000000E+00  2.559152428E+02  2.559152428E+02  0.000000000E+00  0.00000E+00  9.000E+00
      21    -1     0     0   501   512  0.000000000E+00  0.000000000E+00 -3.138802012E+02  3.138802012E+02  0.000000000E+00  0.00000E+00  9.000E+00
      25     1     1     2     0     0  4.861744721E+01  8.674656911E+01 -1.617257395E+02  2.273078051E+02  1.250000000E+02  0.00000E+00  9.000E+00
      25     1     1     2     0     0  4.600526645E-01 -4.515292818E+01  1.918617356E+02  2.333986379E+02  1.250000000E+02  0.00000E+00  9.000E+00
      21     1     1     2   502   512 -4.907749988E+01 -4.159364092E+01 -8.810095450E+01  1.090890010E+02  1.348699152E-06  0.00000E+00  9.000E+00
#rwgt            2          11   1.5701556919932994E-003           2       44192           0
</event>
<event>
      5   9999  3.79277E-02  3.95104E+01 -1.00000E+00  1.45173E-01
      21    -1     0     0   511   501  0.000000000E+00  0.000000000E+00  3.734853492E+02  3.734853492E+02  0.000000000E+00  0.00000E+00  9.000E+00
      21    -1     0     0   501   502  0.000000000E+00  0.000000000E+00 -9.157188218E+01  9.157188218E+01  0.000000000E+00  0.00000E+00  9.000E+00
      25     1     1     2     0     0 -4.507271316E+01 -2.806521062E+01  2.259633725E+02  2.636354514E+02  1.250000000E+02  0.00000E+00  9.000E+00
      25     1     1     2     0     0  3.810300358E+01  6.695606772E+01  2.034601158E+01  1.482360080E+02  1.250000000E+02  0.00000E+00  9.000E+00
      21     1     1     2   511   502  6.969709582E+00 -3.889085711E+01  3.560408296E+01  5.318577199E+01  6.743495762E-07  0.00000E+00  9.000E+00
#rwgt            1           1   3.5571629387329627E-002           2       44257           0
</event>
<event>
      5   9999 -3.79277E-02  7.23252E+01 -1.00000E+00  1.30506E-01
      21    -1     0     0   502   501  0.000000000E+00  0.000000000E+00  7.532110411E+02  7.532110411E+02  0.000000000E+00  0.00000E+00  9.000E+00
       4    -1     0     0   501     0  0.000000000E+00  0.000000000E+00 -8.220947452E+02  8.220947452E+02  0.000000000E+00  0.00000E+00  9.000E+00
      25     1     1     2     0     0  3.403972691E+02 -8.060058620E+01  2.449273726E+02  4.449507536E+02  1.250000000E+02  0.00000E+00  9.000E+00
      25     1     1     2     0     0 -2.728863993E+02  5.465419724E+01  3.490332175E+02  4.635765904E+02  1.250000000E+02  0.00000E+00  9.000E+00
       4     1     1     2   502     0 -6.751086974E+01  2.594638896E+01 -6.628442943E+02  6.667784423E+02  1.078959322E-05  0.00000E+00  9.000E+00
#rwgt            1           1 -0.15935730258872363                2       44389           0
</event>
<event>
      5   9999 -3.79277E-02  1.24681E+01 -1.00000E+00  1.85297E-01
      21    -1     0     0   511   501  0.000000000E+00  0.000000000E+00  2.922931047E+02  2.922931047E+02  0.000000000E+00  0.00000E+00  9.000E+00
      21    -1     0     0   501   502  0.000000000E+00  0.000000000E+00 -3.490695367E+02  3.490695367E+02  0.000000000E+00  0.00000E+00  9.000E+00
      25     1     1     2     0     0 -9.725500851E+01  1.706664161E+02  2.349804219E+01  2.340143591E+02  1.250000000E+02  0.00000E+00  9.000E+00
      25     1     1     2     0     0  9.845229764E+01 -1.830769000E+02 -1.830126774E+02  3.038562922E+02  1.250000000E+02  0.00000E+00  9.000E+00
      21     1     1     2   511   502 -1.197289128E+00  1.241048390E+01  1.027382032E+02  1.034919901E+02  1.348699152E-06  0.00000E+00  9.000E+00
#rwgt            1           1 -0.16571177719659236                2       44493           0
</event>
<event>
      5   9999  3.79277E-02  1.50873E+02 -1.00000E+00  1.16294E-01
      21    -1     0     0   502   501  0.000000000E+00  0.000000000E+00  1.115940193E+02  1.115940193E+02  0.000000000E+00  0.00000E+00  9.000E+00
      21    -1     0     0   501   512  0.000000000E+00  0.000000000E+00 -1.053864573E+03  1.053864573E+03  0.000000000E+00  0.00000E+00  9.000E+00
      25     1     1     2     0     0 -5.004586821E+01 -1.126087729E+02 -7.858001291E+01  1.923152180E+02  1.250000000E+02  0.00000E+00  9.000E+00
      25     1     1     2     0     0 -9.649766795E+01  7.672589501E+01 -1.161039161E+02  2.104846366E+02  1.250000000E+02  0.00000E+00  9.000E+00
      21     1     1     2   502   512  1.465435362E+02  3.588287785E+01 -7.475866242E+02  7.626587373E+02  0.000000000E+00  0.00000E+00  9.000E+00
#rwgt            1           1   4.9057873158419363E-002           2       44766           0
</event>
<event>
      5   9999  3.79277E-02  8.29303E+01 -1.00000E+00  1.27598E-01
      21    -1     0     0   502   511  0.000000000E+00  0.000000000E+00  8.948427372E+01  8.948427372E+01  0.000000000E+00  0.00000E+00  9.000E+00
      21    -1     0     0   501   502  0.000000000E+00  0.000000000E+00 -8.817832907E+02  8.817832907E+02  0.000000000E+00  0.00000E+00  9.000E+00
      25     1     1     2     0     0 -2.254629523E+01  2.959180614E+01 -6.781381107E+02  6.905652088E+02  1.250000000E+02  0.00000E+00  9.000E+00
      25     1     1     2     0     0  8.688045407E+01 -8.192300833E+01 -8.631145234E+01  1.932207530E+02  1.250000000E+02  0.00000E+00  9.000E+00
      21     1     1     2   501   511 -6.433415883E+01  5.233120219E+01 -2.784945401E+01  8.748160266E+01  2.697398305E-06  0.00000E+00  9.000E+00
#rwgt            1           1   3.9134519145106107E-002           2       44925           0
</event>
<event>
      5   9999  3.79277E-02  3.49419E+01 -1.00000E+00  1.48578E-01
      21    -1     0     0   502   512  0.000000000E+00  0.000000000E+00  1.779571644E+02  1.779571644E+02  0.000000000E+00  0.00000E+00  9.000E+00
      21    -1     0     0   501   502  0.000000000E+00  0.000000000E+00 -4.336305875E+02  4.336305875E+02  0.000000000E+00  0.00000E+00  9.000E+00
      25     1     1     2     0     0 -3.771287154E+01 -2.384926173E+02 -1.234201652E+02  2.985942504E+02  1.250000000E+02  0.00000E+00  9.000E+00
      25     1     1     2     0     0  3.515298832E+01  2.036446512E+02 -1.370957199E+02  2.777176857E+02  1.250000000E+02  0.00000E+00  9.000E+00
      21     1     1     2   501   512  2.559883225E+00  3.484796603E+01  4.842461976E+00  3.527581574E+01  2.384185791E-07  0.00000E+00  9.000E+00
#rwgt            1           1   3.6975649315271815E-002           2       45008           0
</event>
<event>
      5   9999  3.79277E-02  1.05067E+02 -1.00000E+00  1.22870E-01
      21    -1     0     0   502   501  0.000000000E+00  0.000000000E+00  4.005079257E+02  4.005079257E+02  0.000000000E+00  0.00000E+00  9.000E+00
      21    -1     0     0   501   511  0.000000000E+00  0.000000000E+00 -6.359947117E+02  6.359947117E+02  0.000000000E+00  0.00000E+00  9.000E+00
      25     1     1     2     0     0  3.925582094E+02  1.280983111E+02  3.084766131E+01  4.325363607E+02  1.250000000E+02  0.00000E+00  9.000E+00
      25     1     1     2     0     0 -3.526492857E+02 -2.252903093E+02 -2.220626818E+02  4.899531374E+02  1.250000000E+02  0.00000E+00  9.000E+00
      21     1     1     2   502   511 -3.990892375E+01  9.719199825E+01 -4.427176547E+01  1.140131393E+02  2.286830675E-06  0.00000E+00  9.000E+00
#rwgt            1           1  0.17836861516160529                2       45222           0
</event>
<event>
      5   9999  3.79277E-02  2.33280E+01 -1.00000E+00  1.61036E-01
      21    -1     0     0   502   512  0.000000000E+00  0.000000000E+00  2.735140389E+02  2.735140389E+02  0.000000000E+00  0.00000E+00  9.000E+00
      21    -1     0     0   501   502  0.000000000E+00  0.000000000E+00 -2.846731846E+02  2.846731846E+02  0.000000000E+00  0.00000E+00  9.000E+00
      25     1     1     2     0     0  2.395953465E+01 -4.508492364E+01  2.228667974E+02  2.605788154E+02  1.250000000E+02  0.00000E+00  9.000E+00
      25     1     1     2     0     0 -7.171586379E-01  4.708122525E+01 -2.389648916E+02  2.737633567E+02  1.250000000E+02  0.00000E+00  9.000E+00
      21     1     1     2   501   512 -2.324237601E+01 -1.996301613E+00  4.938948479E+00  2.384505137E+01  4.539354507E-07  0.00000E+00  9.000E+00
#rwgt            1           1   4.8181341025818315E-002           2       45364           0
</event>
<event>
      5   9999  3.79277E-02  2.54190E+01 -1.00000E+00  1.58212E-01
      21    -1     0     0   502   501  0.000000000E+00  0.000000000E+00  7.815612637E+01  7.815612637E+01  0.000000000E+00  0.00000E+00  9.000E+00
      21    -1     0     0   501   511  0.000000000E+00  0.000000000E+00 -1.163164767E+03  1.163164767E+03  0.000000000E+00  0.00000E+00  9.000E+00
      25     1     1     2     0     0 -1.701613483E+02  4.971368371E+00 -1.798630684E+02  2.774082233E+02  1.250000000E+02  0.00000E+00  9.000E+00
      25     1     1     2     0     0  1.785805976E+02 -2.895552945E+01 -3.867421706E+02  4.448864564E+02  1.250000000E+02  0.00000E+00  9.000E+00
      21     1     1     2   502   511 -8.419249243E+00  2.398416108E+01 -5.184034018E+02  5.190262139E+02  7.629394531E-06  0.00000E+00  9.000E+00
#rwgt            1           1   4.7877921410980538E-002           2       45513           0
</event>
<event>
      5   9999  3.79277E-02  1.71494E+01 -1.00000E+00  1.72074E-01
      21    -1     0     0   502   501  0.000000000E+00  0.000000000E+00  4.678885667E+02  4.678885667E+02  0.000000000E+00  0.00000E+00  9.000E+00
      21    -1     0     0   501   512  0.000000000E+00  0.000000000E+00 -2.359973468E+02  2.359973468E+02  0.000000000E+00  0.00000E+00  9.000E+00
      25     1     1     2     0     0  5.589536244E+01 -2.630122937E+02  3.193917110E+01  2.982362634E+02  1.250000000E+02  0.00000E+00  9.000E+00
      25     1     1     2     0     0 -6.158108981E+01  2.791917689E+02  2.180847104E+02  3.806917590E+02  1.250000000E+02  0.00000E+00  9.000E+00
      21     1     1     2   502   512  5.685727373E+00 -1.617947524E+01 -1.813266155E+01  2.495789113E+01  2.384185791E-07  0.00000E+00  9.000E+00
#rwgt            1           1   1.7897973290600014E-002           2       45702           0
</event>
<event>
      5   9999  3.79277E-02  1.57610E+01 -1.00000E+00  1.75382E-01
      21    -1     0     0   502   511  0.000000000E+00  0.000000000E+00  2.088393779E+02  2.088393779E+02  0.000000000E+00  0.00000E+00  9.000E+00
      21    -1     0     0   501   502  0.000000000E+00  0.000000000E+00 -1.901754389E+02  1.901754389E+02  0.000000000E+00  0.00000E+00  9.000E+00
      25     1     1     2     0     0 -1.095759846E+02  7.937715166E+01  4.111512210E+01  1.887407796E+02  1.250000000E+02  0.00000E+00  9.000E+00
      25     1     1     2     0     0  1.239145569E+02 -7.283380845E+01 -2.994104967E+01  1.928238769E+02  1.250000000E+02  0.00000E+00  9.000E+00
      21     1     1     2   501   511 -1.433857221E+01 -6.543343207E+00  7.489866498E+00  1.745016027E+01  2.230201594E-07  0.00000E+00  9.000E+00
#rwgt            1           1   3.6248414793333392E-002           2       45890           0
</event>
<event>
      5   9999  3.79277E-02  2.06645E+01 -1.00000E+00  1.65206E-01
      21    -1     0     0   502   501  0.000000000E+00  0.000000000E+00  3.080549081E+02  3.080549081E+02  0.000000000E+00  0.00000E+00  9.000E+00
      21    -1     0     0   501   512  0.000000000E+00  0.000000000E+00 -1.377747175E+03  1.377747175E+03  0.000000000E+00  0.00000E+00  9.000E+00
      25     1     1     2     0     0 -5.149494703E+00 -7.119859650E+01  2.498699867E+02  2.883674179E+02  1.250000000E+02  0.00000E+00  9.000E+00
      25     1     1     2     0     0 -1.544439109E+01  6.949155747E+01 -9.431111379E+01  1.720092787E+02  1.250000000E+02  0.00000E+00  9.000E+00
      21     1     1     2   502   512  2.059388579E+01  1.707039029E+00 -1.225251140E+03  1.225425387E+03  2.157918644E-05  0.00000E+00  9.000E+00
#rwgt            1           1   3.7940944023819985E-002           2       46058           0
</event>
<event>
      5   9999  3.79277E-02  1.01173E+02 -1.00000E+00  1.23601E-01
      21    -1     0     0   502   511  0.000000000E+00  0.000000000E+00  2.269202989E+03  2.269202989E+03  0.000000000E+00  0.00000E+00  9.000E+00
      21    -1     0     0   501   502  0.000000000E+00  0.000000000E+00 -4.251139150E+02  4.251139150E+02  0.000000000E+00  0.00000E+00  9.000E+00
      25     1     1     2     0     0  1.588110628E+02  5.630038958E+02  2.217477641E+02  6.379587849E+02  1.250000000E+02  0.00000E+00  9.000E+00
      25     1     1     2     0     0 -1.686634009E+02 -4.623116639E+02  8.394306016E+01  5.146366239E+02  1.250000000E+02  0.00000E+00  9.000E+00
      21     1     1     2   501   511  9.852338071E+00 -1.006922319E+02  1.538398249E+03  1.541721495E+03  2.157918644E-05  0.00000E+00  9.000E+00
#rwgt            1           1   4.7738318525251185E-002           2       46226           0
</event>
<event>
      5   9999  3.79277E-02  2.25297E+01 -1.00000E+00  1.62211E-01
      21    -1     0     0   502   501  0.000000000E+00  0.000000000E+00  3.476955729E+02  3.476955729E+02  0.000000000E+00  0.00000E+00  9.000E+00
      21    -1     0     0   512   502  0.000000000E+00  0.000000000E+00 -1.336127471E+02  1.336127471E+02  0.000000000E+00  0.00000E+00  9.000E+00
      25     1     1     2     0     0 -1.307678448E+02 -4.157249180E+01  1.707604570E+01  1.864003558E+02  1.250000000E+02  0.00000E+00  9.000E+00
      25     1     1     2     0     0  1.324305533E+02  6.404077267E+01  1.910688788E+02  2.716088888E+02  1.250000000E+02  0.00000E+00  9.000E+00
      21     1     1     2   512   501 -1.662708485E+00 -2.246828087E+01  5.937901258E+00  2.329907544E+01  2.665600750E-07  0.00000E+00  9.000E+00
#rwgt            1           1   2.9175850224454604E-002           2       46388           0
</event>
<event>
      5   9999  3.79277E-02  2.92126E+01 -1.00000E+00  1.53846E-01
      21    -1     0     0   502   501  0.000000000E+00  0.000000000E+00  9.444476061E+01  9.444476061E+01  0.000000000E+00  0.00000E+00  9.000E+00
       1    -1     0     0   501     0  0.000000000E+00  0.000000000E+00 -2.029841280E+03  2.029841280E+03  0.000000000E+00  0.00000E+00  9.000E+00
      25     1     1     2     0     0 -9.019323645E+01  9.352288364E+01 -7.748252279E+01  1.962393717E+02  1.250000000E+02  0.00000E+00  9.000E+00
      25     1     1     2     0     0  6.769387522E+01 -7.489074630E+01 -1.497681659E+02  2.196510600E+02  1.250000000E+02  0.00000E+00  9.000E+00
       1     1     1     2   502     0  2.249936122E+01 -1.863213733E+01 -1.708145830E+03  1.708395608E+03  3.737624730E-05  0.00000E+00  9.000E+00
#rwgt            1           1   7.4005835015226049E-002           2       46571           0
</event>
<event>
      5   9999  3.79277E-02  1.06828E+02 -1.00000E+00  1.22551E-01
      21    -1     0     0   502   501  0.000000000E+00  0.000000000E+00  3.242502017E+02  3.242502017E+02  0.000000000E+00  0.00000E+00  9.000E+00
      21    -1     0     0   501   511  0.000000000E+00  0.000000000E+00 -3.673818705E+02  3.673818705E+02  0.000000000E+00  0.00000E+00  9.000E+00
      25     1     1     2     0     0  5.675360938E+01  8.970424594E+01  7.327014452E+01  1.796144148E+02  1.250000000E+02  0.00000E+00  9.000E+00
      25     1     1     2     0     0 -1.307125876E+02 -1.667911543E+02  1.039873667E+02  2.671019321E+02  1.250000000E+02  0.00000E+00  9.000E+00
      21     1     1     2   502   511  7.395897821E+01  7.708690832E+01 -2.203891800E+02  2.449157254E+02  0.000000000E+00  0.00000E+00  9.000E+00
#rwgt            1           1   3.7472917025536318E-002           2       46723           0
</event>
<event>
      5   9999  3.79277E-02  5.70489E+01 -1.00000E+00  1.35884E-01
      21    -1     0     0   502   512  0.000000000E+00  0.000000000E+00  4.087483916E+02  4.087483916E+02  0.000000000E+00  0.00000E+00  9.000E+00
      21    -1     0     0   501   502  0.000000000E+00  0.000000000E+00 -2.903411583E+02  2.903411583E+02  0.000000000E+00  0.00000E+00  9.000E+00
      25     1     1     2     0     0  1.156464050E+02  1.060540666E+01 -2.144415553E+02  2.740378555E+02  1.250000000E+02  0.00000E+00  9.000E+00
      25     1     1     2     0     0 -6.585057711E+01  1.723246049E+01  7.483440725E+01  1.608056116E+02  1.250000000E+02  0.00000E+00  9.000E+00
      21     1     1     2   501   512 -4.979582787E+01 -2.783786715E+01  2.580143813E+02  2.642460828E+02  3.814697266E-06  0.00000E+00  9.000E+00
#rwgt            1           1   4.1917872470966719E-002           2       46845           0
</event>
<event>
      5   9999  3.79277E-02  3.02277E+01 -1.00000E+00  1.52812E-01
      21    -1     0     0   502   501  0.000000000E+00  0.000000000E+00  2.431493102E+02  2.431493102E+02  0.000000000E+00  0.00000E+00  9.000E+00
      21    -1     0     0   511   502  0.000000000E+00  0.000000000E+00 -2.485366614E+02  2.485366614E+02  0.000000000E+00  0.00000E+00  9.000E+00
      25     1     1     2     0     0 -1.063655931E+01 -7.890576611E+00 -6.018892888E+01  1.393667993E+02  1.250000000E+02  0.00000E+00  9.000E+00
      25     1     1     2     0     0  2.896454843E+01 -1.614684259E+01  1.810545038E+02  2.224980875E+02  1.250000000E+02  0.00000E+00  9.000E+00
      21     1     1     2   511   501 -1.832798911E+01  2.403741920E+01 -1.262529261E+02  1.298210848E+02  1.907348633E-06  0.00000E+00  9.000E+00
#rwgt            1           1   5.1341026609905818E-002           2       46915           0
</event>
<event>
      5   9999  3.79277E-02  1.06110E+01 -1.00000E+00  1.92826E-01
      21    -1     0     0   502   501  0.000000000E+00  0.000000000E+00  2.792379777E+02  2.792379777E+02  0.000000000E+00  0.00000E+00  9.000E+00
       2    -1     0     0   501     0  0.000000000E+00  0.000000000E+00 -1.201628923E+03  1.201628923E+03  0.000000000E+00  0.00000E+00  9.000E+00
      25     1     1     2     0     0  1.105048904E+01  1.518404706E+02  3.151227741E+01  1.994885096E+02  1.250000000E+02  0.00000E+00  9.000E+00
      25     1     1     2     0     0 -2.094530388E+01 -1.480082721E+02  1.057275169E+02  2.216945245E+02  1.250000000E+02  0.00000E+00  9.000E+00
       2     1     1     2   502     0  9.894814840E+00 -3.832198593E+00 -1.059630740E+03  1.059683867E+03  0.000000000E+00  0.00000E+00  9.000E+00
#rwgt            1           1   3.8438717246675608E-002           2       47094           0
</event>
<event>
      5   9999  3.79277E-02  4.06429E+01 -1.00000E+00  1.44412E-01
       2    -1     0     0   502     0  0.000000000E+00  0.000000000E+00  4.185836610E+02  4.185836610E+02  0.000000000E+00  0.00000E+00  9.000E+00
      21    -1     0     0   501   502  0.000000000E+00  0.000000000E+00 -2.592863871E+02  2.592863871E+02  0.000000000E+00  0.00000E+00  9.000E+00
      25     1     1     2     0     0  9.275102166E+01  1.013608826E+02 -1.488083048E+02  2.380035549E+02  1.250000000E+02  0.00000E+00  9.000E+00
      25     1     1     2     0     0 -5.260653462E+01 -1.077060829E+02  5.238222475E+01  1.809335382E+02  1.250000000E+02  0.00000E+00  9.000E+00
       2     1     1     2   501     0 -4.014448704E+01  6.345200327E+00  2.557233540E+02  2.589329550E+02  0.000000000E+00  0.00000E+00  9.000E+00
#rwgt            1           1   3.7531055056500701E-002           2       47345           0
</event>
<event>
      5   9999  3.79277E-02  4.82329E+01 -1.00000E+00  1.39973E-01
      21    -1     0     0   511   501  0.000000000E+00  0.000000000E+00  6.023836577E+02  6.023836577E+02  0.000000000E+00  0.00000E+00  9.000E+00
      21    -1     0     0   501   502  0.000000000E+00  0.000000000E+00 -9.936394223E+01  9.936394223E+01  0.000000000E+00  0.00000E+00  9.000E+00
      25     1     1     2     0     0  6.146966481E+01  3.551644234E+01  4.537825782E+01  1.507452276E+02  1.250000000E+02  0.00000E+00  9.000E+00
      25     1     1     2     0     0 -7.238743862E+01  1.146454228E+01  7.099451626E+01  1.613586017E+02  1.250000000E+02  0.00000E+00  9.000E+00
      21     1     1     2   511   502  1.091777380E+01 -4.698098462E+01  3.866469414E+02  3.896437706E+02  5.394796609E-06  0.00000E+00  9.000E+00
#rwgt            1           1   5.5504682818873309E-002           2       47529           0
</event>
<event>
      5   9999  3.79277E-02  3.05114E+00 -1.00000E+00  2.94659E-01
      21    -1     0     0   502   501  0.000000000E+00  0.000000000E+00  2.268627144E+02  2.268627144E+02  0.000000000E+00  0.00000E+00  9.000E+00
      21    -1     0     0   512   502  0.000000000E+00  0.000000000E+00 -2.625577305E+02  2.625577305E+02  0.000000000E+00  0.00000E+00  9.000E+00
      25     1     1     2     0     0 -1.908826703E+01  4.914006802E+01 -1.110550793E+02  1.753206743E+02  1.250000000E+02  0.00000E+00  9.000E+00
      25     1     1     2     0     0  2.077601948E+01 -4.659822717E+01  1.713010584E+02  2.181102711E+02  1.250000000E+02  0.00000E+00  9.000E+00
      21     1     1     2   512   501 -1.687752451E+00 -2.541840851E+00 -9.594099511E+01  9.598949946E+01  1.907348633E-06  0.00000E+00  9.000E+00
#rwgt            1           1   4.9127889362434944E-002           2       47662           0
</event>
<event>
      5   9999  3.79277E-02  1.73007E+01 -1.00000E+00  1.71738E-01
      21    -1     0     0   502   511  0.000000000E+00  0.000000000E+00  2.592056074E+02  2.592056074E+02  0.000000000E+00  0.00000E+00  9.000E+00
      21    -1     0     0   501   502  0.000000000E+00  0.000000000E+00 -1.738552306E+02  1.738552306E+02  0.000000000E+00  0.00000E+00  9.000E+00
      25     1     1     2     0     0 -1.113709597E+01  9.369533867E+01  8.875394884E+01  1.800142073E+02  1.250000000E+02  0.00000E+00  9.000E+00
      25     1     1     2     0     0 -5.015682343E+00 -9.989213561E+01 -7.685744847E+01  1.775828348E+02  1.250000000E+02  0.00000E+00  9.000E+00
      21     1     1     2   501   511  1.615277832E+01  6.196796941E+00  7.345387639E+01  7.546379593E+01  1.348699152E-06  0.00000E+00  9.000E+00
#rwgt            1           1   3.5987670567338065E-002           2       48168           0
</event>
<event>
      5   9999  3.79277E-02  8.09435E+01 -1.00000E+00  1.28104E-01
      21    -1     0     0   502   501  0.000000000E+00  0.000000000E+00  5.280524689E+02  5.280524689E+02  0.000000000E+00  0.00000E+00  9.000E+00
      21    -1     0     0   501   512  0.000000000E+00  0.000000000E+00 -2.040160732E+02  2.040160732E+02  0.000000000E+00  0.00000E+00  9.000E+00
      25     1     1     2     0     0 -1.888798722E+00 -2.326969686E+02  1.706385637E+02  3.144741105E+02  1.250000000E+02  0.00000E+00  9.000E+00
      25     1     1     2     0     0 -7.295240065E+01  2.635294646E+02  1.514016441E+02  3.366263348E+02  1.250000000E+02  0.00000E+00  9.000E+00
      21     1     1     2   502   512  7.484119937E+01 -3.083249596E+01  1.996187908E+00  8.096809678E+01  1.311979336E-06  0.00000E+00  9.000E+00
#rwgt            1           1   3.5728222085100930E-002           2       48379           0
</event>
<event>
      5   9999  3.79277E-02  7.30350E+01 -1.00000E+00  1.30294E-01
      21    -1     0     0   502   501  0.000000000E+00  0.000000000E+00  3.255545644E+02  3.255545644E+02  0.000000000E+00  0.00000E+00  9.000E+00
      21    -1     0     0   511   502  0.000000000E+00  0.000000000E+00 -2.177514547E+02  2.177514547E+02  0.000000000E+00  0.00000E+00  9.000E+00
      25     1     1     2     0     0 -1.166518504E+02  3.148811870E+01 -5.251072211E+01  1.816081820E+02  1.250000000E+02  0.00000E+00  9.000E+00
      25     1     1     2     0     0  1.198991691E+02 -1.044509023E+02  1.949015192E+02  2.808868170E+02  1.250000000E+02  0.00000E+00  9.000E+00
      21     1     1     2   511   501 -3.247318731E+00  7.296278356E+01 -3.458768736E+01  8.081102017E+01  1.719260824E-06  0.00000E+00  9.000E+00
#rwgt            1           1   4.1292027550055052E-002           2       48430           0
</event>
<event>
      5   9999  3.79277E-02  2.99387E+01 -1.00000E+00  1.53102E-01
      21    -1     0     0   502   501  0.000000000E+00  0.000000000E+00  2.115169130E+02  2.115169130E+02  0.000000000E+00  0.00000E+00  9.000E+00
      21    -1     0     0   501   512  0.000000000E+00  0.000000000E+00 -3.020308001E+02  3.020308001E+02  0.000000000E+00  0.00000E+00  9.000E+00
      25     1     1     2     0     0  1.474362010E+02 -5.909740472E+01  7.176999765E+01  2.144897881E+02  1.250000000E+02  0.00000E+00  9.000E+00
      25     1     1     2     0     0 -1.509539666E+02  2.936611747E+01 -8.400117659E+01  2.152455959E+02  1.250000000E+02  0.00000E+00  9.000E+00
      21     1     1     2   502   512  3.517765585E+00  2.973128725E+01 -7.828270820E+01  8.381232916E+01  1.348699152E-06  0.00000E+00  9.000E+00
#rwgt            1           1   6.8764327449374565E-002           2       48524           0
</event>
<event>
      5   9999  3.79277E-02  3.16986E+01 -1.00000E+00  1.51397E-01
      21    -1     0     0   502   501  0.000000000E+00  0.000000000E+00  4.511603645E+02  4.511603645E+02  0.000000000E+00  0.00000E+00  9.000E+00
      21    -1     0     0   501   511  0.000000000E+00  0.000000000E+00 -1.033245714E+02  1.033245714E+02  0.000000000E+00  0.00000E+00  9.000E+00
      25     1     1     2     0     0  4.147685884E+01  1.723902797E+01 -1.353054948E+00  1.328320167E+02  1.250000000E+02  0.00000E+00  9.000E+00
      25     1     1     2     0     0 -6.760377879E+01 -3.518849534E+01  3.596231001E+02  3.882811806E+02  1.250000000E+02  0.00000E+00  9.000E+00
      21     1     1     2   502   511  2.612691995E+01  1.794946737E+01 -1.043425203E+01  3.337173865E+01  8.429369702E-07  0.00000E+00  9.000E+00
#rwgt            1           1   4.1793556436704134E-002           2       48714           0
</event>
<event>
      5   9999 -3.79277E-02  1.14711E+02 -1.00000E+00  1.21205E-01
       2    -1     0     0   502     0  0.000000000E+00  0.000000000E+00  2.895046722E+03  2.895046722E+03  0.000000000E+00  0.00000E+00  9.000E+00
      21    -1     0     0   501   502  0.000000000E+00  0.000000000E+00 -3.816644210E+02  3.816644210E+02  0.000000000E+00  0.00000E+00  9.000E+00
      25     1     1     2     0     0  1.491950656E+02  2.359962344E+02 -1.356422115E+02  3.346299446E+02  1.250000000E+02  0.00000E+00  9.000E+00
      25     1     1     2     0     0 -2.265969501E+02 -1.513345346E+02  9.369814463E+00  2.999351806E+02  1.250000000E+02  0.00000E+00  9.000E+00
       2     1     1     2   501     0  7.740188448E+01 -8.466169984E+01  2.639654698E+03  2.642146018E+03  0.000000000E+00  0.00000E+00  9.000E+00
#rwgt            1           1  -6.3162891888036893E-002           2       48842           0
</event>
<event>
      5   9999  3.79277E-02  5.00138E+01 -1.00000E+00  1.39069E-01
       2    -1     0     0   502     0  0.000000000E+00  0.000000000E+00  1.911357228E+03  1.911357228E+03  0.000000000E+00  0.00000E+00  9.000E+00
      21    -1     0     0   501   502  0.000000000E+00  0.000000000E+00 -1.296416804E+02  1.296416804E+02  0.000000000E+00  0.00000E+00  9.000E+00
      25     1     1     2     0     0 -1.753461378E+02 -1.279748624E+02  2.055870043E+02  3.240599479E+02  1.250000000E+02  0.00000E+00  9.000E+00
      25     1     1     2     0     0  1.706399664E+02  7.818295989E+01  1.117050403E+02  2.516616566E+02  1.250000000E+02  0.00000E+00  9.000E+00
       2     1     1     2   501     0  4.706171393E+00  4.979190254E+01  1.464423503E+03  1.465277304E+03  0.000000000E+00  0.00000E+00  9.000E+00
#rwgt            1           1   3.7685743730134655E-002           2       49019           0
</event>
<event>
      5   9999  3.79277E-02  2.23514E+01 -1.00000E+00  1.62482E-01
      21    -1     0     0   502   511  0.000000000E+00  0.000000000E+00  2.478270276E+02  2.478270276E+02  0.000000000E+00  0.00000E+00  9.000E+00
      21    -1     0     0   501   502  0.000000000E+00  0.000000000E+00 -1.818374170E+02  1.818374170E+02  0.000000000E+00  0.00000E+00  9.000E+00
      25     1     1     2     0     0  6.239789455E+01 -1.235002396E+02  8.581013313E+01  2.052661330E+02  1.250000000E+02  0.00000E+00  9.000E+00
      25     1     1     2     0     0 -8.265484361E+01  1.329469938E+02 -2.365351330E+01  2.017206361E+02  1.250000000E+02  0.00000E+00  9.000E+00
      21     1     1     2   501   511  2.025694907E+01 -9.446754173E+00  3.832990794E+00  2.267767555E+01  1.397852826E-07  0.00000E+00  9.000E+00
#rwgt            1           1   3.8074546083165725E-002           2       49169           0
</event>
<event>
      5   9999  3.79277E-02  1.58789E+01 -1.00000E+00  1.75085E-01
      21    -1     0     0   502   512  0.000000000E+00  0.000000000E+00  1.303688942E+02  1.303688942E+02  0.000000000E+00  0.00000E+00  9.000E+00
      21    -1     0     0   501   502  0.000000000E+00  0.000000000E+00 -8.176410721E+02  8.176410721E+02  0.000000000E+00  0.00000E+00  9.000E+00
      25     1     1     2     0     0  2.313674088E+02 -7.194517818E+01 -4.152201452E+02  4.967290564E+02  1.250000000E+02  0.00000E+00  9.000E+00
      25     1     1     2     0     0 -2.439659957E+02  8.161033021E+01 -3.028931930E+02  4.165920540E+02  1.250000000E+02  0.00000E+00  9.000E+00
      21     1     1     2   501   512  1.259858696E+01 -9.665152033E+00  3.084116032E+01  3.468885595E+01  4.768371582E-07  0.00000E+00  9.000E+00
#rwgt            1           1   2.9078563603432868E-002           2       49356           0
</event>
<event>
      5   9999  3.79277E-02  2.40548E+01 -1.00000E+00  1.60015E-01
      21    -1     0     0   502   501  0.000000000E+00  0.000000000E+00  2.701877822E+02  2.701877822E+02  0.000000000E+00  0.00000E+00  9.000E+00
      21    -1     0     0   511   502  0.000000000E+00  0.000000000E+00 -6.919099895E+02  6.919099895E+02  0.000000000E+00  0.00000E+00  9.000E+00
      25     1     1     2     0     0 -2.245262577E+02  3.164000988E+02 -3.478291416E+02  5.358462230E+02  1.250000000E+02  0.00000E+00  9.000E+00
      25     1     1     2     0     0  2.010977040E+02 -3.109469136E+02 -5.304563544E+01  3.944199653E+02  1.250000000E+02  0.00000E+00  9.000E+00
      21     1     1     2   511   501  2.342855365E+01 -5.453185278E+00 -2.084743023E+01  3.183158342E+01  6.307962682E-07  0.00000E+00  9.000E+00
#rwgt            1           1   3.2425093116917728E-002           2       49574           0
</event>
<event>
      5   9999  3.79277E-02  5.66864E+01 -1.00000E+00  1.36035E-01
      21    -1     0     0   502   512  0.000000000E+00  0.000000000E+00  1.949254336E+02  1.949254336E+02  0.000000000E+00  0.00000E+00  9.000E+00
      21    -1     0     0   501   502  0.000000000E+00  0.000000000E+00 -6.298123899E+02  6.298123899E+02  0.000000000E+00  0.00000E+00  9.000E+00
      25     1     1     2     0     0  3.393025082E+01 -1.356459672E+02 -5.805847035E+01  1.963335843E+02  1.250000000E+02  0.00000E+00  9.000E+00
      25     1     1     2     0     0 -2.195900543E+01  8.023805548E+01 -4.842222445E+02  5.069679729E+02  1.250000000E+02  0.00000E+00  9.000E+00
      21     1     1     2   501   512 -1.197124539E+01  5.540791174E+01  1.073937586E+02  1.214362663E+02  1.907348633E-06  0.00000E+00  9.000E+00
#rwgt            1           1   4.5689530612096775E-002           2       49759           0
</event>
<event>
      5   9999  3.79277E-02  1.96410E+01 -1.00000E+00  1.67021E-01
      21    -1     0     0   502   501  0.000000000E+00  0.000000000E+00  3.438120628E+02  3.438120628E+02  0.000000000E+00  0.00000E+00  9.000E+00
      21    -1     0     0   511   502  0.000000000E+00  0.000000000E+00 -2.422395534E+02  2.422395534E+02  0.000000000E+00  0.00000E+00  9.000E+00
      25     1     1     2     0     0  5.424575114E+01  2.060980509E+02 -9.140001007E+01  2.634349444E+02  1.250000000E+02  0.00000E+00  9.000E+00
      25     1     1     2     0     0 -6.209415145E+01 -1.880932975E+02  1.921567876E+02  3.029587484E+02  1.250000000E+02  0.00000E+00  9.000E+00
      21     1     1     2   511   501  7.848400318E+00 -1.800475343E+01  8.157319063E-01  1.965792340E+01  1.828051231E-07  0.00000E+00  9.000E+00
#rwgt            1           1   4.9608817199488932E-002           2       49867           0
</event>
<event>
      5   9999  3.79277E-02  2.76507E+01 -1.00000E+00  1.55541E-01
      21    -1     0     0   502   501  0.000000000E+00  0.000000000E+00  1.660609181E+02  1.660609181E+02  0.000000000E+00  0.00000E+00  9.000E+00
      21    -1     0     0   501   512  0.000000000E+00  0.000000000E+00 -5.365945796E+02  5.365945796E+02  0.000000000E+00  0.00000E+00  9.000E+00
      25     1     1     2     0     0  9.935686880E+01 -9.141043131E+01 -4.312647536E+02  4.688730553E+02  1.250000000E+02  0.00000E+00  9.000E+00
      25     1     1     2     0     0 -7.232474934E+01  9.722648416E+01  8.789243710E+01  1.950229194E+02  1.250000000E+02  0.00000E+00  9.000E+00
      21     1     1     2   502   512 -2.703211946E+01 -5.816052853E+00 -2.716134504E+01  3.875952293E+01  4.768371582E-07  0.00000E+00  9.000E+00
#rwgt            1           1   5.0823194262225743E-002           2       50025           0
</event>
<event>
      5   9999  3.79277E-02  3.88730E+01 -1.00000E+00  1.45614E-01
       1    -1     0     0   502     0  0.000000000E+00  0.000000000E+00  1.232826756E+03  1.232826756E+03  0.000000000E+00  0.00000E+00  9.000E+00
      21    -1     0     0   501   502  0.000000000E+00  0.000000000E+00 -8.290327912E+02  8.290327912E+02  0.000000000E+00  0.00000E+00  9.000E+00
      25     1     1     2     0     0  4.226004937E+01  1.516745343E+02 -4.104402131E+02  4.570309012E+02  1.250000000E+02  0.00000E+00  9.000E+00
      25     1     1     2     0     0 -9.277643336E+00 -1.311009621E+02 -3.741564856E+02  4.158023721E+02  1.250000000E+02  0.00000E+00  9.000E+00
       1     1     1     2   501     0 -3.298240604E+01 -2.057357212E+01  1.188390664E+03  1.189026274E+03  2.157918644E-05  0.00000E+00  9.000E+00
#rwgt            1           1   2.6451261264753983E-002           2       50229           0
</event>
<event>
      5   9999  3.79277E-02  1.40016E+01 -1.00000E+00  1.80249E-01
      21    -1     0     0   502   501  0.000000000E+00  0.000000000E+00  8.977936790E+02  8.977936790E+02  0.000000000E+00  0.00000E+00  9.000E+00
      -3    -1     0     0     0   502  0.000000000E+00  0.000000000E+00 -1.841090419E+02  1.841090419E+02  0.000000000E+00  0.00000E+00  9.000E+00
      25     1     1     2     0     0 -6.064494260E+01  4.275113037E+01  6.815340268E+02  6.968637585E+02  1.250000000E+02  0.00000E+00  9.000E+00
      25     1     1     2     0     0  7.054835784E+01 -5.264898735E+01  1.802064350E+02  2.363225463E+02  1.250000000E+02  0.00000E+00  9.000E+00
      -3     1     1     2     0   501 -9.903415238E+00  9.897856975E+00 -1.480558247E+02  1.487164161E+02  2.697398305E-06  0.00000E+00  9.000E+00
#rwgt            1           1   3.5740690341075645E-002           2       50399           0
</event>
<event>
      5   9999  3.79277E-02  8.15617E+01 -1.00000E+00  1.27944E-01
      -3    -1     0     0     0   501  0.000000000E+00  0.000000000E+00  1.325809303E+02  1.325809303E+02  0.000000000E+00  0.00000E+00  9.000E+00
      21    -1     0     0   501   502  0.000000000E+00  0.000000000E+00 -7.852328933E+02  7.852328933E+02  0.000000000E+00  0.00000E+00  9.000E+00
      25     1     1     2     0     0  8.274202230E+01 -6.196191880E+01 -2.335188960E+02  2.843265665E+02  1.250000000E+02  0.00000E+00  9.000E+00
      25     1     1     2     0     0 -1.226227707E+02 -9.184722431E+00 -4.931202299E+02  5.233672364E+02  1.250000000E+02  0.00000E+00  9.000E+00
      -3     1     1     2     0   502  3.988074836E+01  7.114664123E+01  7.398716299E+01  1.101200206E+02  0.000000000E+00  0.00000E+00  9.000E+00
#rwgt            1           1   3.8403288439236898E-002           2       50584           0
</event>
<event>
      5   9999  3.79277E-02  5.39822E+01 -1.00000E+00  1.37203E-01
      21    -1     0     0   511   501  0.000000000E+00  0.000000000E+00  2.012948528E+02  2.012948528E+02  0.000000000E+00  0.00000E+00  9.000E+00
      21    -1     0     0   501   502  0.000000000E+00  0.000000000E+00 -4.668165454E+02  4.668165454E+02  0.000000000E+00  0.00000E+00  9.000E+00
      25     1     1     2     0     0  4.931360751E+01 -2.326000476E+01 -1.583378492E+01  1.372900887E+02  1.250000000E+02  0.00000E+00  9.000E+00
      25     1     1     2     0     0 -5.439660705E+01 -3.048231120E+01 -3.718723181E+02  3.972432292E+02  1.250000000E+02  0.00000E+00  9.000E+00
      21     1     1     2   511   502  5.082999546E+00  5.374231596E+01  1.221844104E+02  1.335780803E+02  1.907348633E-06  0.00000E+00  9.000E+00
#rwgt            1           1   4.4843947318901255E-002           2       50634           0
</event>
<event>
      5   9999  3.79277E-02  3.87998E+01 -1.00000E+00  1.45665E-01
      21    -1     0     0   502   501  0.000000000E+00  0.000000000E+00  4.432401533E+02  4.432401533E+02  0.000000000E+00  0.00000E+00  9.000E+00
       1    -1     0     0   501     0  0.000000000E+00  0.000000000E+00 -2.943782235E+02  2.943782235E+02  0.000000000E+00  0.00000E+00  9.000E+00
      25     1     1     2     0     0 -3.968408019E+01  6.568415142E+01  3.362533030E+02  3.668521742E+02  1.250000000E+02  0.00000E+00  9.000E+00
      25     1     1     2     0     0  9.451089035E-01 -6.785557597E+01  3.380290438E+01  1.461947631E+02  1.250000000E+02  0.00000E+00  9.000E+00
       1     1     1     2   502     0  3.873897129E+01  2.171424548E+00 -2.211942776E+02  2.245714394E+02  2.697398305E-06  0.00000E+00  9.000E+00
#rwgt            1           1   2.0628556860073491E-002           2       50700           0
</event>
<event>
      5   9999  3.79277E-02  6.01865E+01 -1.00000E+00  1.34631E-01
      21    -1     0     0   502   501  0.000000000E+00  0.000000000E+00  3.576446483E+02  3.576446483E+02  0.000000000E+00  0.00000E+00  9.000E+00
      21    -1     0     0   501   511  0.000000000E+00  0.000000000E+00 -4.926264288E+02  4.926264288E+02  0.000000000E+00  0.00000E+00  9.000E+00
      25     1     1     2     0     0 -6.769780439E+01 -6.754834568E+01 -4.816478630E+01  1.645922792E+02  1.250000000E+02  0.00000E+00  9.000E+00
      25     1     1     2     0     0  1.160841256E+02  1.033419492E+02  2.633633124E+02  3.303639160E+02  1.250000000E+02  0.00000E+00  9.000E+00
      21     1     1     2   502   511 -4.838632120E+01 -3.579360356E+01 -3.501803066E+02  3.553148819E+02  0.000000000E+00  0.00000E+00  9.000E+00
#rwgt            1           1   6.0341931477680154E-002           2       50831           0
</event>
<event>
      5   9999  3.79277E-02  5.21512E+01 -1.00000E+00  1.38040E-01
      21    -1     0     0   502   512  0.000000000E+00  0.000000000E+00  2.568212954E+02  2.568212954E+02  0.000000000E+00  0.00000E+00  9.000E+00
      21    -1     0     0   501   502  0.000000000E+00  0.000000000E+00 -2.682033677E+02  2.682033677E+02  0.000000000E+00  0.00000E+00  9.000E+00
      25     1     1     2     0     0 -5.932991577E+01 -1.246561051E+02 -1.489380993E+02  2.384674839E+02  1.250000000E+02  0.00000E+00  9.000E+00
      25     1     1     2     0     0  1.091946536E+02  1.093834193E+02  1.158021172E+02  2.300507230E+02  1.250000000E+02  0.00000E+00  9.000E+00
      21     1     1     2   501   512 -4.986473784E+01  1.527268580E+01  2.175390979E+01  5.650645629E+01  8.259061849E-07  0.00000E+00  9.000E+00
#rwgt            1           1   5.4945754955207649E-002           2       50983           0
</event>
<event>
      5   9999  3.79277E-02  2.15588E+02 -1.00000E+00  1.10474E-01
      21    -1     0     0   502   501  0.000000000E+00  0.000000000E+00  1.016939830E+02  1.016939830E+02  0.000000000E+00  0.00000E+00  9.000E+00
       2    -1     0     0   501     0  0.000000000E+00  0.000000000E+00 -1.401915059E+03  1.401915059E+03  0.000000000E+00  0.00000E+00  9.000E+00
      25     1     1     2     0     0  2.000086675E+01  1.504594964E+02 -3.438157003E+02  3.960711180E+02  1.250000000E+02  0.00000E+00  9.000E+00
      25     1     1     2     0     0  8.207775819E+01  3.943023241E+01 -3.148204886E+01  1.578214847E+02  1.250000000E+02  0.00000E+00  9.000E+00
       2     1     1     2   502     0 -1.020786249E+02 -1.898897288E+02 -9.249233268E+02  9.497164394E+02  1.525878906E-05  0.00000E+00  9.000E+00
#rwgt            1           1   3.1803707127063804E-002           2       51225           0
</event>
<event>
      5   9999  3.79277E-02  4.92061E+01 -1.00000E+00  1.39473E-01
      21    -1     0     0   502   501  0.000000000E+00  0.000000000E+00  8.178776920E+02  8.178776920E+02  0.000000000E+00  0.00000E+00  9.000E+00
      21    -1     0     0   501   511  0.000000000E+00  0.000000000E+00 -4.865720442E+02  4.865720442E+02  0.000000000E+00  0.00000E+00  9.000E+00
      25     1     1     2     0     0  2.265322076E+01  1.552935336E+02  7.496409061E+02  7.760256040E+02  1.250000000E+02  0.00000E+00  9.000E+00
      25     1     1     2     0     0  7.015356682E+00 -1.945493450E+02 -2.037896025E+02  3.083080683E+02  1.250000000E+02  0.00000E+00  9.000E+00
      21     1     1     2   502   511 -2.966857745E+01  3.925581139E+01 -2.145456557E+02  2.201160639E+02  0.000000000E+00  0.00000E+00  9.000E+00
#rwgt            1           1  0.17293794636897716                2       51270           0
</event>
<event>
      5   9999  3.79277E-02  1.82920E+01 -1.00000E+00  1.69633E-01
      21    -1     0     0   512   501  0.000000000E+00  0.000000000E+00  5.645876069E+02  5.645876069E+02  0.000000000E+00  0.00000E+00  9.000E+00
      21    -1     0     0   501   502  0.000000000E+00  0.000000000E+00 -6.835046074E+01  6.835046074E+01  0.000000000E+00  0.00000E+00  9.000E+00
      25     1     1     2     0     0 -1.143458303E+02 -7.785763017E+01  2.666880469E+02  3.253986690E+02  1.250000000E+02  0.00000E+00  9.000E+00
      25     1     1     2     0     0  1.008124205E+02  9.016384468E+01  1.936064607E+02  2.672098887E+02  1.250000000E+02  0.00000E+00  9.000E+00
      21     1     1     2   512   502  1.353340980E+01 -1.230621451E+01  3.594263864E+01  4.032950990E+01  4.768371582E-07  0.00000E+00  9.000E+00
#rwgt            1           1   4.0701188450480104E-002           2       51603           0
</event>
<event>
      5   9999  3.79277E-02  2.75089E+01 -1.00000E+00  1.55702E-01
      21    -1     0     0   502   501  0.000000000E+00  0.000000000E+00  2.629000787E+03  2.629000787E+03  0.000000000E+00  0.00000E+00  9.000E+00
      21    -1     0     0   511   502  0.000000000E+00  0.000000000E+00 -6.526944820E+01  6.526944820E+01  0.000000000E+00  0.00000E+00  9.000E+00
      25     1     1     2     0     0 -8.057345098E+01  4.709405956E+01  2.453291694E+03  2.458246340E+03  1.250000000E+02  0.00000E+00  9.000E+00
      25     1     1     2     0     0  9.296880592E+01 -7.165207613E+01  6.594938921E+01  1.837159243E+02  1.250000000E+02  0.00000E+00  9.000E+00
      21     1     1     2   511   501 -1.239535494E+01  2.455801656E+01  4.449025577E+01  5.230797129E+01  4.768371582E-07  0.00000E+00  9.000E+00
#rwgt            1           1  0.12552613100793605                2       51881           0
</event>
<event>
      5   9999  3.79277E-02  6.45247E+01 -1.00000E+00  1.33038E-01
      21    -1     0     0   502   501  0.000000000E+00  0.000000000E+00  5.595924380E+02  5.595924380E+02  0.000000000E+00  0.00000E+00  9.000E+00
      21    -1     0     0   501   512  0.000000000E+00  0.000000000E+00 -1.306440592E+02  1.306440592E+02  0.000000000E+00  0.00000E+00  9.000E+00
      25     1     1     2     0     0 -1.104514240E+02  1.597953942E+01 -2.729525122E+01  1.697789547E+02  1.250000000E+02  0.00000E+00  9.000E+00
      25     1     1     2     0     0  4.689254490E+01 -2.710159450E+01  4.295406151E+02  4.506257286E+02  1.250000000E+02  0.00000E+00  9.000E+00
      21     1     1     2   502   512  6.355887905E+01  1.112205509E+01  2.670301487E+01  6.983181380E+01  6.743495762E-07  0.00000E+00  9.000E+00
#rwgt            1           1   4.2654068176459739E-002           2       52299           0
</event>
<event>
      5   9999  3.79277E-02  5.37953E+01 -1.00000E+00  1.37287E-01
      21    -1     0     0   511   501  0.000000000E+00  0.000000000E+00  7.453713934E+01  7.453713934E+01  0.000000000E+00  0.00000E+00  9.000E+00
      21    -1     0     0   501   502  0.000000000E+00  0.000000000E+00 -1.014723405E+03  1.014723405E+03  0.000000000E+00  0.00000E+00  9.000E+00
      25     1     1     2     0     0  7.390754975E+00 -3.516642810E+01 -8.733625070E+02  8.829939805E+02  1.250000000E+02  0.00000E+00  9.000E+00
      25     1     1     2     0     0  4.473002266E+01  4.848394729E+01 -4.927528032E+01  1.496813994E+02  1.250000000E+02  0.00000E+00  9.000E+00
      21     1     1     2   511   502 -5.212077764E+01 -1.331751919E+01 -1.754847874E+01  5.658516488E+01  7.539457465E-07  0.00000E+00  9.000E+00
#rwgt            1           1   4.7280157406404365E-002           2       52439           0
</event>
<event>
      5   9999  3.79277E-02  1.93380E+01 -1.00000E+00  1.67584E-01
      21    -1     0     0   502   512  0.000000000E+00  0.000000000E+00  1.467903754E+02  1.467903754E+02  0.000000000E+00  0.00000E+00  9.000E+00
      21    -1     0     0   501   502  0.000000000E+00  0.000000000E+00 -1.088696008E+03  1.088696008E+03  0.000000000E+00  0.00000E+00  9.000E+00
      25     1     1     2     0     0  1.331603485E+02  8.964620491E+01 -6.181525769E+02  6.507731777E+02  1.250000000E+02  0.00000E+00  9.000E+00
      25     1     1     2     0     0 -1.180417586E+02 -7.758863865E+01 -4.337715896E+02  4.730080819E+02  1.250000000E+02  0.00000E+00  9.000E+00
      21     1     1     2   501   512 -1.511858988E+01 -1.205756625E+01  1.100185344E+02  1.117051233E+02  2.697398305E-06  0.00000E+00  9.000E+00
#rwgt            1           1   3.1806828181629998E-002           2       52600           0
</event>
<event>
      5   9999  3.79277E-02  4.12160E+01 -1.00000E+00  1.44038E-01
      21    -1     0     0   511   501  0.000000000E+00  0.000000000E+00  1.803625881E+02  1.803625881E+02  0.000000000E+00  0.00000E+00  9.000E+00
      21    -1     0     0   501   502  0.000000000E+00  0.000000000E+00 -2.526867276E+02  2.526867276E+02  0.000000000E+00  0.00000E+00  9.000E+00
      25     1     1     2     0     0  3.969144474E+01 -2.675511722E+01 -1.726250488E+02  2.184391324E+02  1.250000000E+02  0.00000E+00  9.000E+00
      25     1     1     2     0     0 -4.824515004E+01 -1.356349121E+01  3.803707440E+01  1.399406368E+02  1.250000000E+02  0.00000E+00  9.000E+00
      21     1     1     2   511   502  8.553705306E+00  4.031860843E+01  6.226383478E+01  7.466954655E+01  9.536743164E-07  0.00000E+00  9.000E+00
#rwgt            1           1   4.8151672370600730E-002           2       52744           0
</event>
<event>
      5   9999  3.79277E-02  8.24703E+00 -1.00000E+00  2.05959E-01
      21    -1     0     0   512   501  0.000000000E+00  0.000000000E+00  3.713086587E+02  3.713086587E+02  0.000000000E+00  0.00000E+00  9.000E+00
      21    -1     0     0   501   502  0.000000000E+00  0.000000000E+00 -9.122522656E+01  9.122522656E+01  0.000000000E+00  0.00000E+00  9.000E+00
      25     1     1     2     0     0  1.586040721E+01 -1.055948699E+02  2.178438360E+02  2.729153091E+02  1.250000000E+02  0.00000E+00  9.000E+00
      25     1     1     2     0     0 -1.892456825E+01  1.132515306E+02  5.439213535E+01  1.782345445E+02  1.250000000E+02  0.00000E+00  9.000E+00
      21     1     1     2   512   502  3.064161038E+00 -7.656660709E+00  7.847460821E+00  1.138403169E+01  1.884864366E-07  0.00000E+00  9.000E+00
#rwgt            1           1   2.8470625633772315E-002           2       52876           0
</event>
<event>
      5   9999  3.79277E-02  7.87193E+01 -1.00000E+00  1.28690E-01
      21    -1     0     0   502   501  0.000000000E+00  0.000000000E+00  7.193281716E+01  7.193281716E+01  0.000000000E+00  0.00000E+00  9.000E+00
      21    -1     0     0   511   502  0.000000000E+00  0.000000000E+00 -1.103166138E+03  1.103166138E+03  0.000000000E+00  0.00000E+00  9.000E+00
      25     1     1     2     0     0 -4.500267652E+01  9.175629435E+01 -4.997221824E+02  5.251587551E+02  1.250000000E+02  0.00000E+00  9.000E+00
      25     1     1     2     0     0 -4.198214826E+00 -3.030709824E+01 -1.742781925E+01  1.298648301E+02  1.250000000E+02  0.00000E+00  9.000E+00
      21     1     1     2   511   501  4.920089134E+01 -6.144919610E+01 -5.140833188E+02  5.200753696E+02  7.629394531E-06  0.00000E+00  9.000E+00
#rwgt            1           1   4.7753034854227175E-002           2       53202           0
</event>
<event>
      5   9999  3.79277E-02  2.88527E+01 -1.00000E+00  1.54225E-01
      21    -1     0     0   502   501  0.000000000E+00  0.000000000E+00  9.840668890E+01  9.840668890E+01  0.000000000E+00  0.00000E+00  9.000E+00
      21    -1     0     0   501   512  0.000000000E+00  0.000000000E+00 -4.225780917E+02  4.225780917E+02  0.000000000E+00  0.00000E+00  9.000E+00
      25     1     1     2     0     0 -8.470263983E+01  9.233824262E+01 -2.038064008E+02  2.699313565E+02  1.250000000E+02  0.00000E+00  9.000E+00
      25     1     1     2     0     0  1.094624416E+02 -7.752505803E+01 -7.676536145E+01  1.987714302E+02  1.250000000E+02  0.00000E+00  9.000E+00
      21     1     1     2   502   512 -2.475980179E+01 -1.481318458E+01 -4.359964053E+01  5.228199381E+01  6.743495762E-07  0.00000E+00  9.000E+00
#rwgt            1           1   4.0136592123861017E-002           2       53339           0
</event>
<event>
      5   9999  3.79277E-02  2.22910E+01 -1.00000E+00  1.62574E-01
      21    -1     0     0   502   501  0.000000000E+00  0.000000000E+00  1.320362975E+02  1.320362975E+02  0.000000000E+00  0.00000E+00  9.000E+00
       1    -1     0     0   501     0  0.000000000E+00  0.000000000E+00 -1.332433871E+03  1.332433871E+03  0.000000000E+00  0.00000E+00  9.000E+00
      25     1     1     2     0     0  2.035392698E+01  2.020041698E+02 -2.114171181E+02  3.186568135E+02  1.250000000E+02  0.00000E+00  9.000E+00
      25     1     1     2     0     0 -2.902433992E+01 -1.814685126E+02 -7.948168886E+01  2.360414629E+02  1.250000000E+02  0.00000E+00  9.000E+00
       1     1     1     2   502     0  8.670412941E+00 -2.053565722E+01 -9.094987666E+02  9.097718922E+02  1.525878906E-05  0.00000E+00  9.000E+00
#rwgt            1           1   3.6698750788387295E-002           2       53479           0
</event>
<event>
      5   9999  3.79277E-02  9.51720E+01 -1.00000E+00  1.24802E-01
      21    -1     0     0   511   501  0.000000000E+00  0.000000000E+00  4.245577964E+02  4.245577964E+02  0.000000000E+00  0.00000E+00  9.000E+00
      21    -1     0     0   501   502  0.000000000E+00  0.000000000E+00 -3.150739608E+02  3.150739608E+02  0.000000000E+00  0.00000E+00  9.000E+00
      25     1     1     2     0     0  1.814318626E+02 -8.282179012E+01 -7.175353883E+01  2.460701933E+02  1.250000000E+02  0.00000E+00  9.000E+00
      25     1     1     2     0     0 -8.627437204E+01  8.448323125E+01 -9.732282706E+01  1.991919082E+02  1.250000000E+02  0.00000E+00  9.000E+00
      21     1     1     2   511   502 -9.515749057E+01 -1.661441126E+00  2.785602015E+02  2.943696558E+02  0.000000000E+00  0.00000E+00  9.000E+00
#rwgt            1           1   4.4883822970722499E-002           2       53680           0
</event>
<event>
      5   9999  3.79277E-02  4.65908E+01 -1.00000E+00  1.40848E-01
      -1    -1     0     0     0   501  0.000000000E+00  0.000000000E+00  1.112372565E+03  1.112372565E+03  0.000000000E+00  0.00000E+00  9.000E+00
      21    -1     0     0   501   502  0.000000000E+00  0.000000000E+00 -8.174899414E+01  8.174899414E+01  0.000000000E+00  0.00000E+00  9.000E+00
      25     1     1     2     0     0 -9.349793475E+01 -8.815574243E+01  1.300048074E+02  2.214487496E+02  1.250000000E+02  0.00000E+00  9.000E+00
      25     1     1     2     0     0  1.077705728E+02  4.380497169E+01  1.713158857E+02  2.418832458E+02  1.250000000E+02  0.00000E+00  9.000E+00
      -1     1     1     2     0   502 -1.427263802E+01  4.435077074E+01  7.293028782E+02  7.307895643E+02  0.000000000E+00  0.00000E+00  9.000E+00
#rwgt            1           1   3.7995655155535907E-002           2       53845           0
</event>
<event>
      5   9999  3.79277E-02  2.06529E+02 -1.00000E+00  1.11143E-01
      21    -1     0     0   511   501  0.000000000E+00  0.000000000E+00  4.902779099E+02  4.902779099E+02  0.000000000E+00  0.00000E+00  9.000E+00
      21    -1     0     0   501   502  0.000000000E+00  0.000000000E+00 -2.829036950E+02  2.829036950E+02  0.000000000E+00  0.00000E+00  9.000E+00
      25     1     1     2     0     0 -8.915858251E+01  3.469010298E+01 -1.185626352E+02  1.970653560E+02  1.250000000E+02  0.00000E+00  9.000E+00
      25     1     1     2     0     0  1.062980679E+02  1.711263413E+02  6.991658807E+01  2.471777361E+02  1.250000000E+02  0.00000E+00  9.000E+00
      21     1     1     2   511   502 -1.713948538E+01 -2.058164442E+02  2.560202620E+02  3.289385129E+02  6.607249480E-06  0.00000E+00  9.000E+00
#rwgt            1           1   6.8183868148545726E-002           2       54074           0
</event>
<event>
      5   9999  3.79277E-02  1.72348E+02 -1.00000E+00  1.14052E-01
      21    -1     0     0   502   501  0.000000000E+00  0.000000000E+00  1.125309903E+02  1.125309903E+02  0.000000000E+00  0.00000E+00  9.000E+00
      21    -1     0     0   501   512  0.000000000E+00  0.000000000E+00 -1.263235970E+03  1.263235970E+03  0.000000000E+00  0.00000E+00  9.000E+00
      25     1     1     2     0     0 -9.745192387E+01  9.137050080E+01 -8.097647073E+01  2.000690748E+02  1.250000000E+02  0.00000E+00  9.000E+00
      25     1     1     2     0     0  2.695341807E+02 -8.179564558E+01 -5.843350893E+02  6.606146372E+02  1.250000000E+02  0.00000E+00  9.000E+00
      21     1     1     2   502   512 -1.720822568E+02 -9.574855220E+00 -4.853934201E+02  5.150832488E+02  7.629394531E-06  0.00000E+00  9.000E+00
#rwgt            1           1   2.9360560501229566E-002           2       54134           0
</event>
<event>
      5   9999  3.79277E-02  2.81440E+01 -1.00000E+00  1.54992E-01
      21    -1     0     0   502   511  0.000000000E+00  0.000000000E+00  7.926937406E+01  7.926937406E+01  0.000000000E+00  0.00000E+00  9.000E+00
      21    -1     0     0   501   502  0.000000000E+00  0.000000000E+00 -9.060420901E+02  9.060420901E+02  0.000000000E+00  0.00000E+00  9.000E+00
      25     1     1     2     0     0 -3.117886306E+01 -4.016559448E+01 -8.989972096E+01  1.621491792E+02  1.250000000E+02  0.00000E+00  9.000E+00
      25     1     1     2     0     0  1.039905929E+01  2.118448434E+01 -7.695746797E+02  7.800173783E+02  1.250000000E+02  0.00000E+00  9.000E+00
      21     1     1     2   501   511  2.077980376E+01  1.898111013E+01  3.270168468E+01  4.314490662E+01  9.536743164E-07  0.00000E+00  9.000E+00
#rwgt            1           1   5.2411221531035883E-002           2       54307           0
</event>
<event>
      5   9999  3.79277E-02  4.20474E+00 -1.00000E+00  2.58465E-01
      21    -1     0     0   502   512  0.000000000E+00  0.000000000E+00  1.982344072E+02  1.982344072E+02  0.000000000E+00  0.00000E+00  9.000E+00
      21    -1     0     0   501   502  0.000000000E+00  0.000000000E+00 -2.051844980E+02  2.051844980E+02  0.000000000E+00  0.00000E+00  9.000E+00
      25     1     1     2     0     0  1.105222818E+02  7.118748563E+01  4.858112072E+01  1.877976522E+02  1.250000000E+02  0.00000E+00  9.000E+00
      25     1     1     2     0     0 -1.066801170E+02 -6.947938928E+01 -7.657860683E+01  1.941579664E+02  1.250000000E+02  0.00000E+00  9.000E+00
      21     1     1     2   501   512 -3.842164775E+00 -1.708096343E+00  2.104739532E+01  2.146328663E+01  3.371747881E-07  0.00000E+00  9.000E+00
#rwgt            1           1   3.8994296746271528E-002           2       54455           0
</event>
<event>
      5   9999  3.79277E-02  1.92370E+01 -1.00000E+00  1.67775E-01
      21    -1     0     0   502   511  0.000000000E+00  0.000000000E+00  1.062974805E+02  1.062974805E+02  0.000000000E+00  0.00000E+00  9.000E+00
      21    -1     0     0   501   502  0.000000000E+00  0.000000000E+00 -7.884113819E+02  7.884113819E+02  0.000000000E+00  0.00000E+00  9.000E+00
      25     1     1     2     0     0  1.000694780E+02  9.144977803E+01 -1.350517658E+01  1.848901082E+02  1.250000000E+02  0.00000E+00  9.000E+00
      25     1     1     2     0     0 -1.128572766E+02 -1.058211203E+02 -6.589105253E+02  6.882753481E+02  1.250000000E+02  0.00000E+00  9.000E+00
      21     1     1     2   501   511  1.278779858E+01  1.437134229E+01 -9.698199496E+00  2.154340608E+01  2.064765462E-07  0.00000E+00  9.000E+00
#rwgt            1           1   3.5856206678593558E-002           2       55029           0
</event>
<event>
      5   9999  3.79277E-02  4.19994E+01 -1.00000E+00  1.43539E-01
       1    -1     0     0   502     0  0.000000000E+00  0.000000000E+00  7.756813281E+02  7.756813281E+02  0.000000000E+00  0.00000E+00  9.000E+00
      21    -1     0     0   501   502  0.000000000E+00  0.000000000E+00 -1.577827884E+02  1.577827884E+02  0.000000000E+00  0.00000E+00  9.000E+00
      25     1     1     2     0     0 -1.809473983E+00  1.852922278E+02  2.652636388E+02  3.468807893E+02  1.250000000E+02  0.00000E+00  9.000E+00
      25     1     1     2     0     0  4.371912462E+01 -1.825485472E+02 -5.897399939E+00  2.255994531E+02  1.250000000E+02  0.00000E+00  9.000E+00
       1     1     1     2   501     0 -4.190965063E+01 -2.743680665E+00  3.585323008E+02  3.609838741E+02  3.814697266E-06  0.00000E+00  9.000E+00
#rwgt            1           1   7.5500103184158535E-002           2       55320           0
</event>
<event>
      5   9999  3.79277E-02  3.97054E+00 -1.00000E+00  2.64229E-01
      21    -1     0     0   511   501  0.000000000E+00  0.000000000E+00  2.978018726E+02  2.978018726E+02  0.000000000E+00  0.00000E+00  9.000E+00
      21    -1     0     0   501   502  0.000000000E+00  0.000000000E+00 -1.416700205E+02  1.416700205E+02  0.000000000E+00  0.00000E+00  9.000E+00
      25     1     1     2     0     0  8.105475363E+01 -8.257285937E+01  1.873801685E+02  2.532281140E+02  1.250000000E+02  0.00000E+00  9.000E+00
      25     1     1     2     0     0 -8.367674778E+01  8.555451956E+01 -3.912944960E+01  1.774189611E+02  1.250000000E+02  0.00000E+00  9.000E+00
      21     1     1     2   511   502  2.621994159E+00 -2.981660188E+00  7.881133223E+00  8.824817943E+00  1.685873940E-07  0.00000E+00  9.000E+00
#rwgt            1           1   4.0453362828802505E-002           2       55399           0
</event>
<event>
      5   9999  3.79277E-02  3.42762E+01 -1.00000E+00  1.49126E-01
      21    -1     0     0   502   501  0.000000000E+00  0.000000000E+00  1.359205842E+02  1.359205842E+02  0.000000000E+00  0.00000E+00  9.000E+00
      21    -1     0     0   501   512  0.000000000E+00  0.000000000E+00 -5.459953119E+02  5.459953119E+02  0.000000000E+00  0.00000E+00  9.000E+00
      25     1     1     2     0     0  1.428971178E+02 -1.674327212E+02 -2.911680646E+02  3.858200932E+02  1.250000000E+02  0.00000E+00  9.000E+00
      25     1     1     2     0     0 -1.378110352E+02  1.335359306E+02 -7.625569343E+01  2.413786588E+02  1.250000000E+02  0.00000E+00  9.000E+00
      21     1     1     2   502   512 -5.086082652E+00  3.389679066E+01 -4.265096964E+01  5.471714416E+01  8.259061849E-07  0.00000E+00  9.000E+00
#rwgt            1           1   2.9281105560384428E-002           2       55917           0
</event>
<event>
      5   9999  3.79277E-02  3.62691E+01 -1.00000E+00  1.47528E-01
      21    -1     0     0   502   501  0.000000000E+00  0.000000000E+00  7.442617224E+02  7.442617224E+02  0.000000000E+00  0.00000E+00  9.000E+00
      21    -1     0     0   501   511  0.000000000E+00  0.000000000E+00 -8.416444703E+01  8.416444703E+01  0.000000000E+00  0.00000E+00  9.000E+00
      25     1     1     2     0     0 -2.272718721E+01  2.118199688E+01  5.176265787E+02  5.334111707E+02  1.250000000E+02  0.00000E+00  9.000E+00
      25     1     1     2     0     0  2.551277593E+01  1.497995033E+01  1.935935647E+02  2.323333143E+02  1.250000000E+02  0.00000E+00  9.000E+00
      21     1     1     2   502   511 -2.785588715E+00 -3.616194721E+01 -5.112286802E+01  6.268168445E+01  2.431401974E-06  0.00000E+00  9.000E+00
#rwgt            1           1   4.3834160025805070E-002           2       56064           0
</event>
<event>
      5   9999  3.79277E-02  1.23157E+01 -1.00000E+00  1.85850E-01
      21    -1     0     0   502   512  0.000000000E+00  0.000000000E+00  7.169743049E+02  7.169743049E+02  0.000000000E+00  0.00000E+00  9.000E+00
      21    -1     0     0   501   502  0.000000000E+00  0.000000000E+00 -6.779639790E+01  6.779639790E+01  0.000000000E+00  0.00000E+00  9.000E+00
      25     1     1     2     0     0 -6.045525846E+01  1.165517469E+02  1.223589425E+02  2.187141029E+02  1.250000000E+02  0.00000E+00  9.000E+00
      25     1     1     2     0     0  6.941796673E+01 -1.249984787E+02  4.527307660E+02  4.909517494E+02  1.250000000E+02  0.00000E+00  9.000E+00
      21     1     1     2   501   512 -8.962708277E+00  8.446731829E+00  7.408819846E+01  7.510485051E+01  1.651812370E-06  0.00000E+00  9.000E+00
#rwgt            1           1   4.8146108755636213E-002           2       56225           0
</event>
<event>
      5   9999  3.79277E-02  9.42973E+01 -1.00000E+00  1.24986E-01
       2    -1     0     0   502     0  0.000000000E+00  0.000000000E+00  4.705882048E+03  4.705882048E+03  0.000000000E+00  0.00000E+00  9.000E+00
      21    -1     0     0   501   502  0.000000000E+00  0.000000000E+00 -2.119926807E+01  2.119926807E+01  0.000000000E+00  0.00000E+00  9.000E+00
      25     1     1     2     0     0  9.091592121E+01 -2.290737859E+02  1.314925896E+03  1.343650109E+03  1.250000000E+02  0.00000E+00  9.000E+00
      25     1     1     2     0     0 -2.673654865E+01  1.599869858E+02  2.008651926E+03  2.019063703E+03  1.250000000E+02  0.00000E+00  9.000E+00
       2     1     1     2   501     0 -6.417937256E+01  6.908680013E+01  1.361104958E+03  1.364367504E+03  1.525878906E-05  0.00000E+00  9.000E+00
#rwgt            1           1   9.3440391259045463E-002           2       56471           0
</event>
<event>
      5   9999  3.79277E-02  2.01075E+01 -1.00000E+00  1.66177E-01
      21    -1     0     0   502   501  0.000000000E+00  0.000000000E+00  6.099373907E+02  6.099373907E+02  0.000000000E+00  0.00000E+00  9.000E+00
      21    -1     0     0   501   511  0.000000000E+00  0.000000000E+00 -7.839083304E+01  7.839083304E+01  0.000000000E+00  0.00000E+00  9.000E+00
      25     1     1     2     0     0  4.122664353E+01 -7.440224072E+01  2.323371493E+02  2.772018768E+02  1.250000000E+02  0.00000E+00  9.000E+00
      25     1     1     2     0     0 -5.372105083E+01  9.015659589E+01  3.335444378E+02  3.713368486E+02  1.250000000E+02  0.00000E+00  9.000E+00
      21     1     1     2   502   511  1.249440730E+01 -1.575435517E+01 -3.433502955E+01  3.978949830E+01  1.066240300E-06  0.00000E+00  9.000E+00
#rwgt            1           1   4.6384914751112775E-002           2       56528           0
</event>
<event>
      5   9999  3.79277E-02  6.81445E+01 -1.00000E+00  1.31814E-01
      21    -1     0     0   502   501  0.000000000E+00  0.000000000E+00  2.380531447E+02  2.380531447E+02  0.000000000E+00  0.00000E+00  9.000E+00
      21    -1     0     0   501   512  0.000000000E+00  0.000000000E+00 -3.829676356E+02  3.829676356E+02  0.000000000E+00  0.00000E+00  9.000E+00
      25     1     1     2     0     0 -5.275945808E+01 -1.481926015E+01 -3.026954535E+01  1.398013457E+02  1.250000000E+02  0.00000E+00  9.000E+00
      25     1     1     2     0     0  1.208970176E+02  1.578913802E+01  1.360933796E+02  2.213860739E+02  1.250000000E+02  0.00000E+00  9.000E+00
      21     1     1     2   502   512 -6.813755947E+01 -9.698778673E-01 -2.507383251E+02  2.598333607E+02  6.031565972E-06  0.00000E+00  9.000E+00
#rwgt            1           1   4.1138972712580171E-002           2       56839           0
</event>
<event>
      5   9999  3.79277E-02  3.23106E+01 -1.00000E+00  1.50835E-01
      21    -1     0     0   502   511  0.000000000E+00  0.000000000E+00  8.841816198E+01  8.841816198E+01  0.000000000E+00  0.00000E+00  9.000E+00
      21    -1     0     0   501   502  0.000000000E+00  0.000000000E+00 -6.127055913E+02  6.127055913E+02  0.000000000E+00  0.00000E+00  9.000E+00
      25     1     1     2     0     0  9.871366976E+01  1.272312708E+02 -2.456928695E+02  3.192525192E+02  1.250000000E+02  0.00000E+00  9.000E+00
      25     1     1     2     0     0 -9.704078185E+01 -1.594985037E+02 -2.632693277E+02  3.461104230E+02  1.250000000E+02  0.00000E+00  9.000E+00
      21     1     1     2   501   511 -1.672887908E+00  3.226723287E+01 -1.532523212E+01  3.576081110E+01  4.460403188E-07  0.00000E+00  9.000E+00
#rwgt            2          11   2.6936482646957218E-003           2       56928           0
</event>
<event>
      5   9999  3.79277E-02  5.16027E+01 -1.00000E+00  1.38298E-01
      21    -1     0     0   512   501  0.000000000E+00  0.000000000E+00  9.359273516E+02  9.359273516E+02  0.000000000E+00  0.00000E+00  9.000E+00
      21    -1     0     0   501   502  0.000000000E+00  0.000000000E+00 -4.601396514E+01  4.601396514E+01  0.000000000E+00  0.00000E+00  9.000E+00
      25     1     1     2     0     0 -8.032992180E+01  5.185006796E+01  2.516836403E+02  2.968349385E+02  1.250000000E+02  0.00000E+00  9.000E+00
      25     1     1     2     0     0  1.275039874E+02 -3.093488557E+01  3.704321549E+02  4.123823654E+02  1.250000000E+02  0.00000E+00  9.000E+00
      21     1     1     2   512   502 -4.717406555E+01 -2.091518239E+01  2.677975913E+02  2.727240129E+02  3.814697266E-06  0.00000E+00  9.000E+00
#rwgt            1           1   1.6090205364822890E-002           2       56948           0
</event>
<event>
      5   9999  3.79277E-02  1.97925E+01 -1.00000E+00  1.66744E-01
      21    -1     0     0   502   501  0.000000000E+00  0.000000000E+00  8.141635614E+01  8.141635614E+01  0.000000000E+00  0.00000E+00  9.000E+00
      21    -1     0     0   511   502  0.000000000E+00  0.000000000E+00 -8.303609446E+02  8.303609446E+02  0.000000000E+00  0.00000E+00  9.000E+00
      25     1     1     2     0     0  3.523353290E+01 -6.772464871E+01 -6.823956007E+02  6.979375228E+02  1.250000000E+02  0.00000E+00  9.000E+00
      25     1     1     2     0     0 -4.661510818E+01  8.391737543E+01 -1.464057188E+01  1.582859455E+02  1.250000000E+02  0.00000E+00  9.000E+00
      21     1     1     2   511   501  1.138157528E+01 -1.619272672E+01 -5.190841596E+01  5.555383247E+01  9.536743164E-07  0.00000E+00  9.000E+00
#rwgt            1           1   3.9201466239825282E-002           2       57044           0
</event>
<event>
      5   9999  3.79277E-02  7.07509E+01 -1.00000E+00  1.30986E-01
      21    -1     0     0   502   501  0.000000000E+00  0.000000000E+00  7.564261703E+02  7.564261703E+02  0.000000000E+00  0.00000E+00  9.000E+00
      21    -1     0     0   512   502  0.000000000E+00  0.000000000E+00 -1.183735718E+02  1.183735718E+02  0.000000000E+00  0.00000E+00  9.000E+00
      25     1     1     2     0     0 -1.237291291E+02  1.944697571E+02  4.423339120E+02  5.142097564E+02  1.250000000E+02  0.00000E+00  9.000E+00
      25     1     1     2     0     0  5.332104241E+01 -1.875128745E+02  1.407786477E+02  2.710126184E+02  1.250000000E+02  0.00000E+00  9.000E+00
      21     1     1     2   512   501  7.040808665E+01 -6.956882625E+00  5.494003880E+01  8.957736737E+01  1.168007728E-06  0.00000E+00  9.000E+00
#rwgt            1           1   3.8182843259667539E-002           2       57243           0
</event>
<event>
      5   9999  3.79277E-02  1.38554E+02 -1.00000E+00  1.17776E-01
      21    -1     0     0   511   501  0.000000000E+00  0.000000000E+00  7.105219269E+02  7.105219269E+02  0.000000000E+00  0.00000E+00  9.000E+00
      21    -1     0     0   501   502  0.000000000E+00  0.000000000E+00 -1.312580838E+02  1.312580838E+02  0.000000000E+00  0.00000E+00  9.000E+00
      25     1     1     2     0     0 -1.677833923E+02  5.487001303E+01  2.923268200E+02  3.636508693E+02  1.250000000E+02  0.00000E+00  9.000E+00
      25     1     1     2     0     0  9.572820433E+01 -1.732136430E+02  1.262392044E+02  2.659477241E+02  1.250000000E+02  0.00000E+00  9.000E+00
      21     1     1     2   511   502  7.205518794E+01  1.183436300E+02  1.606978187E+02  2.121814172E+02  4.264961200E-06  0.00000E+00  9.000E+00
#rwgt            2          11   2.6922906137173057E-003           2       57536           0
</event>
<event>
      5   9999  3.79277E-02  4.96490E+01 -1.00000E+00  1.39250E-01
       4    -1     0     0   502     0  0.000000000E+00  0.000000000E+00  6.303117266E+01  6.303117266E+01  0.000000000E+00  0.00000E+00  9.000E+00
      21    -1     0     0   501   502  0.000000000E+00  0.000000000E+00 -9.759873650E+02  9.759873650E+02  0.000000000E+00  0.00000E+00  9.000E+00
      25     1     1     2     0     0 -4.806462392E+01 -7.001585852E+01 -6.874289794E+02  7.038437542E+02  1.250000000E+02  0.00000E+00  9.000E+00
      25     1     1     2     0     0  8.093895630E+01  3.280971039E+01 -2.392059211E+02  2.836759850E+02  1.250000000E+02  0.00000E+00  9.000E+00
       4     1     1     2   501     0 -3.287433238E+01  3.720614813E+01  1.367870824E+01  5.149879850E+01  1.369610464E-06  0.00000E+00  9.000E+00
#rwgt            1           1   4.7502885104770416E-002           2       57586           0
</event>
<event>
      5   9999  3.79277E-02  5.84907E+01 -1.00000E+00  1.35297E-01
      21    -1     0     0   502   501  0.000000000E+00  0.000000000E+00  9.118424448E+02  9.118424448E+02  0.000000000E+00  0.00000E+00  9.000E+00
      21    -1     0     0   501   511  0.000000000E+00  0.000000000E+00 -1.758096598E+02  1.758096598E+02  0.000000000E+00  0.00000E+00  9.000E+00
      25     1     1     2     0     0 -1.848392632E+02 -8.067958846E+01  6.833700502E+02  7.233908866E+02  1.250000000E+02  0.00000E+00  9.000E+00
      25     1     1     2     0     0  2.370846417E+02  1.069775052E+02  4.696807870E+00  2.886180416E+02  1.250000000E+02  0.00000E+00  9.000E+00
      21     1     1     2   502   511 -5.224537852E+01 -2.629791672E+01  4.796592684E+01  7.564317641E+01  9.536743164E-07  0.00000E+00  9.000E+00
#rwgt            1           1   4.0469189094542390E-002           2       57695           0
</event>
<event>
      5   9999  3.79277E-02  5.79457E+01 -1.00000E+00  1.35517E-01
      21    -1     0     0   502   501  0.000000000E+00  0.000000000E+00  1.025532827E+02  1.025532827E+02  0.000000000E+00  0.00000E+00  9.000E+00
       2    -1     0     0   501     0  0.000000000E+00  0.000000000E+00 -1.431733443E+03  1.431733443E+03  0.000000000E+00  0.00000E+00  9.000E+00
      25     1     1     2     0     0 -7.114685023E+01  7.289537148E+01 -3.205118082E+02  3.587874422E+02  1.250000000E+02  0.00000E+00  9.000E+00
      25     1     1     2     0     0  3.492482253E+01 -1.181244800E+02 -1.066778078E+01  1.758179102E+02  1.250000000E+02  0.00000E+00  9.000E+00
       2     1     1     2   502     0  3.622202770E+01  4.522910856E+01 -9.980005715E+02  9.996813734E+02  1.525878906E-05  0.00000E+00  9.000E+00
#rwgt            1           1   2.3486288445613863E-002           2       57920           0
</event>
<event>
      5   9999  3.79277E-02  1.98538E+02 -1.00000E+00  1.11764E-01
      21    -1     0     0   502   501  0.000000000E+00  0.000000000E+00  6.075535686E+02  6.075535686E+02  0.000000000E+00  0.00000E+00  9.000E+00
      21    -1     0     0   501   511  0.000000000E+00  0.000000000E+00 -3.089761117E+02  3.089761117E+02  0.000000000E+00  0.00000E+00  9.000E+00
      25     1     1     2     0     0 -5.220192082E+01 -1.388917421E+02  1.645761777E+01  1.947095523E+02  1.250000000E+02  0.00000E+00  9.000E+00
      25     1     1     2     0     0  1.758657562E+02 -1.642861406E+01  4.252024619E+02  4.770962138E+02  1.250000000E+02  0.00000E+00  9.000E+00
      21     1     1     2   502   511 -1.236638354E+02  1.553203562E+02 -1.430826228E+02  2.447239142E+02  3.303624740E-06  0.00000E+00  9.000E+00
#rwgt            2          11   2.6046649009498542E-003           2       58180           0
</event>
<event>
      5   9999  3.79277E-02  5.70544E+01 -1.00000E+00  1.35882E-01
      21    -1     0     0   512   501  0.000000000E+00  0.000000000E+00  2.101816744E+02  2.101816744E+02  0.000000000E+00  0.00000E+00  9.000E+00
      21    -1     0     0   501   502  0.000000000E+00  0.000000000E+00 -4.440098816E+02  4.440098816E+02  0.000000000E+00  0.00000E+00  9.000E+00
      25     1     1     2     0     0  1.531703052E+02 -1.569989158E+02 -1.473755165E+02  2.923257512E+02  1.250000000E+02  0.00000E+00  9.000E+00
      25     1     1     2     0     0 -9.660424833E+01  1.495498890E+02 -1.590876233E+02  2.695021744E+02  1.250000000E+02  0.00000E+00  9.000E+00
      21     1     1     2   512   502 -5.656605687E+01  7.449026720E+00  7.263493257E+01  9.236363038E+01  2.697398305E-06  0.00000E+00  9.000E+00
#rwgt            1           1   3.3585550858009988E-002           2       58245           0
</event>
<event>
      5   9999  3.79277E-02  2.72023E+01 -1.00000E+00  1.56053E-01
      21    -1     0     0   511   501  0.000000000E+00  0.000000000E+00  2.284732763E+02  2.284732763E+02  0.000000000E+00  0.00000E+00  9.000E+00
      21    -1     0     0   501   502  0.000000000E+00  0.000000000E+00 -1.381531274E+02  1.381531274E+02  0.000000000E+00  0.00000E+00  9.000E+00
      25     1     1     2     0     0  1.047647603E+01 -1.053403657E+02  1.681412944E+01  1.646634876E+02  1.250000000E+02  0.00000E+00  9.000E+00
      25     1     1     2     0     0 -3.547972080E+01  9.462563742E+01  6.582157850E+01  1.736960047E+02  1.250000000E+02  0.00000E+00  9.000E+00
      21     1     1     2   511   502  2.500324477E+01  1.071472828E+01  7.684440904E+00  2.826691145E+01  4.380028980E-07  0.00000E+00  9.000E+00
#rwgt            1           1   2.4554707046395938E-002           2       58440           0
</event>
<event>
      5   9999  3.79277E-02  4.84511E+01 -1.00000E+00  1.39860E-01
      21    -1     0     0   512   501  0.000000000E+00  0.000000000E+00  6.584683200E+01  6.584683200E+01  0.000000000E+00  0.00000E+00  9.000E+00
      21    -1     0     0   501   502  0.000000000E+00  0.000000000E+00 -1.273298700E+03  1.273298700E+03  0.000000000E+00  0.00000E+00  9.000E+00
      25     1     1     2     0     0 -2.086866368E+01 -1.877266382E+02 -3.872627695E+02  4.486359821E+02  1.250000000E+02  0.00000E+00  9.000E+00
      25     1     1     2     0     0  1.099093976E+01  2.351601380E+02 -7.891989479E+02  8.329952405E+02  1.250000000E+02  0.00000E+00  9.000E+00
      21     1     1     2   512   502  9.877723915E+00 -4.743349976E+01 -3.099015017E+01  5.751430897E+01  9.536743164E-07  0.00000E+00  9.000E+00
#rwgt            1           1   4.1833211692395317E-002           2       58629           0
</event>
<event>
      5   9999  3.79277E-02  4.42304E+01 -1.00000E+00  1.42183E-01
       2    -1     0     0   502     0  0.000000000E+00  0.000000000E+00  2.057552809E+03  2.057552809E+03  0.000000000E+00  0.00000E+00  9.000E+00
      21    -1     0     0   501   502  0.000000000E+00  0.000000000E+00 -3.875154045E+01  3.875154045E+01  0.000000000E+00  0.00000E+00  9.000E+00
      25     1     1     2     0     0 -7.352931122E+01 -2.102934425E+02  7.858161053E+02  8.262940414E+02  1.250000000E+02  0.00000E+00  9.000E+00
      25     1     1     2     0     0  1.120587992E+02  1.885723776E+02  1.131172523E+03  1.159005174E+03  1.250000000E+02  0.00000E+00  9.000E+00
       2     1     1     2   501     0 -3.852948802E+01  2.172106489E+01  1.018126402E+02  1.110051342E+02  0.000000000E+00  0.00000E+00  9.000E+00
#rwgt            1           1   3.0107192799097470E-002           2       58851           0
</event>
<event>
      5   9999  3.79277E-02  2.48273E+01 -1.00000E+00  1.58977E-01
      -4    -1     0     0     0   501  0.000000000E+00  0.000000000E+00  3.908326499E+02  3.908326499E+02  0.000000000E+00  0.00000E+00  9.000E+00
      21    -1     0     0   501   502  0.000000000E+00  0.000000000E+00 -2.721880986E+02  2.721880986E+02  0.000000000E+00  0.00000E+00  9.000E+00
      25     1     1     2     0     0 -2.301342945E+02 -5.612462058E+01  8.916150886E+01  2.822880465E+02  1.250000000E+02  0.00000E+00  9.000E+00
      25     1     1     2     0     0  2.496021820E+02  7.153221345E+01 -5.439203953E+01  2.932602953E+02  1.250000000E+02  0.00000E+00  9.000E+00
      -4     1     1     2     0   502 -1.946788746E+01 -1.540759287E+01  8.387508203E+01  8.747240677E+01  9.536743164E-07  0.00000E+00  9.000E+00
#rwgt            1           1   3.7509610883277957E-002           2       59066           0
</event>
<event>
      5   9999  3.79277E-02  7.00372E+01 -1.00000E+00  1.31209E-01
      21    -1     0     0   502   511  0.000000000E+00  0.000000000E+00  1.305304784E+03  1.305304784E+03  0.000000000E+00  0.00000E+00  9.000E+00
      21    -1     0     0   501   502  0.000000000E+00  0.000000000E+00 -5.997153444E+02  5.997153444E+02  0.000000000E+00  0.00000E+00  9.000E+00
      25     1     1     2     0     0 -9.164108043E+01  3.205354643E+02 -2.253179633E+02  4.213481412E+02  1.250000000E+02  0.00000E+00  9.000E+00
      25     1     1     2     0     0  2.200214176E+01 -3.130768893E+02 -1.716222255E+02  3.789200722E+02  1.250000000E+02  0.00000E+00  9.000E+00
      21     1     1     2   501   511  6.963893867E+01 -7.458574975E+00  1.102529629E+03  1.104751915E+03  2.157918644E-05  0.00000E+00  9.000E+00
#rwgt            1           1   3.4517479446699674E-002           2       59418           0
</event>
<event>
      5   9999  3.79277E-02  3.05412E+01 -1.00000E+00  1.52502E-01
      21    -1     0     0   502   501  0.000000000E+00  0.000000000E+00  3.648577663E+02  3.648577663E+02  0.000000000E+00  0.00000E+00  9.000E+00
      21    -1     0     0   512   502  0.000000000E+00  0.000000000E+00 -3.853938020E+02  3.853938020E+02  0.000000000E+00  0.00000E+00  9.000E+00
      25     1     1     2     0     0  1.401875828E+02  2.954132102E+02  9.979929928E+01  3.640143174E+02  1.250000000E+02  0.00000E+00  9.000E+00
      25     1     1     2     0     0 -1.159802941E+02 -2.767913393E+02 -7.850536360E+01  3.344442648E+02  1.250000000E+02  0.00000E+00  9.000E+00
      21     1     1     2   512   501 -2.420728872E+01 -1.862187094E+01 -4.182997135E+01  5.179298608E+01  4.768371582E-07  0.00000E+00  9.000E+00
#rwgt            1           1  0.19979124419988620                2       59626           0
</event>
<event>
      5   9999  3.79277E-02  3.54532E+01 -1.00000E+00  1.48167E-01
      21    -1     0     0   502   501  0.000000000E+00  0.000000000E+00  3.695381464E+02  3.695381464E+02  0.000000000E+00  0.00000E+00  9.000E+00
      21    -1     0     0   501   511  0.000000000E+00  0.000000000E+00 -1.397608566E+03  1.397608566E+03  0.000000000E+00  0.00000E+00  9.000E+00
      25     1     1     2     0     0  1.086904759E+02  1.076345309E+02  2.522801713E+02  3.204201876E+02  1.250000000E+02  0.00000E+00  9.000E+00
      25     1     1     2     0     0 -1.047414902E+02 -7.240199221E+01 -1.302630274E+01  1.789064359E+02  1.250000000E+02  0.00000E+00  9.000E+00
      21     1     1     2   502   511 -3.948985673E+00 -3.523253872E+01 -1.267324289E+03  1.267820089E+03  1.525878906E-05  0.00000E+00  9.000E+00
#rwgt            1           1   3.6225099334268776E-002           2       59754           0
</event>
<event>
      5   9999  3.79277E-02  2.84576E+01 -1.00000E+00  1.54649E-01
      21    -1     0     0   512   501  0.000000000E+00  0.000000000E+00  1.997207996E+02  1.997207996E+02  0.000000000E+00  0.00000E+00  9.000E+00
      21    -1     0     0   501   502  0.000000000E+00  0.000000000E+00 -5.192978433E+02  5.192978433E+02  0.000000000E+00  0.00000E+00  9.000E+00
      25     1     1     2     0     0  1.922438109E+02 -3.450334345E+01 -1.227463963E+02  2.623734768E+02  1.250000000E+02  0.00000E+00  9.000E+00
      25     1     1     2     0     0 -1.734682429E+02  1.311842150E+01 -2.892544060E+02  3.599394889E+02  1.250000000E+02  0.00000E+00  9.000E+00
      21     1     1     2   512   502 -1.877556805E+01  2.138492195E+01  9.242375855E+01  9.670567712E+01  1.348699152E-06  0.00000E+00  9.000E+00
#rwgt            1           1   3.4183428699241306E-002           2       59950           0
</event>
<event>
      5   9999 -3.79277E-02  1.34430E+02 -1.00000E+00  1.18312E-01
      21    -1     0     0   511   501  0.000000000E+00  0.000000000E+00  1.116863237E+02  1.116863237E+02  0.000000000E+00  0.00000E+00  9.000E+00
      21    -1     0     0   501   502  0.000000000E+00  0.000000000E+00 -1.060401992E+03  1.060401992E+03  0.000000000E+00  0.00000E+00  9.000E+00
      25     1     1     2     0     0 -2.299748669E+02  1.228072912E+02 -6.322107252E+02  6.951873641E+02  1.250000000E+02  0.00000E+00  9.000E+00
      25     1     1     2     0     0  9.924186465E+01 -1.541155867E+02 -1.855679731E+02  2.892421726E+02  1.250000000E+02  0.00000E+00  9.000E+00
      21     1     1     2   511   502  1.307330022E+02  3.130829548E+01 -1.309369703E+02  1.876587792E+02  3.814697266E-06  0.00000E+00  9.000E+00
#rwgt            1           1  -1.1517462360733813E-002           2       60083           0
</event>
<event>
      5   9999  3.79277E-02  3.60102E+01 -1.00000E+00  1.47728E-01
      21    -1     0     0   502   512  0.000000000E+00  0.000000000E+00  1.290080841E+02  1.290080841E+02  0.000000000E+00  0.00000E+00  9.000E+00
      21    -1     0     0   501   502  0.000000000E+00  0.000000000E+00 -1.272292003E+03  1.272292003E+03  0.000000000E+00  0.00000E+00  9.000E+00
      25     1     1     2     0     0 -1.014012290E+02 -2.047152559E+02 -2.993887343E+02  3.967986384E+02  1.250000000E+02  0.00000E+00  9.000E+00
      25     1     1     2     0     0  1.237543400E+02  2.329477561E+02 -8.953313421E+02  9.417128043E+02  1.250000000E+02  0.00000E+00  9.000E+00
      21     1     1     2   501   512 -2.235311101E+01 -2.823250021E+01  5.143615720E+01  6.278864473E+01  2.431401974E-06  0.00000E+00  9.000E+00
#rwgt            1           1   4.1461048166108787E-002           2       60155           0
</event>
<event>
      5   9999  3.79277E-02  9.33916E+01 -1.00000E+00  1.25178E-01
      21    -1     0     0   502   501  0.000000000E+00  0.000000000E+00  5.846573842E+02  5.846573842E+02  0.000000000E+00  0.00000E+00  9.000E+00
      21    -1     0     0   511   502  0.000000000E+00  0.000000000E+00 -4.017407046E+02  4.017407046E+02  0.000000000E+00  0.00000E+00  9.000E+00
      25     1     1     2     0     0 -5.930811987E+01 -2.832364447E+02  2.106154919E+02  3.791097758E+02  1.250000000E+02  0.00000E+00  9.000E+00
      25     1     1     2     0     0 -3.371640674E+01  2.915083859E+02  1.893958647E+02  3.709578530E+02  1.250000000E+02  0.00000E+00  9.000E+00
      21     1     1     2   511   501  9.302452661E+01 -8.271941250E+00 -2.170946770E+02  2.363304600E+02  2.697398305E-06  0.00000E+00  9.000E+00
#rwgt            1           1   3.5187336084634632E-002           2       60548           0
</event>
<event>
      5   9999  3.79277E-02  3.45787E+01 -1.00000E+00  1.48875E-01
      21    -1     0     0   502   512  0.000000000E+00  0.000000000E+00  7.531061515E+02  7.531061515E+02  0.000000000E+00  0.00000E+00  9.000E+00
      21    -1     0     0   501   502  0.000000000E+00  0.000000000E+00 -7.441011618E+01  7.441011618E+01  0.000000000E+00  0.00000E+00  9.000E+00
      25     1     1     2     0     0  3.988041999E-01 -6.971449173E+01  5.576661920E+02  5.757402636E+02  1.250000000E+02  0.00000E+00  9.000E+00
      25     1     1     2     0     0  2.727592365E+01  4.898294712E+01  1.214768932E+01  1.375349827E+02  1.250000000E+02  0.00000E+00  9.000E+00
      21     1     1     2   501   512 -2.767472785E+01  2.073154460E+01  1.088821540E+02  1.142410214E+02  1.348699152E-06  0.00000E+00  9.000E+00
#rwgt            1           1   5.0789702397677765E-002           2       60643           0
</event>
<event>
      5   9999  3.79277E-02  6.26984E+01 -1.00000E+00  1.33690E-01
      21    -1     0     0   511   501  0.000000000E+00  0.000000000E+00  2.073386817E+02  2.073386817E+02  0.000000000E+00  0.00000E+00  9.000E+00
      21    -1     0     0   501   502  0.000000000E+00  0.000000000E+00 -7.034665980E+02  7.034665980E+02  0.000000000E+00  0.00000E+00  9.000E+00
      25     1     1     2     0     0  1.665762820E+02 -6.047679222E+00  9.677803163E+01  2.297285780E+02  1.250000000E+02  0.00000E+00  9.000E+00
      25     1     1     2     0     0 -1.478464847E+02  6.588312514E+01 -5.827086644E+02  6.175544970E+02  1.250000000E+02  0.00000E+00  9.000E+00
      21     1     1     2   511   502 -1.872979731E+01 -5.983544591E+01 -1.019728353E+01  6.352220467E+01  8.513246093E-07  0.00000E+00  9.000E+00
#rwgt            1           1   5.0075745229266694E-002           2       60710           0
</event>
<event>
      5   9999  3.79277E-02  8.17681E+01 -1.00000E+00  1.27892E-01
      21    -1     0     0   502   501  0.000000000E+00  0.000000000E+00  3.354692192E+02  3.354692192E+02  0.000000000E+00  0.00000E+00  9.000E+00
      21    -1     0     0   501   512  0.000000000E+00  0.000000000E+00 -2.275546134E+02  2.275546134E+02  0.000000000E+00  0.00000E+00  9.000E+00
      25     1     1     2     0     0 -9.946575660E+01 -6.239742592E+01  1.621941505E+02  2.360483382E+02  1.250000000E+02  0.00000E+00  9.000E+00
      25     1     1     2     0     0  1.702003782E+02  2.137742470E+01  2.421742114E+01  2.136273543E+02  1.250000000E+02  0.00000E+00  9.000E+00
      21     1     1     2   502   512 -7.073462163E+01  4.102000122E+01 -7.849696589E+01  1.133481400E+02  2.132480600E-06  0.00000E+00  9.000E+00
#rwgt            1           1   4.8068184411513011E-002           2       60996           0
</event>
<event>
      5   9999  3.79277E-02  7.80275E+01 -1.00000E+00  1.28876E-01
       2    -1     0     0   502     0  0.000000000E+00  0.000000000E+00  1.522654785E+03  1.522654785E+03  0.000000000E+00  0.00000E+00  9.000E+00
      21    -1     0     0   501   502  0.000000000E+00  0.000000000E+00 -1.405347669E+02  1.405347669E+02  0.000000000E+00  0.00000E+00  9.000E+00
      25     1     1     2     0     0 -1.296247460E+01 -2.304956274E+02  3.804390237E+02  4.622284184E+02  1.250000000E+02  0.00000E+00  9.000E+00
      25     1     1     2     0     0  5.452671030E+01  1.644600301E+02  1.823465467E+01  2.144242670E+02  1.250000000E+02  0.00000E+00  9.000E+00
       2     1     1     2   501     0 -4.156423569E+01  6.603559731E+01  9.834463394E+02  9.865368661E+02  1.525878906E-05  0.00000E+00  9.000E+00
#rwgt            1           1   3.2247476296752939E-002           2       61171           0
</event>
<event>
      5   9999  3.79277E-02  1.89506E+01 -1.00000E+00  1.68324E-01
       2    -1     0     0   502     0  0.000000000E+00  0.000000000E+00  9.303379866E+02  9.303379866E+02  0.000000000E+00  0.00000E+00  9.000E+00
      21    -1     0     0   501   502  0.000000000E+00  0.000000000E+00 -4.237425007E+01  4.237425007E+01  0.000000000E+00  0.00000E+00  9.000E+00
      25     1     1     2     0     0  1.010266830E+02  2.209935976E+01  5.620135667E+02  5.849607008E+02  1.250000000E+02  0.00000E+00  9.000E+00
      25     1     1     2     0     0 -1.127645030E+02 -3.697721701E+01  2.167897633E+02  2.769583889E+02  1.250000000E+02  0.00000E+00  9.000E+00
       2     1     1     2   501     0  1.173781999E+01  1.487785725E+01  1.091604065E+02  1.107931469E+02  1.348699152E-06  0.00000E+00  9.000E+00
#rwgt            1           1   4.0637227558823437E-002           2       61269           0
</event>
<event>
      5   9999  3.79277E-02  2.33017E+01 -1.00000E+00  1.61074E-01
      21    -1     0     0   502   501  0.000000000E+00  0.000000000E+00  8.002674522E+02  8.002674522E+02  0.000000000E+00  0.00000E+00  9.000E+00
      21    -1     0     0   501   511  0.000000000E+00  0.000000000E+00 -5.403647190E+01  5.403647190E+01  0.000000000E+00  0.00000E+00  9.000E+00
      25     1     1     2     0     0  1.106383072E+02 -4.576869643E+01  1.938595793E+02  2.598887167E+02  1.250000000E+02  0.00000E+00  9.000E+00
      25     1     1     2     0     0 -9.567801124E+01  2.790374301E+01  5.478237216E+02  5.706739268E+02  1.250000000E+02  0.00000E+00  9.000E+00
      21     1     1     2   502   511 -1.496029593E+01  1.786495342E+01  4.547679299E+00  2.374128055E+01  7.348554138E-07  0.00000E+00  9.000E+00
#rwgt            1           1   4.5643023386937993E-002           2       61432           0
</event>
<event>
      5   9999  3.79277E-02  5.45912E+01 -1.00000E+00  1.36933E-01
      21    -1     0     0   502   501  0.000000000E+00  0.000000000E+00  1.506056844E+03  1.506056844E+03  0.000000000E+00  0.00000E+00  9.000E+00
      21    -1     0     0   501   512  0.000000000E+00  0.000000000E+00 -2.373906042E+02  2.373906042E+02  0.000000000E+00  0.00000E+00  9.000E+00
      25     1     1     2     0     0  4.327598947E+01  3.634402031E+01  1.365797674E+03  1.372669656E+03  1.250000000E+02  0.00000E+00  9.000E+00
      25     1     1     2     0     0 -7.741310931E+01  6.257127223E+00  9.224905700E+01  1.736860088E+02  1.250000000E+02  0.00000E+00  9.000E+00
      21     1     1     2   502   512  3.413711984E+01 -4.260114754E+01 -1.893804910E+02  1.970917834E+02  2.697398305E-06  0.00000E+00  9.000E+00
#rwgt            1           1   3.6635533215657934E-002           2       61612           0
</event>
<event>
      5   9999  3.79277E-02  1.65219E+01 -1.00000E+00  1.73519E-01
      21    -1     0     0   502   501  0.000000000E+00  0.000000000E+00  1.872693629E+02  1.872693629E+02  0.000000000E+00  0.00000E+00  9.000E+00
      21    -1     0     0   511   502  0.000000000E+00  0.000000000E+00 -3.031690282E+02  3.031690282E+02  0.000000000E+00  0.00000E+00  9.000E+00
      25     1     1     2     0     0  1.513306428E+02  1.040096717E+02 -4.747957718E+01  2.271525600E+02  1.250000000E+02  0.00000E+00  9.000E+00
      25     1     1     2     0     0 -1.574799621E+02 -1.193445410E+02 -5.106392000E+01  2.393231745E+02  1.250000000E+02  0.00000E+00  9.000E+00
      21     1     1     2   511   501  6.149319250E+00  1.533486927E+01 -1.735616809E+01  2.396265665E+01  4.768371582E-07  0.00000E+00  9.000E+00
#rwgt            1           1   2.6740448820136719E-002           2       61745           0
</event>
<event>
      5   9999  3.79277E-02  1.41112E+02 -1.00000E+00  1.17455E-01
       2    -1     0     0   502     0  0.000000000E+00  0.000000000E+00  7.826996172E+02  7.826996172E+02  0.000000000E+00  0.00000E+00  9.000E+00
      21    -1     0     0   501   502  0.000000000E+00  0.000000000E+00 -5.894145590E+02  5.894145590E+02  0.000000000E+00  0.00000E+00  9.000E+00
      25     1     1     2     0     0  6.754612183E+01  2.852677122E+02 -2.419607211E+02  4.001376473E+02  1.250000000E+02  0.00000E+00  9.000E+00
      25     1     1     2     0     0  2.880247934E+01 -3.883679911E+02 -9.782871513E+01  4.205410049E+02  1.250000000E+02  0.00000E+00  9.000E+00
       2     1     1     2   501     0 -9.634860117E+01  1.031002789E+02  5.330744945E+02  5.514355240E+02  7.629394531E-06  0.00000E+00  9.000E+00
#rwgt            1           1   3.4917728124881524E-002           2       61971           0
</event>
<event>
      5   9999  3.79277E-02  6.57705E+01 -1.00000E+00  1.32606E-01
      21    -1     0     0   502   511  0.000000000E+00  0.000000000E+00  2.191527415E+02  2.191527415E+02  0.000000000E+00  0.00000E+00  9.000E+00
      21    -1     0     0   501   502  0.000000000E+00  0.000000000E+00 -1.852331802E+02  1.852331802E+02  0.000000000E+00  0.00000E+00  9.000E+00
      25     1     1     2     0     0  3.109903155E+01  4.388343946E+01 -9.996534983E+01  1.688519387E+02  1.250000000E+02  0.00000E+00  9.000E+00
      25     1     1     2     0     0  3.806441193E+00  1.186031451E+01  1.049051173E+02  1.636619678E+02  1.250000000E+02  0.00000E+00  9.000E+00
      21     1     1     2   501   511 -3.490547274E+01 -5.574375397E+01  2.897979382E+01  7.187201531E+01  9.536743164E-07  0.00000E+00  9.000E+00
#rwgt            1           1   3.1645344604466275E-002           2       62085           0
</event>
<event>
      5   9999  3.79277E-02  6.83475E+01 -1.00000E+00  1.31748E-01
       2    -1     0     0   502     0  0.000000000E+00  0.000000000E+00  5.418335954E+02  5.418335954E+02  0.000000000E+00  0.00000E+00  9.000E+00
      21    -1     0     0   501   502  0.000000000E+00  0.000000000E+00 -4.092848886E+02  4.092848886E+02  0.000000000E+00  0.00000E+00  9.000E+00
      25     1     1     2     0     0 -7.011505695E+01  1.307482554E+02 -2.778095904E+02  3.388427305E+02  1.250000000E+02  0.00000E+00  9.000E+00
      25     1     1     2     0     0  1.012185169E+02 -6.988817892E+01 -2.001584237E+01  1.765082992E+02  1.250000000E+02  0.00000E+00  9.000E+00
       2     1     1     2   501     0 -3.110346000E+01 -6.086007653E+01  4.303741397E+02  4.357674543E+02  5.394796609E-06  0.00000E+00  9.000E+00
#rwgt            1           1   8.2464097763709790E-002           2       62172           0
</event>
<event>
      5   9999  3.79277E-02  6.69988E+01 -1.00000E+00  1.32192E-01
      21    -1     0     0   502   501  0.000000000E+00  0.000000000E+00  3.430407151E+02  3.430407151E+02  0.000000000E+00  0.00000E+00  9.000E+00
      21    -1     0     0   511   502  0.000000000E+00  0.000000000E+00 -3.028717177E+02  3.028717177E+02  0.000000000E+00  0.00000E+00  9.000E+00
      25     1     1     2     0     0  1.106397556E+02  1.601143718E+02 -9.300281275E+01  2.493036116E+02  1.250000000E+02  0.00000E+00  9.000E+00
      25     1     1     2     0     0 -1.775024114E+02 -1.643840591E+02  1.691396979E+02  3.205658471E+02  1.250000000E+02  0.00000E+00  9.000E+00
      21     1     1     2   511   501  6.686265576E+01  4.269687326E+00 -3.596788772E+01  7.604297411E+01  1.261592536E-06  0.00000E+00  9.000E+00
#rwgt            1           1   4.0203647441891546E-002           2       62334           0
</event>
<event>
      5   9999 -3.79277E-02  4.64691E+01 -1.00000E+00  1.40915E-01
      21    -1     0     0   502   501  0.000000000E+00  0.000000000E+00  1.659141392E+03  1.659141392E+03  0.000000000E+00  0.00000E+00  9.000E+00
      21    -1     0     0   501   512  0.000000000E+00  0.000000000E+00 -8.244865805E+01  8.244865805E+01  0.000000000E+00  0.00000E+00  9.000E+00
      25     1     1     2     0     0 -1.567962556E+02  7.047900584E+01  1.123580119E+03  1.143507604E+03  1.250000000E+02  0.00000E+00  9.000E+00
      25     1     1     2     0     0  2.001218355E+02 -8.728000182E+01  4.817599696E+02  5.434926090E+02  1.250000000E+02  0.00000E+00  9.000E+00
      21     1     1     2   502   512 -4.332557993E+01  1.680099598E+01 -2.864735503E+01  5.458983690E+01  1.907348633E-06  0.00000E+00  9.000E+00
#rwgt            1           1  -7.0219822981730075E-003           2       62424           0
</event>
<event>
      5   9999  3.79277E-02  6.33745E+01 -1.00000E+00  1.33446E-01
      21    -1     0     0   502   511  0.000000000E+00  0.000000000E+00  1.330243701E+03  1.330243701E+03  0.000000000E+00  0.00000E+00  9.000E+00
      21    -1     0     0   501   502  0.000000000E+00  0.000000000E+00 -4.112227526E+01  4.112227526E+01  0.000000000E+00  0.00000E+00  9.000E+00
      25     1     1     2     0     0 -9.320097871E+01 -1.325827085E+01  5.698322327E+02  5.909280647E+02  1.250000000E+02  0.00000E+00  9.000E+00
      25     1     1     2     0     0  1.347271109E+02  6.113215041E+01  3.048038387E+02  3.611355899E+02  1.250000000E+02  0.00000E+00  9.000E+00
      21     1     1     2   501   511 -4.152613216E+01 -4.787387956E+01  4.144853540E+02  4.193023213E+02  0.000000000E+00  0.00000E+00  9.000E+00
#rwgt            1           1   4.4323875540891990E-002           2       62560           0
</event>
<event>
      5   9999  3.79277E-02  3.11450E+01 -1.00000E+00  1.51919E-01
      21    -1     0     0   502   501  0.000000000E+00  0.000000000E+00  1.175933760E+02  1.175933760E+02  0.000000000E+00  0.00000E+00  9.000E+00
       2    -1     0     0   501     0  0.000000000E+00  0.000000000E+00 -1.846611784E+03  1.846611784E+03  0.000000000E+00  0.00000E+00  9.000E+00
      25     1     1     2     0     0  1.492129153E+02  1.091487468E+02 -2.144205613E+02  3.094820191E+02  1.250000000E+02  0.00000E+00  9.000E+00
      25     1     1     2     0     0 -1.725374032E+02 -8.850950205E+01 -1.205142874E+02  2.602917227E+02  1.250000000E+02  0.00000E+00  9.000E+00
       2     1     1     2   502     0  2.332448786E+01 -2.063924473E+01 -1.394083559E+03  1.394431418E+03  2.157918644E-05  0.00000E+00  9.000E+00
#rwgt            1           1   2.4140464163697480E-002           2       62658           0
</event>
<event>
      5   9999  3.79277E-02  2.20473E+01 -1.00000E+00  1.62951E-01
      21    -1     0     0   511   501  0.000000000E+00  0.000000000E+00  4.174676390E+02  4.174676390E+02  0.000000000E+00  0.00000E+00  9.000E+00
      21    -1     0     0   501   502  0.000000000E+00  0.000000000E+00 -1.747936446E+02  1.747936446E+02  0.000000000E+00  0.00000E+00  9.000E+00
      25     1     1     2     0     0  1.817142978E+01 -8.517770548E+01 -1.063865933E+02  1.858185933E+02  1.250000000E+02  0.00000E+00  9.000E+00
      25     1     1     2     0     0 -1.752493880E-02  9.768838176E+01  1.976882765E+02  2.534732232E+02  1.250000000E+02  0.00000E+00  9.000E+00
      21     1     1     2   511   502 -1.815390484E+01 -1.251067628E+01  1.513723112E+02  1.529694671E+02  2.697398305E-06  0.00000E+00  9.000E+00
#rwgt            1           1   4.6024807778156769E-002           2       62759           0
</event>
<event>
      5   9999  3.79277E-02  1.01661E+02  7.55638E-03  1.23507E-01
       2    -1     0     0   501     0  0.000000000E+00  0.000000000E+00  7.875353874E+02  7.875353874E+02  0.000000000E+00  0.00000E+00  9.000E+00
      -2    -1     0     0     0   502  0.000000000E+00  0.000000000E+00 -4.621424004E+01  4.621424004E+01  0.000000000E+00  0.00000E+00  9.000E+00
      25     1     1     2     0     0  9.195833203E+00 -4.354694449E+01  2.543109844E+02  2.868448649E+02  1.250000000E+02  0.00000E+00  9.000E+00
      25     1     1     2     0     0  3.585896144E+01 -4.758455434E+01  2.073251929E+02  2.493168477E+02  1.250000000E+02  0.00000E+00  9.000E+00
      21     1     1     2   501   502 -4.505479464E+01  9.113149884E+01  2.796849700E+02  2.975879148E+02  3.814697266E-06  0.00000E+00  9.000E+00
#rwgt            3           7   5.6642813410772103E-004           2       62984           0
</event>
<event>
      5   9999  3.79277E-02  2.93422E+01 -1.00000E+00  1.53712E-01
       1    -1     0     0   502     0  0.000000000E+00  0.000000000E+00  3.562708198E+03  3.562708198E+03  0.000000000E+00  0.00000E+00  9.000E+00
      21    -1     0     0   501   502  0.000000000E+00  0.000000000E+00 -3.592804989E+01  3.592804989E+01  0.000000000E+00  0.00000E+00  9.000E+00
      25     1     1     2     0     0 -2.363748413E+02  1.230398084E+02  1.005314256E+03  1.047517835E+03  1.250000000E+02  0.00000E+00  9.000E+00
      25     1     1     2     0     0  2.087731621E+02 -1.329953230E+02  1.297581521E+03  1.326882358E+03  1.250000000E+02  0.00000E+00  9.000E+00
       1     1     1     2   501     0  2.760167926E+01  9.955514661E+00  1.223884372E+03  1.224236056E+03  0.000000000E+00  0.00000E+00  9.000E+00
#rwgt            1           1   9.4236724721452017E-002           2       63168           0
</event>
<event>
      5   9999  3.79277E-02  2.25358E+02 -1.00000E+00  1.09793E-01
      21    -1     0     0   502   501  0.000000000E+00  0.000000000E+00  6.143684877E+02  6.143684877E+02  0.000000000E+00  0.00000E+00  9.000E+00
      21    -1     0     0   501   511  0.000000000E+00  0.000000000E+00 -5.248625463E+02  5.248625463E+02  0.000000000E+00  0.00000E+00  9.000E+00
      25     1     1     2     0     0 -2.126775936E+02  2.423079983E+02 -3.940791642E+01  3.480271667E+02  1.250000000E+02  0.00000E+00  9.000E+00
      25     1     1     2     0     0  2.098426445E+02 -1.696753866E+01  3.811151652E+02  4.529852116E+02  1.250000000E+02  0.00000E+00  9.000E+00
      21     1     1     2   502   511  2.834949169E+00 -2.253404597E+02 -2.522013073E+02  3.382186557E+02  3.814697266E-06  0.00000E+00  9.000E+00
#rwgt            1           1   3.6691923554639398E-002           2       63291           0
</event>
<event>
      5   9999  3.79277E-02  1.63123E+01 -1.00000E+00  1.74019E-01
      21    -1     0     0   502   501  0.000000000E+00  0.000000000E+00  2.136539981E+03  2.136539981E+03  0.000000000E+00  0.00000E+00  9.000E+00
      21    -1     0     0   512   502  0.000000000E+00  0.000000000E+00 -6.932132326E+01  6.932132326E+01  0.000000000E+00  0.00000E+00  9.000E+00
      25     1     1     2     0     0  2.897330864E+02 -1.715787861E+02  1.032193391E+03  1.092901065E+03  1.250000000E+02  0.00000E+00  9.000E+00
      25     1     1     2     0     0 -2.985707716E+02  1.578679473E+02  1.035810520E+03  1.096629029E+03  1.250000000E+02  0.00000E+00  9.000E+00
      21     1     1     2   512   501  8.837685220E+00  1.371083886E+01 -7.852538299E-01  1.633120957E+01  9.380041295E-07  0.00000E+00  9.000E+00
#rwgt            1           1   4.1312063738781213E-002           2       63448           0
</event>
<event>
      5   9999  3.79277E-02  1.91326E+01 -1.00000E+00  1.67974E-01
      21    -1     0     0   511   501  0.000000000E+00  0.000000000E+00  3.465002240E+02  3.465002240E+02  0.000000000E+00  0.00000E+00  9.000E+00
      21    -1     0     0   501   502  0.000000000E+00  0.000000000E+00 -3.018521439E+02  3.018521439E+02  0.000000000E+00  0.00000E+00  9.000E+00
      25     1     1     2     0     0 -2.051149610E+02  1.088424410E+02  2.617359296E+01  2.650073228E+02  1.250000000E+02  0.00000E+00  9.000E+00
      25     1     1     2     0     0  2.163048177E+02 -9.332334151E+01 -8.360744132E+01  2.794856427E+02  1.250000000E+02  0.00000E+00  9.000E+00
      21     1     1     2   511   502 -1.118985675E+01 -1.551909953E+01  1.020819285E+02  1.038594024E+02  1.348699152E-06  0.00000E+00  9.000E+00
#rwgt            1           1   3.4991811909516453E-002           2       63873           0
</event>
<event>
      5   9999  3.79277E-02  1.87983E+01 -1.00000E+00  1.68621E-01
      21    -1     0     0   502   501  0.000000000E+00  0.000000000E+00  2.247745037E+02  2.247745037E+02  0.000000000E+00  0.00000E+00  9.000E+00
       3    -1     0     0   501     0  0.000000000E+00  0.000000000E+00 -2.352441157E+02  2.352441157E+02  0.000000000E+00  0.00000E+00  9.000E+00
      25     1     1     2     0     0  1.948205917E+01  1.024670303E+02 -2.116065313E+01  1.641700831E+02  1.250000000E+02  0.00000E+00  9.000E+00
      25     1     1     2     0     0 -2.606709547E+01 -1.200742167E+02  1.018842071E+02  2.027380148E+02  1.250000000E+02  0.00000E+00  9.000E+00
       3     1     1     2   502     0  6.585036300E+00  1.760718644E+01 -9.119316590E+01  9.311052156E+01  1.348699152E-06  0.00000E+00  9.000E+00
#rwgt            1           1   4.4132725025339860E-002           2       64096           0
</event>
<event>
      5   9999  3.79277E-02  5.97827E+01 -1.00000E+00  1.34788E-01
       1    -1     0     0   502     0  0.000000000E+00  0.000000000E+00  7.023768544E+02  7.023768544E+02  0.000000000E+00  0.00000E+00  9.000E+00
      21    -1     0     0   501   502  0.000000000E+00  0.000000000E+00 -3.787985408E+02  3.787985408E+02  0.000000000E+00  0.00000E+00  9.000E+00
      25     1     1     2     0     0 -1.807297155E+02  1.498426873E+02 -5.355144233E+01  2.713094506E+02  1.250000000E+02  0.00000E+00  9.000E+00
      25     1     1     2     0     0  1.757589745E+02 -9.026695221E+01 -1.510243347E+02  2.783391626E+02  1.250000000E+02  0.00000E+00  9.000E+00
       1     1     1     2   501     0  4.970741054E+00 -5.957573506E+01  5.281540906E+02  5.315267820E+02  0.000000000E+00  0.00000E+00  9.000E+00
#rwgt            1           1   3.7788577522117631E-002           2       64336           0
</event>
<event>
      5   9999  3.79277E-02  5.91412E+01 -1.00000E+00  1.35039E-01
      21    -1     0     0   502   511  0.000000000E+00  0.000000000E+00  7.596224509E+02  7.596224509E+02  0.000000000E+00  0.00000E+00  9.000E+00
      21    -1     0     0   501   502  0.000000000E+00  0.000000000E+00 -1.301946177E+02  1.301946177E+02  0.000000000E+00  0.00000E+00  9.000E+00
      25     1     1     2     0     0 -2.025470439E+02  1.580070452E+02  3.912696063E+02  4.844671672E+02  1.250000000E+02  0.00000E+00  9.000E+00
      25     1     1     2     0     0  1.436414029E+02 -1.527335224E+02  1.173535250E+02  2.708454012E+02  1.250000000E+02  0.00000E+00  9.000E+00
      21     1     1     2   501   511  5.890564099E+01 -5.273522791E+00  1.208047019E+02  1.345045003E+02  1.907348633E-06  0.00000E+00  9.000E+00
#rwgt            1           1   4.3676213650004209E-002           2       64439           0
</event>
<event>
      5   9999  3.79277E-02  5.71253E+01 -1.00000E+00  1.35853E-01
      21    -1     0     0   502   512  0.000000000E+00  0.000000000E+00  4.702687285E+01  4.702687285E+01  0.000000000E+00  0.00000E+00  9.000E+00
      21    -1     0     0   501   502  0.000000000E+00  0.000000000E+00 -1.059661048E+03  1.059661048E+03  0.000000000E+00  0.00000E+00  9.000E+00
      25     1     1     2     0     0  1.558345281E+02 -5.447148462E+01 -6.328690123E+02  6.658826695E+02  1.250000000E+02  0.00000E+00  9.000E+00
      25     1     1     2     0     0 -1.064703586E+02  2.572284571E+01 -2.696708002E+02  3.167726985E+02  1.250000000E+02  0.00000E+00  9.000E+00
      21     1     1     2   501   512 -4.936416949E+01  2.874863891E+01 -1.100943624E+02  1.240325526E+02  2.336015456E-06  0.00000E+00  9.000E+00
#rwgt            1           1   2.8033462614617650E-002           2       64686           0
</event>
<event>
      5   9999  3.79277E-02  5.25357E+01 -1.00000E+00  1.37861E-01
      21    -1     0     0   511   501  0.000000000E+00  0.000000000E+00  3.628044696E+01  3.628044696E+01  0.000000000E+00  0.00000E+00  9.000E+00
      21    -1     0     0   501   502  0.000000000E+00  0.000000000E+00 -1.085068983E+03  1.085068983E+03  0.000000000E+00  0.00000E+00  9.000E+00
      25     1     1     2     0     0 -1.113171423E+00 -6.685227449E+01 -7.910053306E+02  8.036074283E+02  1.250000000E+02  0.00000E+00  9.000E+00
      25     1     1     2     0     0  3.213818718E+01  2.445589075E+01 -2.033702368E+02  2.421061893E+02  1.250000000E+02  0.00000E+00  9.000E+00
      21     1     1     2   511   502 -3.102501575E+01  4.239638374E+01 -5.441296852E+01  7.563581229E+01  6.743495762E-07  0.00000E+00  9.000E+00
#rwgt            1           1   1.0121328967104231E-002           2       64814           0
</event>
<event>
      5   9999  3.79277E-02  2.72568E+01 -1.00000E+00  1.55990E-01
      21    -1     0     0   512   501  0.000000000E+00  0.000000000E+00  4.750938273E+02  4.750938273E+02  0.000000000E+00  0.00000E+00  9.000E+00
      21    -1     0     0   501   502  0.000000000E+00  0.000000000E+00 -9.054618030E+01  9.054618030E+01  0.000000000E+00  0.00000E+00  9.000E+00
      25     1     1     2     0     0 -9.883219901E+01  7.654558469E+01  7.727741548E+01  1.929347792E+02  1.250000000E+02  0.00000E+00  9.000E+00
      25     1     1     2     0     0  7.812112831E+01 -9.426513826E+01  2.189397367E+02  2.802649377E+02  1.250000000E+02  0.00000E+00  9.000E+00
      21     1     1     2   512   502  2.071107070E+01  1.771955356E+01  8.833049478E+01  9.244029065E+01  9.536743164E-07  0.00000E+00  9.000E+00
#rwgt            1           1   3.6476762867972426E-002           2       64956           0
</event>
<event>
      5   9999  3.79277E-02  1.17239E+02 -1.00000E+00  1.20799E-01
      21    -1     0     0   511   501  0.000000000E+00  0.000000000E+00  1.782647285E+02  1.782647285E+02  0.000000000E+00  0.00000E+00  9.000E+00
      21    -1     0     0   501   502  0.000000000E+00  0.000000000E+00 -1.364574607E+03  1.364574607E+03  0.000000000E+00  0.00000E+00  9.000E+00
      25     1     1     2     0     0 -3.309178654E+01  1.654262723E+02 -2.793232224E+02  3.494386649E+02  1.250000000E+02  0.00000E+00  9.000E+00
      25     1     1     2     0     0  1.162356913E+02 -2.480829845E+02 -9.996130473E+02  1.043986182E+03  1.250000000E+02  0.00000E+00  9.000E+00
      21     1     1     2   511   502 -8.314390480E+01  8.265671227E+01  9.262639167E+01  1.494144887E+02  0.000000000E+00  0.00000E+00  9.000E+00
#rwgt            1           1   3.7603068074294893E-002           2       65119           0
</event>
<event>
      5   9999  3.79277E-02  8.59132E+01 -1.00000E+00  1.26868E-01
      21    -1     0     0   502   501  0.000000000E+00  0.000000000E+00  8.011062927E+02  8.011062927E+02  0.000000000E+00  0.00000E+00  9.000E+00
      21    -1     0     0   501   512  0.000000000E+00  0.000000000E+00 -8.660423431E+01  8.660423431E+01  0.000000000E+00  0.00000E+00  9.000E+00
      25     1     1     2     0     0  6.755955220E+00  1.806010299E+02  4.487486014E+02  4.996625683E+02  1.250000000E+02  0.00000E+00  9.000E+00
      25     1     1     2     0     0 -7.699988987E+01 -1.311351354E+02  1.854856672E+02  2.704724376E+02  1.250000000E+02  0.00000E+00  9.000E+00
      21     1     1     2   502   512  7.024393465E+01 -4.946589457E+01  8.026778980E+01  1.175755211E+02  1.651812370E-06  0.00000E+00  9.000E+00
#rwgt            1           1   2.9601399785899814E-002           2       65345           0
</event>
<event>
      5   9999  3.79277E-02  3.14929E+01 -1.00000E+00  1.51589E-01
      21    -1     0     0   511   501  0.000000000E+00  0.000000000E+00  8.235992838E+01  8.235992838E+01  0.000000000E+00  0.00000E+00  9.000E+00
      21    -1     0     0   501   502  0.000000000E+00  0.000000000E+00 -1.421392625E+03  1.421392625E+03  0.000000000E+00  0.00000E+00  9.000E+00
      25     1     1     2     0     0  1.048902505E+02 -2.165430162E+02 -1.001278211E+03  1.037340782E+03  1.250000000E+02  0.00000E+00  9.000E+00
      25     1     1     2     0     0 -8.988014931E+01  2.442287117E+02 -3.166184372E+02  4.284837682E+02  1.250000000E+02  0.00000E+00  9.000E+00
      21     1     1     2   511   502 -1.501010114E+01 -2.768569546E+01 -2.113604843E+01  3.792800301E+01  2.384185791E-07  0.00000E+00  9.000E+00
#rwgt            1           1   4.9738032443040307E-002           2       65461           0
</event>
<event>
      5   9999  3.79277E-02  8.01459E+01 -1.00000E+00  1.28311E-01
      21    -1     0     0   512   501  0.000000000E+00  0.000000000E+00  4.366689885E+02  4.366689885E+02  0.000000000E+00  0.00000E+00  9.000E+00
      21    -1     0     0   501   502  0.000000000E+00  0.000000000E+00 -5.419426616E+02  5.419426616E+02  0.000000000E+00  0.00000E+00  9.000E+00
      25     1     1     2     0     0  1.575710267E+02  1.333403944E+01 -2.802792073E+02  3.452359470E+02  1.250000000E+02  0.00000E+00  9.000E+00
      25     1     1     2     0     0 -1.039508228E+02  4.623301651E+01 -1.931128944E+02  2.566336988E+02  1.250000000E+02  0.00000E+00  9.000E+00
      21     1     1     2   512   502 -5.362020395E+01 -5.956705595E+01  3.681184285E+02  3.767420044E+02  5.394796609E-06  0.00000E+00  9.000E+00
#rwgt            1           1   4.4665638703903790E-002           2       65629           0
</event>
<event>
      5   9999  3.79277E-02  8.05018E+01 -1.00000E+00  1.28218E-01
      21    -1     0     0   502   501  0.000000000E+00  0.000000000E+00  1.506133396E+02  1.506133396E+02  0.000000000E+00  0.00000E+00  9.000E+00
      21    -1     0     0   501   511  0.000000000E+00  0.000000000E+00 -4.531576212E+02  4.531576212E+02  0.000000000E+00  0.00000E+00  9.000E+00
      25     1     1     2     0     0  1.045138956E+02  8.306482089E+01 -1.661859164E+02  2.471147054E+02  1.250000000E+02  0.00000E+00  9.000E+00
      25     1     1     2     0     0 -1.162654518E+02 -1.627042387E+02 -5.490785856E+01  2.421367331E+02  1.250000000E+02  0.00000E+00  9.000E+00
      21     1     1     2   502   511  1.175155628E+01  7.963941782E+01 -8.145050667E+01  1.145195223E+02  2.336015456E-06  0.00000E+00  9.000E+00
#rwgt            1           1   3.8143000163183213E-002           2       65696           0
</event>
<event>
      5   9999  3.79277E-02  1.74689E+02 -1.00000E+00  1.13830E-01
      21    -1     0     0   502   512  0.000000000E+00  0.000000000E+00  1.378863866E+03  1.378863866E+03  0.000000000E+00  0.00000E+00  9.000E+00
      21    -1     0     0   501   502  0.000000000E+00  0.000000000E+00 -1.372607902E+02  1.372607902E+02  0.000000000E+00  0.00000E+00  9.000E+00
      25     1     1     2     0     0 -1.886727583E+02 -6.618345577E+01  2.408540249E+02  3.370657515E+02  1.250000000E+02  0.00000E+00  9.000E+00
      25     1     1     2     0     0  8.218982310E+01  2.046666302E+02  1.187857486E+02  2.799618735E+02  1.250000000E+02  0.00000E+00  9.000E+00
      21     1     1     2   501   512  1.064829352E+02 -1.384831744E+02  8.819633021E+02  8.990970311E+02  1.078959322E-05  0.00000E+00  9.000E+00
#rwgt            1           1   4.0087645010497629E-002           2       65757           0
</event>
<event>
      5   9999  3.79277E-02  5.34878E+01 -1.00000E+00  1.37425E-01
      21    -1     0     0   502   511  0.000000000E+00  0.000000000E+00  1.539922827E+02  1.539922827E+02  0.000000000E+00  0.00000E+00  9.000E+00
      21    -1     0     0   501   502  0.000000000E+00  0.000000000E+00 -4.193608740E+02  4.193608740E+02  0.000000000E+00  0.00000E+00  9.000E+00
      25     1     1     2     0     0 -9.140836871E+01  1.273687512E+02 -2.051123528E+02  2.868350849E+02  1.250000000E+02  0.00000E+00  9.000E+00
      25     1     1     2     0     0  6.801823670E+01 -1.754712591E+02 -5.659663739E+01  2.329051795E+02  1.250000000E+02  0.00000E+00  9.000E+00
      21     1     1     2   501   511  2.339013201E+01  4.810250784E+01 -3.659601036E+00  5.361289225E+01  7.432677694E-07  0.00000E+00  9.000E+00
#rwgt            1           1   3.6590753204905638E-002           2       65804           0
</event>
<event>
      5   9999 -3.79277E-02  1.23160E+01 -1.00000E+00  1.85849E-01
      21    -1     0     0   502   512  0.000000000E+00  0.000000000E+00  3.462125975E+01  3.462125975E+01  0.000000000E+00  0.00000E+00  9.000E+00
      21    -1     0     0   501   502  0.000000000E+00  0.000000000E+00 -2.228083570E+03  2.228083570E+03  0.000000000E+00  0.00000E+00  9.000E+00
      25     1     1     2     0     0  1.084970252E+02 -5.035543629E+01 -7.675090300E+02  7.867670465E+02  1.250000000E+02  0.00000E+00  9.000E+00
      25     1     1     2     0     0 -1.110912276E+02  6.239513011E+01 -1.443503619E+03  1.454497202E+03  1.250000000E+02  0.00000E+00  9.000E+00
      21     1     1     2   501   512  2.594202405E+00 -1.203969382E+01  1.755033887E+01  2.144058087E+01  1.369610464E-06  0.00000E+00  9.000E+00
#rwgt            1           1  -4.4926497826324394E-002           2       66077           0
</event>
<event>
      5   9999  3.79277E-02  1.63321E+01 -1.00000E+00  1.73972E-01
      21    -1     0     0   502   501  0.000000000E+00  0.000000000E+00  1.107659068E+02  1.107659068E+02  0.000000000E+00  0.00000E+00  9.000E+00
      21    -1     0     0   511   502  0.000000000E+00  0.000000000E+00 -3.970958004E+02  3.970958004E+02  0.000000000E+00  0.00000E+00  9.000E+00
      25     1     1     2     0     0 -4.594356450E+00 -8.544822632E+01 -2.092644695E+02  2.583391679E+02  1.250000000E+02  0.00000E+00  9.000E+00
      25     1     1     2     0     0 -8.709160060E+00  9.492204723E+01  1.323820469E+01  1.577539051E+02  1.250000000E+02  0.00000E+00  9.000E+00
      21     1     1     2   511   501  1.330351651E+01 -9.473820912E+00 -9.030362887E+01  9.176863419E+01  1.651812370E-06  0.00000E+00  9.000E+00
#rwgt            1           1   3.3469584580466595E-002           2       66286           0
</event>
<event>
      5   9999  3.79277E-02  3.88162E+01 -1.00000E+00  1.45654E-01
      21    -1     0     0   502   501  0.000000000E+00  0.000000000E+00  5.178118407E+02  5.178118407E+02  0.000000000E+00  0.00000E+00  9.000E+00
      21    -1     0     0   501   512  0.000000000E+00  0.000000000E+00 -1.106480119E+02  1.106480119E+02  0.000000000E+00  0.00000E+00  9.000E+00
      25     1     1     2     0     0 -7.444333537E+01 -1.491521419E+02  6.539906967E+01  2.183808827E+02  1.250000000E+02  0.00000E+00  9.000E+00
      25     1     1     2     0     0  5.392331174E+01  1.162033215E+02  3.169876288E+02  3.640289717E+02  1.250000000E+02  0.00000E+00  9.000E+00
      21     1     1     2   502   512  2.052002362E+01  3.294882044E+01  2.477713044E+01  4.604999816E+01  8.259061849E-07  0.00000E+00  9.000E+00
#rwgt            1           1   4.1389084205948390E-002           2       66445           0
</event>
<event>
      5   9999  3.79277E-02  2.01717E+01 -1.00000E+00  1.66063E-01
      21    -1     0     0   511   501  0.000000000E+00  0.000000000E+00  4.495259331E+02  4.495259331E+02  0.000000000E+00  0.00000E+00  9.000E+00
      21    -1     0     0   501   502  0.000000000E+00  0.000000000E+00 -1.069112104E+02  1.069112104E+02  0.000000000E+00  0.00000E+00  9.000E+00
      25     1     1     2     0     0 -8.880634882E+01 -1.185381857E+02  2.229034500E+02  2.953791074E+02  1.250000000E+02  0.00000E+00  9.000E+00
      25     1     1     2     0     0  1.070144866E+02  1.272192110E+02  9.365883241E+01  2.281091951E+02  1.250000000E+02  0.00000E+00  9.000E+00
      21     1     1     2   511   502 -1.820813781E+01 -8.681025358E+00  2.605244023E+01  3.294884104E+01  4.768371582E-07  0.00000E+00  9.000E+00
#rwgt            1           1   3.5648853360890305E-002           2       66624           0
</event>
<event>
      5   9999  3.79277E-02  3.41215E+01 -1.00000E+00  1.49256E-01
      21    -1     0     0   502   501  0.000000000E+00  0.000000000E+00  4.850064949E+02  4.850064949E+02  0.000000000E+00  0.00000E+00  9.000E+00
      21    -1     0     0   512   502  0.000000000E+00  0.000000000E+00 -3.135471617E+02  3.135471617E+02  0.000000000E+00  0.00000E+00  9.000E+00
      25     1     1     2     0     0  2.248490953E+02 -8.718881863E+01  8.819951650E+01  2.855926478E+02  1.250000000E+02  0.00000E+00  9.000E+00
      25     1     1     2     0     0 -2.500935173E+02  6.423240105E+01  2.266254148E+02  3.655908196E+02  1.250000000E+02  0.00000E+00  9.000E+00
      21     1     1     2   512   501  2.524442202E+01  2.295641757E+01 -1.433655981E+02  1.473701892E+02  2.697398305E-06  0.00000E+00  9.000E+00
#rwgt            1           1   4.2391725725826543E-002           2       66746           0
</event>
<event>
      5   9999  3.79277E-02  6.30638E+01 -1.00000E+00  1.33558E-01
      21    -1     0     0   502   511  0.000000000E+00  0.000000000E+00  2.140590535E+02  2.140590535E+02  0.000000000E+00  0.00000E+00  9.000E+00
      21    -1     0     0   501   502  0.000000000E+00  0.000000000E+00 -5.589596759E+02  5.589596759E+02  0.000000000E+00  0.00000E+00  9.000E+00
      25     1     1     2     0     0 -3.893401902E+01 -1.878686788E+02 -4.044803930E+02  4.648009107E+02  1.250000000E+02  0.00000E+00  9.000E+00
      25     1     1     2     0     0  1.011007095E+02  1.772695445E+02  4.546365774E+01  2.435934913E+02  1.250000000E+02  0.00000E+00  9.000E+00
      21     1     1     2   501   511 -6.216669044E+01  1.059913433E+01  1.411611287E+01  6.462432740E+01  7.539457465E-07  0.00000E+00  9.000E+00
#rwgt            1           1  0.10480864459598467                2       66858           0
</event>
<event>
      5   9999 -3.79277E-02  3.22801E+01 -1.00000E+00  1.50862E-01
       1    -1     0     0   502     0  0.000000000E+00  0.000000000E+00  3.744271438E+02  3.744271438E+02  0.000000000E+00  0.00000E+00  9.000E+00
      21    -1     0     0   501   502  0.000000000E+00  0.000000000E+00 -8.186870149E+02  8.186870149E+02  0.000000000E+00  0.00000E+00  9.000E+00
      25     1     1     2     0     0 -1.437099227E+02  2.011558165E+01 -5.255105799E+02  5.593241887E+02  1.250000000E+02  0.00000E+00  9.000E+00
      25     1     1     2     0     0  1.715101895E+02 -3.709691835E+00 -2.345547024E+02  3.163390828E+02  1.250000000E+02  0.00000E+00  9.000E+00
       1     1     1     2   501     0 -2.780026677E+01 -1.640588981E+01  3.158054112E+02  3.174508872E+02  8.529922400E-06  0.00000E+00  9.000E+00
#rwgt            1           1 -0.14772183643695444                2       66964           0
</event>
<event>
      5   9999  3.79277E-02  9.59454E+01 -1.00000E+00  1.24642E-01
      21    -1     0     0   502   511  0.000000000E+00  0.000000000E+00  1.236681331E+02  1.236681331E+02  0.000000000E+00  0.00000E+00  9.000E+00
      21    -1     0     0   501   502  0.000000000E+00  0.000000000E+00 -5.762471144E+02  5.762471144E+02  0.000000000E+00  0.00000E+00  9.000E+00
      25     1     1     2     0     0  2.937442680E+01  1.709481247E+02 -3.887726865E+02  4.436838064E+02  1.250000000E+02  0.00000E+00  9.000E+00
      25     1     1     2     0     0  4.617160621E+00 -8.122577104E+01 -1.903388147E+01  1.503536920E+02  1.250000000E+02  0.00000E+00  9.000E+00
      21     1     1     2   501   511 -3.399158742E+01 -8.972235367E+01 -4.477241331E+01  1.058777491E+02  2.336015456E-06  0.00000E+00  9.000E+00
#rwgt            1           1   3.2789052481391794E-002           2       67117           0
</event>
<event>
      5   9999  3.79277E-02  1.00965E+01 -1.00000E+00  1.95276E-01
      21    -1     0     0   502   501  0.000000000E+00  0.000000000E+00  1.010082382E+03  1.010082382E+03  0.000000000E+00  0.00000E+00  9.000E+00
      21    -1     0     0   501   512  0.000000000E+00  0.000000000E+00 -4.095521184E+01  4.095521184E+01  0.000000000E+00  0.00000E+00  9.000E+00
      25     1     1     2     0     0 -4.154323163E+01  1.479831295E+02  5.526604937E+02  5.870974945E+02  1.250000000E+02  0.00000E+00  9.000E+00
      25     1     1     2     0     0  3.377356569E+01 -1.415355493E+02  4.076773437E+02  4.505538614E+02  1.250000000E+02  0.00000E+00  9.000E+00
      21     1     1     2   502   512  7.769665939E+00 -6.447580220E+00  8.789333006E+00  1.338623824E+01  2.920019320E-07  0.00000E+00  9.000E+00
#rwgt            1           1   6.3661455958604382E-002           2       67167           0
</event>
<event>
      5   9999  3.79277E-02  1.57501E+01 -1.00000E+00  1.75410E-01
      21    -1     0     0   502   501  0.000000000E+00  0.000000000E+00  1.845545707E+02  1.845545707E+02  0.000000000E+00  0.00000E+00  9.000E+00
      21    -1     0     0   501   511  0.000000000E+00  0.000000000E+00 -4.039744519E+02  4.039744519E+02  0.000000000E+00  0.00000E+00  9.000E+00
      25     1     1     2     0     0  1.155239310E+02  5.243597346E+01  1.022409452E+02  2.053619264E+02  1.250000000E+02  0.00000E+00  9.000E+00
      25     1     1     2     0     0 -1.202479020E+02 -6.746099473E+01 -2.614025661E+02  3.208844734E+02  1.250000000E+02  0.00000E+00  9.000E+00
      21     1     1     2   502   511  4.723971006E+00  1.502502127E+01 -6.025826025E+01  6.228262273E+01  6.743495762E-07  0.00000E+00  9.000E+00
#rwgt            1           1   3.5913669145105867E-002           2       67293           0
</event>
<event>
      5   9999  3.79277E-02  4.96951E+01 -1.00000E+00  1.39227E-01
      21    -1     0     0   502   501  0.000000000E+00  0.000000000E+00  2.530638796E+02  2.530638796E+02  0.000000000E+00  0.00000E+00  9.000E+00
       1    -1     0     0   501     0  0.000000000E+00  0.000000000E+00 -3.645147416E+02  3.645147416E+02  0.000000000E+00  0.00000E+00  9.000E+00
      25     1     1     2     0     0 -5.327305075E+01  1.021933541E+02 -1.518713597E+02  2.279723874E+02  1.250000000E+02  0.00000E+00  9.000E+00
      25     1     1     2     0     0  9.824514009E+01 -1.233385274E+02  1.619576203E+02  2.583017047E+02  1.250000000E+02  0.00000E+00  9.000E+00
       1     1     1     2   502     0 -4.497208934E+01  2.114517330E+01 -1.215371226E+02  1.313045290E+02  1.348699152E-06  0.00000E+00  9.000E+00
#rwgt            1           1   3.5055690792332020E-002           2       67494           0
</event>
<event>
      5   9999  3.79277E-02  1.56820E+02 -1.00000E+00  1.15633E-01
      21    -1     0     0   502   501  0.000000000E+00  0.000000000E+00  4.310115727E+02  4.310115727E+02  0.000000000E+00  0.00000E+00  9.000E+00
      21    -1     0     0   511   502  0.000000000E+00  0.000000000E+00 -3.254324903E+02  3.254324903E+02  0.000000000E+00  0.00000E+00  9.000E+00
      25     1     1     2     0     0 -1.378359775E+02 -7.697314033E+01  1.135107142E+02  2.311564476E+02  1.250000000E+02  0.00000E+00  9.000E+00
      25     1     1     2     0     0  1.683213876E+02 -7.685542243E+01  1.754595265E+02  2.839892444E+02  1.250000000E+02  0.00000E+00  9.000E+00
      21     1     1     2   511   501 -3.048541007E+01  1.538285628E+02 -1.833911583E+02  2.412983711E+02  2.697398305E-06  0.00000E+00  9.000E+00
#rwgt            1           1   4.7559309090395567E-002           2       67649           0
</event>
<event>
      5   9999  3.79277E-02  1.07101E+02 -1.00000E+00  1.22503E-01
      21    -1     0     0   512   501  0.000000000E+00  0.000000000E+00  1.415671319E+02  1.415671319E+02  0.000000000E+00  0.00000E+00  9.000E+00
      21    -1     0     0   501   502  0.000000000E+00  0.000000000E+00 -1.091413380E+03  1.091413380E+03  0.000000000E+00  0.00000E+00  9.000E+00
      25     1     1     2     0     0  8.607222527E+01  1.473939611E+02 -3.446774618E+02  4.044267058E+02  1.250000000E+02  0.00000E+00  9.000E+00
      25     1     1     2     0     0  6.388931026E+00 -9.334273735E+01 -6.801325428E+02  6.978244485E+02  1.250000000E+02  0.00000E+00  9.000E+00
      21     1     1     2   512   502 -9.246115630E+01 -5.405122373E+01  7.496375637E+01  1.307293578E+02  4.473129043E-06  0.00000E+00  9.000E+00
#rwgt            1           1   4.2862280208166022E-002           2       67836           0
</event>
<event>
      5   9999  3.79277E-02  1.46919E+01 -1.00000E+00  1.78237E-01
      21    -1     0     0   502   511  0.000000000E+00  0.000000000E+00  3.358851937E+02  3.358851937E+02  0.000000000E+00  0.00000E+00  9.000E+00
      21    -1     0     0   501   502  0.000000000E+00  0.000000000E+00 -1.462353879E+02  1.462353879E+02  0.000000000E+00  0.00000E+00  9.000E+00
      25     1     1     2     0     0  1.409334540E+02 -6.948267784E+01  2.878468532E+01  2.028389487E+02  1.250000000E+02  0.00000E+00  9.000E+00
      25     1     1     2     0     0 -1.298440458E+02  5.984537264E+01  9.604213723E+01  2.128145601E+02  1.250000000E+02  0.00000E+00  9.000E+00
      21     1     1     2   501   511 -1.108940822E+01  9.637305199E+00  6.482298317E+01  6.646707285E+01  9.536743164E-07  0.00000E+00  9.000E+00
#rwgt            1           1   3.4675053901142922E-002           2       67954           0
</event>
<event>
      5   9999  3.79277E-02  5.22980E+01 -1.00000E+00  1.37971E-01
      21    -1     0     0   502   501  0.000000000E+00  0.000000000E+00  3.827250704E+01  3.827250704E+01  0.000000000E+00  0.00000E+00  9.000E+00
      21    -1     0     0   512   502  0.000000000E+00  0.000000000E+00 -1.853662685E+03  1.853662685E+03  0.000000000E+00  0.00000E+00  9.000E+00
      25     1     1     2     0     0 -5.257268571E+01 -1.495773023E+02 -4.308229746E+02  4.757842916E+02  1.250000000E+02  0.00000E+00  9.000E+00
      25     1     1     2     0     0  7.282550493E+01  1.977945262E+02 -1.152192671E+03  1.177963997E+03  1.250000000E+02  0.00000E+00  9.000E+00
      21     1     1     2   512   501 -2.025281921E+01 -4.821722390E+01 -2.323745324E+02  2.381869028E+02  3.814697266E-06  0.00000E+00  9.000E+00
#rwgt            1           1   6.6770661920444743E-002           2       68148           0
</event>
<event>
      5   9999  3.79277E-02  8.63824E+00 -1.00000E+00  2.03405E-01
      21    -1     0     0   511   501  0.000000000E+00  0.000000000E+00  7.057403345E+02  7.057403345E+02  0.000000000E+00  0.00000E+00  9.000E+00
      21    -1     0     0   501   502  0.000000000E+00  0.000000000E+00 -1.227886112E+02  1.227886112E+02  0.000000000E+00  0.00000E+00  9.000E+00
      25     1     1     2     0     0 -1.447135714E+02  4.106504907E+01  2.794997210E+01  1.975716502E+02  1.250000000E+02  0.00000E+00  9.000E+00
      25     1     1     2     0     0  1.365014826E+02 -4.374473869E+01  2.005132669E+02  2.763635778E+02  1.250000000E+02  0.00000E+00  9.000E+00
      21     1     1     2   511   502  8.212088863E+00  2.679689623E+00  3.544884843E+02  3.545937177E+02  3.814697266E-06  0.00000E+00  9.000E+00
#rwgt            1           1   3.4084670890170629E-002           2       68217           0
</event>
<event>
      5   9999  3.79277E-02  1.99945E+02 -1.00000E+00  1.11652E-01
      21    -1     0     0   512   501  0.000000000E+00  0.000000000E+00  7.285633441E+02  7.285633441E+02  0.000000000E+00  0.00000E+00  9.000E+00
      21    -1     0     0   501   502  0.000000000E+00  0.000000000E+00 -1.732876337E+02  1.732876337E+02  0.000000000E+00  0.00000E+00  9.000E+00
      25     1     1     2     0     0  1.904864003E+02 -1.850164889E+02  1.298227279E+02  3.209285132E+02  1.250000000E+02  0.00000E+00  9.000E+00
      25     1     1     2     0     0 -1.217998524E+02 -2.760622469E+00  1.064857112E+02  2.044676791E+02  1.250000000E+02  0.00000E+00  9.000E+00
      21     1     1     2   512   502 -6.868654788E+01  1.877771114E+02  3.189672713E+02  3.764547856E+02  5.394796609E-06  0.00000E+00  9.000E+00
#rwgt            1           1   4.4012833362580626E-002           2       68549           0
</event>
<event>
      5   9999  3.79277E-02  2.30892E+01 -1.00000E+00  1.61382E-01
      21    -1     0     0   502   511  0.000000000E+00  0.000000000E+00  9.313718648E+01  9.313718648E+01  0.000000000E+00  0.00000E+00  9.000E+00
      21    -1     0     0   501   502  0.000000000E+00  0.000000000E+00 -8.410718984E+02  8.410718984E+02  0.000000000E+00  0.00000E+00  9.000E+00
      25     1     1     2     0     0 -1.901144366E+02 -6.533691078E+01 -4.927200813E+02  5.466356094E+02  1.250000000E+02  0.00000E+00  9.000E+00
      25     1     1     2     0     0  2.090236889E+02  5.208733444E+01 -2.639352680E+02  3.628922962E+02  1.250000000E+02  0.00000E+00  9.000E+00
      21     1     1     2   501   511 -1.890925233E+01  1.324957634E+01  8.720637358E+00  2.468117932E+01  5.717076687E-07  0.00000E+00  9.000E+00
#rwgt            1           1   3.8796751672501038E-002           2       68649           0
</event>
<event>
      5   9999  3.79277E-02  1.89785E+01 -1.00000E+00  1.68270E-01
      21    -1     0     0   502   501  0.000000000E+00  0.000000000E+00  3.075172457E+02  3.075172457E+02  0.000000000E+00  0.00000E+00  9.000E+00
      21    -1     0     0   512   502  0.000000000E+00  0.000000000E+00 -1.053053291E+02  1.053053291E+02  0.000000000E+00  0.00000E+00  9.000E+00
      25     1     1     2     0     0 -3.829071709E+01 -5.730254063E+01  2.908776323E+00  1.427698188E+02  1.250000000E+02  0.00000E+00  9.000E+00
      25     1     1     2     0     0  5.170815654E+01  7.072482271E+01  1.993426762E+02  2.510741654E+02  1.250000000E+02  0.00000E+00  9.000E+00
      21     1     1     2   512   501 -1.341743945E+01 -1.342228207E+01 -3.953597133E-02  1.897859058E+01  5.225508137E-07  0.00000E+00  9.000E+00
#rwgt            1           1   4.6067088516102896E-002           2       68788           0
</event>
<event>
      5   9999  3.79277E-02  1.97748E+01 -1.00000E+00  1.66776E-01
      21    -1     0     0   502   501  0.000000000E+00  0.000000000E+00  5.619870936E+02  5.619870936E+02  0.000000000E+00  0.00000E+00  9.000E+00
      21    -1     0     0   511   502  0.000000000E+00  0.000000000E+00 -1.828949631E+02  1.828949631E+02  0.000000000E+00  0.00000E+00  9.000E+00
      25     1     1     2     0     0 -6.570402911E+01 -2.347383607E+02  3.602975183E+02  4.526128800E+02  1.250000000E+02  0.00000E+00  9.000E+00
      25     1     1     2     0     0  4.593252011E+01  2.343755285E+02  2.688166489E+01  2.709046118E+02  1.250000000E+02  0.00000E+00  9.000E+00
      21     1     1     2   511   501  1.977150900E+01  3.628322394E-01 -8.087052664E+00  2.136456496E+01  1.685873940E-07  0.00000E+00  9.000E+00
#rwgt            1           1   3.2434314379974766E-002           2       68951           0
</event>
<event>
      5   9999 -3.79277E-02  1.22999E+02 -1.00000E+00  1.19915E-01
      21    -1     0     0   512   501  0.000000000E+00  0.000000000E+00  1.058224809E+03  1.058224809E+03  0.000000000E+00  0.00000E+00  9.000E+00
      21    -1     0     0   501   502  0.000000000E+00  0.000000000E+00 -1.390648855E+02  1.390648855E+02  0.000000000E+00  0.00000E+00  9.000E+00
      25     1     1     2     0     0  1.567392016E+02 -1.178017437E+02  1.219706867E+02  2.625762300E+02  1.250000000E+02  0.00000E+00  9.000E+00
      25     1     1     2     0     0 -2.442896699E+02  2.041947274E+02  4.424111960E+02  5.592187370E+02  1.250000000E+02  0.00000E+00  9.000E+00
      21     1     1     2   512   502  8.755046823E+01 -8.639298379E+01  3.547780407E+02  3.754947274E+02  5.394796609E-06  0.00000E+00  9.000E+00
#rwgt            1           1 -0.11897478682307459                2       69179           0
</event>
<event>
      5   9999  3.79277E-02  1.79965E+01 -1.00000E+00  1.70242E-01
      21    -1     0     0   502   501  0.000000000E+00  0.000000000E+00  6.596585928E+02  6.596585928E+02  0.000000000E+00  0.00000E+00  9.000E+00
      21    -1     0     0   501   511  0.000000000E+00  0.000000000E+00 -5.395801270E+01  5.395801270E+01  0.000000000E+00  0.00000E+00  9.000E+00
      25     1     1     2     0     0 -1.187223168E+02 -4.155807732E+01  3.883336418E+02  4.269075774E+02  1.250000000E+02  0.00000E+00  9.000E+00
      25     1     1     2     0     0  1.023084675E+02  4.893769186E+01  1.999899323E+02  2.616923637E+02  1.250000000E+02  0.00000E+00  9.000E+00
      21     1     1     2   502   511  1.641384927E+01 -7.379614544E+00  1.737700608E+01  2.501666442E+01  4.768371582E-07  0.00000E+00  9.000E+00
#rwgt            1           1   2.1303477933659595E-002           2       69284           0
</event>
<event>
      5   9999  3.79277E-02  4.38613E+01 -1.00000E+00  1.42401E-01
      21    -1     0     0   502   501  0.000000000E+00  0.000000000E+00  1.367895660E+02  1.367895660E+02  0.000000000E+00  0.00000E+00  9.000E+00
      21    -1     0     0   501   512  0.000000000E+00  0.000000000E+00 -5.367656771E+02  5.367656771E+02  0.000000000E+00  0.00000E+00  9.000E+00
      25     1     1     2     0     0 -1.851316908E+02  8.275970033E+01 -1.099066137E+02  2.623497183E+02  1.250000000E+02  0.00000E+00  9.000E+00
      25     1     1     2     0     0  1.917212376E+02 -3.939625903E+01 -1.835683356E+02  2.960260665E+02  1.250000000E+02  0.00000E+00  9.000E+00
      21     1     1     2   502   512 -6.589546859E+00 -4.336344130E+01 -1.065011618E+02  1.151794584E+02  1.907348633E-06  0.00000E+00  9.000E+00
#rwgt            1           1   2.7668771990661471E-002           2       69452           0
</event>
<event>
      5   9999  3.79277E-02  1.22581E+01 -1.00000E+00  1.86062E-01
      21    -1     0     0   502   501  0.000000000E+00  0.000000000E+00  9.146481419E+01  9.146481419E+01  0.000000000E+00  0.00000E+00  9.000E+00
      21    -1     0     0   501   511  0.000000000E+00  0.000000000E+00 -3.511979955E+02  3.511979955E+02  0.000000000E+00  0.00000E+00  9.000E+00
      25     1     1     2     0     0  3.006244362E+01 -1.578711879E+01  1.649343088E+01  1.305757133E+02  1.250000000E+02  0.00000E+00  9.000E+00
      25     1     1     2     0     0 -4.126065469E+01  1.080112804E+01 -2.612106141E+02  2.927030764E+02  1.250000000E+02  0.00000E+00  9.000E+00
      21     1     1     2   502   511  1.119821106E+01  4.985990754E+00 -1.501599806E+01  1.938402003E+01  2.384185791E-07  0.00000E+00  9.000E+00
#rwgt            1           1   3.2290708280259456E-002           2       69679           0
</event>
<event>
      5   9999  3.79277E-02  7.17198E+01 -1.00000E+00  1.30689E-01
      21    -1     0     0   502   501  0.000000000E+00  0.000000000E+00  1.630196635E+02  1.630196635E+02  0.000000000E+00  0.00000E+00  9.000E+00
      21    -1     0     0   512   502  0.000000000E+00  0.000000000E+00 -4.824323710E+02  4.824323710E+02  0.000000000E+00  0.00000E+00  9.000E+00
      25     1     1     2     0     0 -1.311438215E+02  1.203464685E+02 -1.258894163E+02  2.513068235E+02  1.250000000E+02  0.00000E+00  9.000E+00
      25     1     1     2     0     0  1.471298236E+02 -1.902619241E+02 -1.434531345E+02  3.066766808E+02  1.250000000E+02  0.00000E+00  9.000E+00
      21     1     1     2   512   501 -1.598600209E+01  6.991545554E+01 -5.007015662E+01  8.746853017E+01  1.168007728E-06  0.00000E+00  9.000E+00
#rwgt            1           1   4.2071819094386065E-002           2       69967           0
</event>
<event>
      5   9999  3.79277E-02  6.62412E+01 -1.00000E+00  1.32446E-01
      21    -1     0     0   511   501  0.000000000E+00  0.000000000E+00  5.333855730E+02  5.333855730E+02  0.000000000E+00  0.00000E+00  9.000E+00
      21    -1     0     0   501   502  0.000000000E+00  0.000000000E+00 -1.243314111E+02  1.243314111E+02  0.000000000E+00  0.00000E+00  9.000E+00
      25     1     1     2     0     0 -9.474467013E+00  8.301067068E+01 -1.710551716E+01  1.513212995E+02  1.250000000E+02  0.00000E+00  9.000E+00
      25     1     1     2     0     0  3.032940772E+01 -1.458832547E+02  2.406708254E+02  3.094337461E+02  1.250000000E+02  0.00000E+00  9.000E+00
      21     1     1     2   511   502 -2.085494071E+01  6.287258407E+01  1.854888536E+02  1.969619385E+02  2.697398305E-06  0.00000E+00  9.000E+00
#rwgt            2          11   1.2762762739078376E-003           2       70142           0
</event>
<event>
      5   9999  3.79277E-02  1.05679E+02 -1.00000E+00  1.22758E-01
      21    -1     0     0   502   501  0.000000000E+00  0.000000000E+00  3.769578832E+02  3.769578832E+02  0.000000000E+00  0.00000E+00  9.000E+00
      21    -1     0     0   512   502  0.000000000E+00  0.000000000E+00 -1.170068484E+02  1.170068484E+02  0.000000000E+00  0.00000E+00  9.000E+00
      25     1     1     2     0     0  4.963530103E+01  7.098287810E+01  1.593449183E+02  2.202680982E+02  1.250000000E+02  0.00000E+00  9.000E+00
      25     1     1     2     0     0 -7.003743800E+01  3.270842054E+01  4.199331798E+01  1.528513077E+02  1.250000000E+02  0.00000E+00  9.000E+00
      21     1     1     2   512   501  2.040213696E+01 -1.036912986E+02  5.861279852E+01  1.208453258E+02  0.000000000E+00  0.00000E+00  9.000E+00
#rwgt            1           1   8.5798938602614103E-002           2       70177           0
</event>
<event>
      5   9999  3.79277E-02  3.92572E+01 -1.00000E+00  1.45347E-01
      21    -1     0     0   502   511  0.000000000E+00  0.000000000E+00  1.449422739E+03  1.449422739E+03  0.000000000E+00  0.00000E+00  9.000E+00
      21    -1     0     0   501   502  0.000000000E+00  0.000000000E+00 -3.625462153E+02  3.625462153E+02  0.000000000E+00  0.00000E+00  9.000E+00
      25     1     1     2     0     0 -3.696852598E+02 -2.389389786E+02  5.435774807E+02  7.105353646E+02  1.250000000E+02  0.00000E+00  9.000E+00
      25     1     1     2     0     0  3.390629982E+02  2.635032139E+02 -9.889362477E+01  4.580421481E+02  1.250000000E+02  0.00000E+00  9.000E+00
      21     1     1     2   501   511  3.062226168E+01 -2.456423531E+01  6.421926673E+02  6.433914411E+02  1.525878906E-05  0.00000E+00  9.000E+00
#rwgt            1           1  0.12046642956737928                2       70333           0
</event>
<event>
      5   9999 -3.79277E-02  3.46817E+01 -1.00000E+00  1.48790E-01
      21    -1     0     0   502   501  0.000000000E+00  0.000000000E+00  6.832171899E+01  6.832171899E+01  0.000000000E+00  0.00000E+00  9.000E+00
      21    -1     0     0   512   502  0.000000000E+00  0.000000000E+00 -1.179406267E+03  1.179406267E+03  0.000000000E+00  0.00000E+00  9.000E+00
      25     1     1     2     0     0  1.111772863E+02 -1.941245391E+02 -5.437224265E+02  6.010855203E+02  1.250000000E+02  0.00000E+00  9.000E+00
      25     1     1     2     0     0 -1.165097086E+02  1.598551851E+02 -3.176369364E+02  3.945204884E+02  1.250000000E+02  0.00000E+00  9.000E+00
      21     1     1     2   512   501  5.332422259E+00  3.426935394E+01 -2.497251847E+02  2.521219769E+02  0.000000000E+00  0.00000E+00  9.000E+00
#rwgt            1           1 -0.24611862699084086                2       70502           0
</event>
<event>
      5   9999 -3.79277E-02  2.80377E+01 -1.00000E+00  1.55109E-01
      21    -1     0     0   502   511  0.000000000E+00  0.000000000E+00  4.627834055E+02  4.627834055E+02  0.000000000E+00  0.00000E+00  9.000E+00
      21    -1     0     0   501   502  0.000000000E+00  0.000000000E+00 -7.219478614E+01  7.219478614E+01  0.000000000E+00  0.00000E+00  9.000E+00
      25     1     1     2     0     0  7.434702018E+01 -6.828827045E+01  8.278861343E+01  1.807476744E+02  1.250000000E+02  0.00000E+00  9.000E+00
      25     1     1     2     0     0 -6.156620950E+01  4.333302138E+01  2.402503963E+02  2.810932262E+02  1.250000000E+02  0.00000E+00  9.000E+00
      21     1     1     2   501   511 -1.278081068E+01  2.495524907E+01  6.754960956E+01  7.313729097E+01  9.536743164E-07  0.00000E+00  9.000E+00
#rwgt            1           1  -8.2840676108882585E-002           2       70612           0
</event>
<event>
      5   9999  3.79277E-02  9.44094E+01 -1.00000E+00  1.24962E-01
      21    -1     0     0   502   512  0.000000000E+00  0.000000000E+00  5.840171002E+02  5.840171002E+02  0.000000000E+00  0.00000E+00  9.000E+00
      21    -1     0     0   501   502  0.000000000E+00  0.000000000E+00 -5.837096604E+02  5.837096604E+02  0.000000000E+00  0.00000E+00  9.000E+00
      25     1     1     2     0     0  5.119150846E+02 -1.339836412E+02 -2.036340276E+02  5.806035542E+02  1.250000000E+02  0.00000E+00  9.000E+00
      25     1     1     2     0     0 -4.299343347E+02  8.716175866E+01  1.704963022E+02  4.869647763E+02  1.250000000E+02  0.00000E+00  9.000E+00
      21     1     1     2   501   512 -8.198074993E+01  4.682188251E+01  3.344516527E+01  1.001584301E+02  1.651812370E-06  0.00000E+00  9.000E+00
#rwgt            1           1   7.0185956264590649E-002           2       70736           0
</event>
<event>
      5   9999  3.79277E-02  1.22617E+02 -1.00000E+00  1.19972E-01
      21    -1     0     0   502   501  0.000000000E+00  0.000000000E+00  4.039611195E+02  4.039611195E+02  0.000000000E+00  0.00000E+00  9.000E+00
      21    -1     0     0   511   502  0.000000000E+00  0.000000000E+00 -2.563164200E+02  2.563164200E+02  0.000000000E+00  0.00000E+00  9.000E+00
      25     1     1     2     0     0 -6.253245971E+01  3.930007174E+01  2.641802757E+02  3.014482082E+02  1.250000000E+02  0.00000E+00  9.000E+00
      25     1     1     2     0     0  4.364216183E+01  8.185289328E+01  3.929485148E+01  1.605416450E+02  1.250000000E+02  0.00000E+00  9.000E+00
      21     1     1     2   511   501  1.889029788E+01 -1.211529650E+02 -1.558304278E+02  1.982876863E+02  3.303624740E-06  0.00000E+00  9.000E+00
#rwgt            2          11   2.6858619186522041E-003           2       70918           0
</event>
<event>
      5   9999  3.79277E-02  7.28021E+01 -1.00000E+00  1.30363E-01
      21    -1     0     0   512   501  0.000000000E+00  0.000000000E+00  6.465888172E+02  6.465888172E+02  0.000000000E+00  0.00000E+00  9.000E+00
      21    -1     0     0   501   502  0.000000000E+00  0.000000000E+00 -2.710758057E+02  2.710758057E+02  0.000000000E+00  0.00000E+00  9.000E+00
      25     1     1     2     0     0  2.446634299E+02 -2.154263543E+02  2.670103449E+01  3.501523287E+02  1.250000000E+02  0.00000E+00  9.000E+00
      25     1     1     2     0     0 -2.098024149E+02  2.793392111E+02  2.620344675E+02  4.542405864E+02  1.250000000E+02  0.00000E+00  9.000E+00
      21     1     1     2   512   502 -3.486101495E+01 -6.391285679E+01  8.677750951E+01  1.132717078E+02  9.536743164E-07  0.00000E+00  9.000E+00
#rwgt            1           1  0.15004527285764704                2       71118           0
</event>
<event>
      5   9999  3.79277E-02  9.01481E+01 -1.00000E+00  1.25888E-01
      21    -1     0     0   511   501  0.000000000E+00  0.000000000E+00  1.987545354E+03  1.987545354E+03  0.000000000E+00  0.00000E+00  9.000E+00
      21    -1     0     0   501   502  0.000000000E+00  0.000000000E+00 -4.370317126E+01  4.370317126E+01  0.000000000E+00  0.00000E+00  9.000E+00
      25     1     1     2     0     0 -5.511128995E+01  1.315404057E+02  8.187677812E+02  8.404438186E+02  1.250000000E+02  0.00000E+00  9.000E+00
      25     1     1     2     0     0  1.307395156E+02 -1.806020693E+02  5.241223818E+02  5.831288018E+02  1.250000000E+02  0.00000E+00  9.000E+00
      21     1     1     2   511   502 -7.562822568E+01  4.906166360E+01  6.009520195E+02  6.076759047E+02  0.000000000E+00  0.00000E+00  9.000E+00
#rwgt            1           1   4.0650953101512614E-002           2       71291           0
</event>
<event>
      5   9999  3.79277E-02  2.02029E+02 -1.00000E+00  1.11489E-01
       3    -1     0     0   502     0  0.000000000E+00  0.000000000E+00  1.096528075E+03  1.096528075E+03  0.000000000E+00  0.00000E+00  9.000E+00
      21    -1     0     0   501   502  0.000000000E+00  0.000000000E+00 -7.864915852E+02  7.864915852E+02  0.000000000E+00  0.00000E+00  9.000E+00
      25     1     1     2     0     0 -1.353053188E+02 -3.867936574E+02 -2.185639985E+02  4.809491493E+02  1.250000000E+02  0.00000E+00  9.000E+00
      25     1     1     2     0     0  2.156488711E+02  2.014279827E+02 -3.651118121E+02  4.858078871E+02  1.250000000E+02  0.00000E+00  9.000E+00
       3     1     1     2   501     0 -8.034355227E+01  1.853656748E+02  8.937123002E+02  9.162626235E+02  1.078959322E-05  0.00000E+00  9.000E+00
#rwgt            1           1   3.7846091235235663E-002           2       71410           0
</event>
<event>
      5   9999  3.79277E-02  1.72172E+01 -1.00000E+00  1.71923E-01
      21    -1     0     0   502   511  0.000000000E+00  0.000000000E+00  1.407278899E+03  1.407278899E+03  0.000000000E+00  0.00000E+00  9.000E+00
      21    -1     0     0   501   502  0.000000000E+00  0.000000000E+00 -1.040725044E+02  1.040725044E+02  0.000000000E+00  0.00000E+00  9.000E+00
      25     1     1     2     0     0  1.445905781E+02  8.480008686E+01  2.429084238E+01  2.105054276E+02  1.250000000E+02  0.00000E+00  9.000E+00
      25     1     1     2     0     0 -1.281024422E+02 -7.984285168E+01  8.800337657E+02  9.015927825E+02  1.250000000E+02  0.00000E+00  9.000E+00
      21     1     1     2   501   511 -1.648813598E+01 -4.957235177E+00  3.988817860E+02  3.992531929E+02  0.000000000E+00  0.00000E+00  9.000E+00
#rwgt            1           1   5.1682647413730957E-002           2       71525           0
</event>
<event>
      5   9999  3.79277E-02  4.62911E+01 -1.00000E+00  1.41013E-01
      21    -1     0     0   512   501  0.000000000E+00  0.000000000E+00  2.211317790E+02  2.211317790E+02  0.000000000E+00  0.00000E+00  9.000E+00
      21    -1     0     0   501   502  0.000000000E+00  0.000000000E+00 -3.693369360E+02  3.693369360E+02  0.000000000E+00  0.00000E+00  9.000E+00
      25     1     1     2     0     0 -6.799948027E+01 -2.000163295E+02 -2.150098661E+02  3.263199410E+02  1.250000000E+02  0.00000E+00  9.000E+00
      25     1     1     2     0     0  6.597779204E+01  1.537694002E+02  6.037982519E+01  2.174139388E+02  1.250000000E+02  0.00000E+00  9.000E+00
      21     1     1     2   512   502  2.021688233E+00  4.624692927E+01  6.424883964E+00  4.673483523E+01  7.996802250E-07  0.00000E+00  9.000E+00
#rwgt            1           1   3.2317070043930508E-002           2       71803           0
</event>
<event>
      5   9999  3.79277E-02  2.21765E+01 -1.00000E+00  1.62751E-01
      21    -1     0     0   502   501  0.000000000E+00  0.000000000E+00  2.424043796E+02  2.424043796E+02  0.000000000E+00  0.00000E+00  9.000E+00
      21    -1     0     0   511   502  0.000000000E+00  0.000000000E+00 -2.930381364E+02  2.930381364E+02  0.000000000E+00  0.00000E+00  9.000E+00
      25     1     1     2     0     0  1.956739025E+02  5.590310009E+01 -5.104765265E+01  2.442218163E+02  1.250000000E+02  0.00000E+00  9.000E+00
      25     1     1     2     0     0 -1.867938279E+02 -7.622410664E+01  4.487256833E+01  2.415379804E+02  1.250000000E+02  0.00000E+00  9.000E+00
      21     1     1     2   511   501 -8.880074661E+00  2.032100655E+01 -4.445867254E+01  4.968271930E+01  4.768371582E-07  0.00000E+00  9.000E+00
#rwgt            1           1   3.4511684503501998E-002           2       71899           0
</event>
<event>
      5   9999  3.79277E-02  1.64149E+01 -1.00000E+00  1.73773E-01
      21    -1     0     0   502   501  0.000000000E+00  0.000000000E+00  6.201824260E+02  6.201824260E+02  0.000000000E+00  0.00000E+00  9.000E+00
      21    -1     0     0   501   512  0.000000000E+00  0.000000000E+00 -4.396430921E+02  4.396430921E+02  0.000000000E+00  0.00000E+00  9.000E+00
      25     1     1     2     0     0  6.963358038E+01  3.147997483E+01  1.090444356E+02  1.826349180E+02  1.250000000E+02  0.00000E+00  9.000E+00
      25     1     1     2     0     0 -8.464960025E+01 -3.811087336E+01  4.613882510E+02  4.869518576E+02  1.250000000E+02  0.00000E+00  9.000E+00
      21     1     1     2   502   512  1.501601988E+01  6.630898532E+00 -3.898933527E+02  3.902387425E+02  0.000000000E+00  0.00000E+00  9.000E+00
#rwgt            1           1   4.7461435815949124E-002           2       72058           0
</event>
<event>
      5   9999  3.79277E-02  2.77765E+02 -1.00000E+00  1.06690E-01
      21    -1     0     0   502   501  0.000000000E+00  0.000000000E+00  1.035086391E+02  1.035086391E+02  0.000000000E+00  0.00000E+00  9.000E+00
       1    -1     0     0   501     0  0.000000000E+00  0.000000000E+00 -2.858464862E+03  2.858464862E+03  0.000000000E+00  0.00000E+00  9.000E+00
      25     1     1     2     0     0  1.337067510E+02  2.543710722E+02 -2.093286163E+02  3.768628494E+02  1.250000000E+02  0.00000E+00  9.000E+00
      25     1     1     2     0     0  8.038514654E+01 -7.740181423E+01 -1.146174761E+03  1.158358492E+03  1.250000000E+02  0.00000E+00  9.000E+00
       1     1     1     2   502     0 -2.140918975E+02 -1.769692580E+02 -1.399452846E+03  1.426752160E+03  0.000000000E+00  0.00000E+00  9.000E+00
#rwgt            2          12   1.5150648219414991E-004           2       72360           0
</event>
<event>
      5   9999  3.79277E-02  9.96258E+01 -1.00000E+00  1.23901E-01
      21    -1     0     0   511   501  0.000000000E+00  0.000000000E+00  1.297112212E+02  1.297112212E+02  0.000000000E+00  0.00000E+00  9.000E+00
      21    -1     0     0   501   502  0.000000000E+00  0.000000000E+00 -7.838295500E+02  7.838295500E+02  0.000000000E+00  0.00000E+00  9.000E+00
      25     1     1     2     0     0 -1.747685887E+02 -4.980806005E+01 -6.397176100E+01  2.296568933E+02  1.250000000E+02  0.00000E+00  9.000E+00
      25     1     1     2     0     0  9.906223775E+01 -1.495185405E+01 -5.559237600E+02  5.785439584E+02  1.250000000E+02  0.00000E+00  9.000E+00
      21     1     1     2   511   502  7.570635097E+01  6.475991410E+01 -3.422280783E+01  1.053399194E+02  8.259061849E-07  0.00000E+00  9.000E+00
#rwgt            1           1   3.9848273445692937E-002           2       72394           0
</event>
<event>
      5   9999  3.79277E-02  7.49739E+00 -1.00000E+00  2.11425E-01
      21    -1     0     0   502   501  0.000000000E+00  0.000000000E+00  1.508589957E+02  1.508589957E+02  0.000000000E+00  0.00000E+00  9.000E+00
      21    -1     0     0   501   512  0.000000000E+00  0.000000000E+00 -4.006305449E+02  4.006305449E+02  0.000000000E+00  0.00000E+00  9.000E+00
      25     1     1     2     0     0  1.025855935E+02  1.763871389E+02 -8.439020565E+01  2.537379231E+02  1.250000000E+02  0.00000E+00  9.000E+00
      25     1     1     2     0     0 -1.094032634E+02 -1.732678073E+02 -1.591290617E+02  2.879893494E+02  1.250000000E+02  0.00000E+00  9.000E+00
      21     1     1     2   502   512  6.817669847E+00 -3.119331605E+00 -6.252281745E+00  9.762268119E+00  1.884864366E-07  0.00000E+00  9.000E+00
#rwgt            1           1   4.6328262932797237E-002           2       72492           0
</event>
<event>
      5   9999  3.79277E-02  3.54097E+01 -1.00000E+00  1.48202E-01
      21    -1     0     0   502   501  0.000000000E+00  0.000000000E+00  2.500211047E+02  2.500211047E+02  0.000000000E+00  0.00000E+00  9.000E+00
      21    -1     0     0   501   511  0.000000000E+00  0.000000000E+00 -4.502798518E+02  4.502798518E+02  0.000000000E+00  0.00000E+00  9.000E+00
      25     1     1     2     0     0 -1.489327242E+01 -1.787223743E+02  7.771965303E+01  2.320104332E+02  1.250000000E+02  0.00000E+00  9.000E+00
      25     1     1     2     0     0 -2.025083693E+01  1.830510460E+02 -3.810813423E+01  2.258207513E+02  1.250000000E+02  0.00000E+00  9.000E+00
      21     1     1     2   502   511  3.514410935E+01 -4.328671721E+00 -2.398702660E+02  2.424697720E+02  2.697398305E-06  0.00000E+00  9.000E+00
#rwgt            1           1   2.9372931416387815E-002           2       72931           0
</event>
<event>
      5   9999  3.79277E-02  2.17361E+02 -1.00000E+00  1.10348E-01
      21    -1     0     0   512   501  0.000000000E+00  0.000000000E+00  2.866393397E+03  2.866393397E+03  0.000000000E+00  0.00000E+00  9.000E+00
      21    -1     0     0   501   502  0.000000000E+00  0.000000000E+00 -4.333810261E+01  4.333810261E+01  0.000000000E+00  0.00000E+00  9.000E+00
      25     1     1     2     0     0 -1.876796458E+02  6.696645123E+01  1.340556382E+03  1.361038048E+03  1.250000000E+02  0.00000E+00  9.000E+00
      25     1     1     2     0     0 -1.918008889E+01 -2.211255700E-01  1.397910955E+02  1.885059020E+02  1.250000000E+02  0.00000E+00  9.000E+00
      21     1     1     2   512   502  2.068597347E+02 -6.674532566E+01  1.342707817E+03  1.360187549E+03  0.000000000E+00  0.00000E+00  9.000E+00
#rwgt            1           1   3.4520699578853779E-002           2       73077           0
</event>
<event>
      5   9999  3.79277E-02  5.25739E+01 -1.00000E+00  1.37843E-01
      21    -1     0     0   511   501  0.000000000E+00  0.000000000E+00  4.131572746E+01  4.131572746E+01  0.000000000E+00  0.00000E+00  9.000E+00
      21    -1     0     0   501   502  0.000000000E+00  0.000000000E+00 -2.144160820E+03  2.144160820E+03  0.000000000E+00  0.00000E+00  9.000E+00
      25     1     1     2     0     0 -2.300460706E+02  7.033699073E+01 -6.555922486E+02  7.094326489E+02  1.250000000E+02  0.00000E+00  9.000E+00
      25     1     1     2     0     0  1.872032354E+02 -3.986567303E+01 -1.293644253E+03  1.313687473E+03  1.250000000E+02  0.00000E+00  9.000E+00
      21     1     1     2   511   502  4.284283526E+01 -3.047131771E+01 -1.536085908E+02  1.623564255E+02  2.697398305E-06  0.00000E+00  9.000E+00
#rwgt            1           1   3.0482489933011003E-002           2       73118           0
</event>
<event>
      5   9999  3.79277E-02  1.13932E+02 -1.00000E+00  1.21333E-01
      21    -1     0     0   502   501  0.000000000E+00  0.000000000E+00  9.262632804E+02  9.262632804E+02  0.000000000E+00  0.00000E+00  9.000E+00
      21    -1     0     0   512   502  0.000000000E+00  0.000000000E+00 -7.349826201E+01  7.349826201E+01  0.000000000E+00  0.00000E+00  9.000E+00
      25     1     1     2     0     0  1.055214524E+02  1.199764920E+02  4.711678190E+02  5.129846481E+02  1.250000000E+02  0.00000E+00  9.000E+00
      25     1     1     2     0     0 -1.367614257E+02 -1.041081376E+01  2.040110311E+02  2.757853756E+02  1.250000000E+02  0.00000E+00  9.000E+00
      21     1     1     2   512   501  3.123997330E+01 -1.095656783E+02  1.775861682E+02  2.109915186E+02  1.907348633E-06  0.00000E+00  9.000E+00
#rwgt            2          11   2.7625352560424121E-003           2       73204           0
</event>
<event>
      5   9999  3.79277E-02  2.35258E+01 -1.00000E+00  1.60754E-01
      21    -1     0     0   502   501  0.000000000E+00  0.000000000E+00  3.611031794E+01  3.611031794E+01  0.000000000E+00  0.00000E+00  9.000E+00
       2    -1     0     0   501     0  0.000000000E+00  0.000000000E+00 -3.243237571E+03  3.243237571E+03  0.000000000E+00  0.00000E+00  9.000E+00
      25     1     1     2     0     0 -1.274236341E+02 -4.883531094E+01 -6.066581042E+02  6.342560410E+02  1.250000000E+02  0.00000E+00  9.000E+00
      25     1     1     2     0     0  1.212663564E+02  2.612959081E+01 -3.262053508E+02  3.707063738E+02  1.250000000E+02  0.00000E+00  9.000E+00
       2     1     1     2   502     0  6.157277719E+00  2.270572013E+01 -2.274263798E+03  2.274385474E+03  4.315837288E-05  0.00000E+00  9.000E+00
#rwgt            1           1   4.2127134111687572E-002           2       73239           0
</event>
<event>
      5   9999  3.79277E-02  1.59427E+02 -1.00000E+00  1.15354E-01
      21    -1     0     0   511   501  0.000000000E+00  0.000000000E+00  9.964731122E+02  9.964731122E+02  0.000000000E+00  0.00000E+00  9.000E+00
      21    -1     0     0   501   502  0.000000000E+00  0.000000000E+00 -7.727353907E+01  7.727353907E+01  0.000000000E+00  0.00000E+00  9.000E+00
      25     1     1     2     0     0 -4.408189025E+01 -8.167845449E+00  1.281533365E+02  1.845486505E+02  1.250000000E+02  0.00000E+00  9.000E+00
      25     1     1     2     0     0  1.632239235E+02 -9.776612446E+01  3.262859701E+02  3.978539915E+02  1.250000000E+02  0.00000E+00  9.000E+00
      21     1     1     2   511   502 -1.191420332E+02  1.059339699E+02  4.647602666E+02  4.913440093E+02  5.394796609E-06  0.00000E+00  9.000E+00
#rwgt            1           1   2.6231064508904837E-002           2       73436           0
</event>
<event>
      5   9999  3.79277E-02  7.53670E+01 -1.00000E+00  1.29616E-01
      21    -1     0     0   502   501  0.000000000E+00  0.000000000E+00  4.187062475E+03  4.187062475E+03  0.000000000E+00  0.00000E+00  9.000E+00
      21    -1     0     0   512   502  0.000000000E+00  0.000000000E+00 -3.406383355E+01  3.406383355E+01  0.000000000E+00  0.00000E+00  9.000E+00
      25     1     1     2     0     0 -6.386923413E+01  8.040896515E+01  3.686595190E+03  3.690142812E+03  1.250000000E+02  0.00000E+00  9.000E+00
      25     1     1     2     0     0  5.571545651E+01 -5.484304875E+00  4.216342696E+02  4.433223962E+02  1.250000000E+02  0.00000E+00  9.000E+00
      21     1     1     2   512   501  8.153777624E+00 -7.492466028E+01  4.476918191E+01  8.766110002E+01  4.291534424E-06  0.00000E+00  9.000E+00
#rwgt            1           1   5.6384256928687449E-003           2       73550           0
</event>
<event>
      5   9999  3.79277E-02  5.92042E+01 -1.00000E+00  1.35014E-01
      21    -1     0     0   502   501  0.000000000E+00  0.000000000E+00  2.313609891E+02  2.313609891E+02  0.000000000E+00  0.00000E+00  9.000E+00
       2    -1     0     0   501     0  0.000000000E+00  0.000000000E+00 -2.079122768E+03  2.079122768E+03  0.000000000E+00  0.00000E+00  9.000E+00
      25     1     1     2     0     0 -3.623575074E+02 -2.908532477E+01 -2.937578683E+02  4.838053373E+02  1.250000000E+02  0.00000E+00  9.000E+00
      25     1     1     2     0     0  3.102406189E+02  9.968183719E-01 -7.028957553E+01  3.417833520E+02  1.250000000E+02  0.00000E+00  9.000E+00
       2     1     1     2   502     0  5.211688845E+01  2.808850640E+01 -1.483714335E+03  1.484895068E+03  0.000000000E+00  0.00000E+00  9.000E+00
#rwgt            1           1   3.9919747215939626E-002           2       73660           0
</event>
<event>
      5   9999  3.79277E-02  2.12722E+01 -1.00000E+00  1.64189E-01
      21    -1     0     0   502   501  0.000000000E+00  0.000000000E+00  1.580594515E+02  1.580594515E+02  0.000000000E+00  0.00000E+00  9.000E+00
      21    -1     0     0   501   511  0.000000000E+00  0.000000000E+00 -2.549555299E+02  2.549555299E+02  0.000000000E+00  0.00000E+00  9.000E+00
      25     1     1     2     0     0 -1.329171373E+02  4.650472169E+01 -1.081037722E+02  2.171199671E+02  1.250000000E+02  0.00000E+00  9.000E+00
      25     1     1     2     0     0  1.126849512E+02 -3.993485940E+01  1.713096997E+01  1.738135822E+02  1.250000000E+02  0.00000E+00  9.000E+00
      21     1     1     2   502   511  2.023218613E+01 -6.569862294E+00 -5.923276123E+00  2.208143216E+01  4.129530925E-07  0.00000E+00  9.000E+00
#rwgt            1           1   4.1761061782714992E-002           2       73807           0
</event>
<event>
      5   9999  3.79277E-02  3.90452E+01 -1.00000E+00  1.45494E-01
      21    -1     0     0   502   501  0.000000000E+00  0.000000000E+00  6.601420517E+02  6.601420517E+02  0.000000000E+00  0.00000E+00  9.000E+00
      21    -1     0     0   501   512  0.000000000E+00  0.000000000E+00 -6.291018165E+01  6.291018165E+01  0.000000000E+00  0.00000E+00  9.000E+00
      25     1     1     2     0     0 -1.224760124E+02  4.373337592E+01  2.108496498E+02  2.774807319E+02  1.250000000E+02  0.00000E+00  9.000E+00
      25     1     1     2     0     0  8.409349262E+01 -3.657016581E+01  3.735977684E+02  4.044865697E+02  1.250000000E+02  0.00000E+00  9.000E+00
      21     1     1     2   502   512  3.838251979E+01 -7.163210106E+00  1.278445189E+01  4.108493172E+01  5.591411304E-07  0.00000E+00  9.000E+00
#rwgt            1           1   3.9176968580979819E-002           2       73913           0
</event>
<event>
      5   9999  3.79277E-02  4.02124E+01 -1.00000E+00  1.44698E-01
      21    -1     0     0   502   501  0.000000000E+00  0.000000000E+00  1.567960141E+02  1.567960141E+02  0.000000000E+00  0.00000E+00  9.000E+00
      21    -1     0     0   501   511  0.000000000E+00  0.000000000E+00 -9.433010728E+02  9.433010728E+02  0.000000000E+00  0.00000E+00  9.000E+00
      25     1     1     2     0     0 -1.461582746E+02  1.176008889E+02 -7.668585060E+02  7.993054351E+02  1.250000000E+02  0.00000E+00  9.000E+00
      25     1     1     2     0     0  1.362920683E+02 -7.861758117E+01  6.156451740E+01  2.101700306E+02  1.250000000E+02  0.00000E+00  9.000E+00
      21     1     1     2   502   511  9.866206289E+00 -3.898330776E+01 -8.121107016E+01  9.062162119E+01  0.000000000E+00  0.00000E+00  9.000E+00
#rwgt            1           1   4.8754605817084323E-002           2       74215           0
</event>
<event>
      5   9999  3.79277E-02  1.28652E+02 -1.00000E+00  1.19099E-01
      21    -1     0     0   502   512  0.000000000E+00  0.000000000E+00  6.547865109E+02  6.547865109E+02  0.000000000E+00  0.00000E+00  9.000E+00
      21    -1     0     0   501   502  0.000000000E+00  0.000000000E+00 -1.833805432E+02  1.833805432E+02  0.000000000E+00  0.00000E+00  9.000E+00
      25     1     1     2     0     0 -7.724105424E+01 -1.013889394E+01 -1.049803878E+02  1.808724950E+02  1.250000000E+02  0.00000E+00  9.000E+00
      25     1     1     2     0     0 -4.897187681E+01  3.506966604E+01  1.210633034E+02  1.841451863E+02  1.250000000E+02  0.00000E+00  9.000E+00
      21     1     1     2   501   512  1.262129310E+02 -2.493077209E+01  4.553230520E+02  4.731493729E+02  7.629394531E-06  0.00000E+00  9.000E+00
#rwgt            1           1   4.0326987682880636E-002           2       74381           0
</event>
<event>
      5   9999  3.79277E-02  2.45473E+01 -1.00000E+00  1.59348E-01
      21    -1     0     0   502   501  0.000000000E+00  0.000000000E+00  1.518971681E+02  1.518971681E+02  0.000000000E+00  0.00000E+00  9.000E+00
      21    -1     0     0   511   502  0.000000000E+00  0.000000000E+00 -1.277091217E+03  1.277091217E+03  0.000000000E+00  0.00000E+00  9.000E+00
      25     1     1     2     0     0 -1.069649430E+02  3.106825638E+02 -3.046938757E+02  4.652187790E+02  1.250000000E+02  0.00000E+00  9.000E+00
      25     1     1     2     0     0  8.784962280E+01 -2.952821411E+02 -3.160336032E+02  4.587061559E+02  1.250000000E+02  0.00000E+00  9.000E+00
      21     1     1     2   511   501  1.911532025E+01 -1.540042263E+01 -5.044665702E+02  5.050634504E+02  5.394796609E-06  0.00000E+00  9.000E+00
#rwgt            1           1   3.4834872601379206E-002           2       74423           0
</event>
<event>
      5   9999  3.79277E-02  2.35984E+01 -1.00000E+00  1.60651E-01
      21    -1     0     0   502   501  0.000000000E+00  0.000000000E+00  8.433826338E+02  8.433826338E+02  0.000000000E+00  0.00000E+00  9.000E+00
      21    -1     0     0   501   512  0.000000000E+00  0.000000000E+00 -1.692189752E+02  1.692189752E+02  0.000000000E+00  0.00000E+00  9.000E+00
      25     1     1     2     0     0 -1.853149077E+02  2.587498852E+02  5.023675755E+02  6.076934252E+02  1.250000000E+02  0.00000E+00  9.000E+00
      25     1     1     2     0     0  1.643325736E+02 -2.695491440E+02  1.734029428E+02  3.812551853E+02  1.250000000E+02  0.00000E+00  9.000E+00
      21     1     1     2   502   512  2.098233418E+01  1.079925881E+01 -1.606859665E+00  2.365299846E+01  2.771776205E-07  0.00000E+00  9.000E+00
#rwgt            1           1  0.19973137978568375                2       74613           0
</event>
<event>
      5   9999  3.79277E-02  3.66846E+01 -1.00000E+00  1.47210E-01
      21    -1     0     0   511   501  0.000000000E+00  0.000000000E+00  6.734913120E+02  6.734913120E+02  0.000000000E+00  0.00000E+00  9.000E+00
      21    -1     0     0   501   502  0.000000000E+00  0.000000000E+00 -9.424225995E+01  9.424225995E+01  0.000000000E+00  0.00000E+00  9.000E+00
      25     1     1     2     0     0 -9.479361068E+01  8.853620145E+01  1.166988383E+02  2.146348212E+02  1.250000000E+02  0.00000E+00  9.000E+00
      25     1     1     2     0     0  9.969495716E+01 -5.218049759E+01  1.152952705E+02  2.039114715E+02  1.250000000E+02  0.00000E+00  9.000E+00
      21     1     1     2   511   502 -4.901346480E+00 -3.635570385E+01  3.472549432E+02  3.491872793E+02  3.814697266E-06  0.00000E+00  9.000E+00
#rwgt            1           1   3.9218396052717444E-002           2       74864           0
</event>
<event>
      5   9999 -3.79277E-02  1.81698E+01 -1.00000E+00  1.69883E-01
      21    -1     0     0   512   501  0.000000000E+00  0.000000000E+00  6.051665086E+02  6.051665086E+02  0.000000000E+00  0.00000E+00  9.000E+00
      21    -1     0     0   501   502  0.000000000E+00  0.000000000E+00 -4.371024855E+02  4.371024855E+02  0.000000000E+00  0.00000E+00  9.000E+00
      25     1     1     2     0     0  1.050114116E+02 -1.853177734E+02 -2.822948031E+02  3.750805641E+02  1.250000000E+02  0.00000E+00  9.000E+00
      25     1     1     2     0     0 -8.884002144E+01  1.936020682E+02  3.270132144E+01  2.491358799E+02  1.250000000E+02  0.00000E+00  9.000E+00
      21     1     1     2   512   502 -1.617139014E+01 -8.284294768E+00  4.176575048E+02  4.180525502E+02  7.629394531E-06  0.00000E+00  9.000E+00
#rwgt            1           1 -0.11740152200935580                2       74974           0
</event>
<event>
      5   9999  3.79277E-02  7.07541E+01 -1.00000E+00  1.30985E-01
      21    -1     0     0   502   501  0.000000000E+00  0.000000000E+00  5.513188657E+02  5.513188657E+02  0.000000000E+00  0.00000E+00  9.000E+00
      21    -1     0     0   511   502  0.000000000E+00  0.000000000E+00 -1.454361387E+02  1.454361387E+02  0.000000000E+00  0.00000E+00  9.000E+00
      25     1     1     2     0     0 -5.775469338E+01  1.023267841E+01  4.182165972E+02  4.404207471E+02  1.250000000E+02  0.00000E+00  9.000E+00
      25     1     1     2     0     0  9.347388702E+01 -7.130865651E+01  2.952765395E+01  1.741240202E+02  1.250000000E+02  0.00000E+00  9.000E+00
      21     1     1     2   511   501 -3.571919363E+01  6.107597810E+01 -4.186152409E+01  8.221023716E+01  1.507891493E-06  0.00000E+00  9.000E+00
#rwgt            1           1   3.3226321372245252E-002           2       75138           0
</event>
<event>
      5   9999  3.79277E-02  3.94052E+00 -1.00000E+00  2.65013E-01
      21    -1     0     0   502   512  0.000000000E+00  0.000000000E+00  1.496618683E+02  1.496618683E+02  0.000000000E+00  0.00000E+00  9.000E+00
      21    -1     0     0   501   502  0.000000000E+00  0.000000000E+00 -1.088612770E+03  1.088612770E+03  0.000000000E+00  0.00000E+00  9.000E+00
      25     1     1     2     0     0 -1.429860916E+02 -8.811180778E+00 -3.857128139E+02  4.300256202E+02  1.250000000E+02  0.00000E+00  9.000E+00
      25     1     1     2     0     0  1.414240751E+02  1.242889298E+01 -6.675688206E+02  6.938503993E+02  1.250000000E+02  0.00000E+00  9.000E+00
      21     1     1     2   501   512  1.562016534E+00 -3.617712200E+00  1.143307322E+02  1.143986192E+02  1.348699152E-06  0.00000E+00  9.000E+00
#rwgt            1           1   4.1814993672773207E-002           2       75368           0
</event>
<event>
      5   9999  3.79277E-02  1.64994E+02 -1.00000E+00  1.14777E-01
      21    -1     0     0   502   501  0.000000000E+00  0.000000000E+00  3.443398376E+02  3.443398376E+02  0.000000000E+00  0.00000E+00  9.000E+00
      21    -1     0     0   511   502  0.000000000E+00  0.000000000E+00 -8.762391979E+02  8.762391979E+02  0.000000000E+00  0.00000E+00  9.000E+00
      25     1     1     2     0     0  6.462071087E+00  5.665912448E+01  2.093948437E+02  2.504460327E+02  1.250000000E+02  0.00000E+00  9.000E+00
      25     1     1     2     0     0 -1.051538853E+02 -1.888819845E+02 -4.397482330E+01  2.535597143E+02  1.250000000E+02  0.00000E+00  9.000E+00
      21     1     1     2   511   501  9.869181422E+01  1.322228600E+02 -6.973193807E+02  7.165732884E+02  1.078959322E-05  0.00000E+00  9.000E+00
#rwgt            1           1   2.2685165805152695E-002           2       75707           0
</event>
<event>
      5   9999  3.79277E-02  4.45778E+01 -1.00000E+00  1.41981E-01
      21    -1     0     0   502   501  0.000000000E+00  0.000000000E+00  5.810416601E+02  5.810416601E+02  0.000000000E+00  0.00000E+00  9.000E+00
      21    -1     0     0   512   502  0.000000000E+00  0.000000000E+00 -1.201243473E+02  1.201243473E+02  0.000000000E+00  0.00000E+00  9.000E+00
      25     1     1     2     0     0  8.642870705E+01 -6.203890695E+01  2.570335933E+02  3.049754342E+02  1.250000000E+02  0.00000E+00  9.000E+00
      25     1     1     2     0     0 -1.305271660E+02  6.855850785E+01  2.603427604E+02  3.242544726E+02  1.250000000E+02  0.00000E+00  9.000E+00
      21     1     1     2   512   501  4.409845892E+01 -6.519600904E+00 -5.645904095E+01  7.193610067E+01  1.651812370E-06  0.00000E+00  9.000E+00
#rwgt            1           1   2.0173623795159048E-002           2       75787           0
</event>
<event>
      5   9999 -3.79277E-02  6.28028E+01 -1.00000E+00  1.33652E-01
      21    -1     0     0   502   501  0.000000000E+00  0.000000000E+00  2.160929035E+02  2.160929035E+02  0.000000000E+00  0.00000E+00  9.000E+00
      21    -1     0     0   501   511  0.000000000E+00  0.000000000E+00 -3.448337776E+02  3.448337776E+02  0.000000000E+00  0.00000E+00  9.000E+00
      25     1     1     2     0     0  2.823342973E+01 -1.458019195E+02  1.865129892E+01  1.950081979E+02  1.250000000E+02  0.00000E+00  9.000E+00
      25     1     1     2     0     0 -9.060397883E+01  1.531574211E+02 -1.332843329E+01  2.178736417E+02  1.250000000E+02  0.00000E+00  9.000E+00
      21     1     1     2   502   511  6.237054910E+01 -7.355501642E+00 -1.340637397E+02  1.480448415E+02  1.907348633E-06  0.00000E+00  9.000E+00
#rwgt            1           1  -4.7465646117645865E-002           2       75865           0
</event>
<event>
      5   9999  3.79277E-02  4.60543E+01 -1.00000E+00  1.41143E-01
      -1    -1     0     0     0   501  0.000000000E+00  0.000000000E+00  5.108743425E+02  5.108743425E+02  0.000000000E+00  0.00000E+00  9.000E+00
      21    -1     0     0   501   502  0.000000000E+00  0.000000000E+00 -5.452245380E+02  5.452245380E+02  0.000000000E+00  0.00000E+00  9.000E+00
      25     1     1     2     0     0  9.682359973E+00 -4.941260389E+01 -3.882332708E+02  4.109567204E+02  1.250000000E+02  0.00000E+00  9.000E+00
      25     1     1     2     0     0  1.301378524E+01  8.948606531E+01 -1.032846778E+02  1.856605482E+02  1.250000000E+02  0.00000E+00  9.000E+00
      -1     1     1     2     0   502 -2.269614521E+01 -4.007346142E+01  4.571677530E+02  4.594816120E+02  0.000000000E+00  0.00000E+00  9.000E+00
#rwgt            1           1   4.6419330024882077E-002           2       75952           0
</event>
<event>
      5   9999  3.79277E-02  4.74749E+01 -1.00000E+00  1.40372E-01
      21    -1     0     0   511   501  0.000000000E+00  0.000000000E+00  2.177206274E+02  2.177206274E+02  0.000000000E+00  0.00000E+00  9.000E+00
      21    -1     0     0   501   502  0.000000000E+00  0.000000000E+00 -2.549896572E+02  2.549896572E+02  0.000000000E+00  0.00000E+00  9.000E+00
      25     1     1     2     0     0  2.216645077E+01  6.095358332E+01 -1.924039492E+02  2.384344156E+02  1.250000000E+02  0.00000E+00  9.000E+00
      25     1     1     2     0     0 -1.209650630E+01 -1.455895328E+01  1.264410466E+02  1.788033189E+02  1.250000000E+02  0.00000E+00  9.000E+00
      21     1     1     2   511   502 -1.006994447E+01 -4.639463005E+01  2.869387285E+01  5.547255013E+01  5.840038640E-07  0.00000E+00  9.000E+00
#rwgt            1           1   2.6406177708969886E-002           2       76062           0
</event>
<event>
      5   9999  3.79277E-02  8.70617E+01 -1.00000E+00  1.26596E-01
      21    -1     0     0   502   501  0.000000000E+00  0.000000000E+00  5.127240956E+02  5.127240956E+02  0.000000000E+00  0.00000E+00  9.000E+00
      21    -1     0     0   512   502  0.000000000E+00  0.000000000E+00 -1.614961078E+03  1.614961078E+03  0.000000000E+00  0.00000E+00  9.000E+00
      25     1     1     2     0     0  6.259096060E+01  1.293707211E+02  2.713730711E+02  3.315460082E+02  1.250000000E+02  0.00000E+00  9.000E+00
      25     1     1     2     0     0 -1.248356076E+02 -6.849918652E+01  1.673037046E+02  2.527678719E+02  1.250000000E+02  0.00000E+00  9.000E+00
      21     1     1     2   512   501  6.224464703E+01 -6.087153454E+01 -1.540913758E+03  1.543371293E+03  2.157918644E-05  0.00000E+00  9.000E+00
#rwgt            1           1   3.8413473440573692E-002           2       76154           0
</event>
<event>
      5   9999  3.79277E-02  6.41948E+01 -1.00000E+00  1.33154E-01
      21    -1     0     0   511   501  0.000000000E+00  0.000000000E+00  9.103889974E+02  9.103889974E+02  0.000000000E+00  0.00000E+00  9.000E+00
      21    -1     0     0   501   502  0.000000000E+00  0.000000000E+00 -2.221064425E+02  2.221064425E+02  0.000000000E+00  0.00000E+00  9.000E+00
      25     1     1     2     0     0  3.573024761E+02  6.446441506E+01  2.321802300E+02  4.487241686E+02  1.250000000E+02  0.00000E+00  9.000E+00
      25     1     1     2     0     0 -4.207103950E+02 -7.448477580E+01  4.022570765E+02  5.999841447E+02  1.250000000E+02  0.00000E+00  9.000E+00
      21     1     1     2   511   502  6.340791889E+01  1.002036074E+01  5.384524842E+01  8.378712660E+01  9.536743164E-07  0.00000E+00  9.000E+00
#rwgt            1           1   3.4664082965121433E-002           2       76367           0
</event>
<event>
      5   9999  3.79277E-02  3.52413E+01 -1.00000E+00  1.48336E-01
      21    -1     0     0   512   501  0.000000000E+00  0.000000000E+00  1.436959521E+03  1.436959521E+03  0.000000000E+00  0.00000E+00  9.000E+00
      21    -1     0     0   501   502  0.000000000E+00  0.000000000E+00 -4.505018273E+01  4.505018273E+01  0.000000000E+00  0.00000E+00  9.000E+00
      25     1     1     2     0     0 -9.208261172E+01 -1.552106163E+02  4.275591731E+02  4.806260389E+02  1.250000000E+02  0.00000E+00  9.000E+00
      25     1     1     2     0     0  1.258754668E+02  1.452110205E+02  7.533003849E+02  7.874118005E+02  1.250000000E+02  0.00000E+00  9.000E+00
      21     1     1     2   512   502 -3.379285510E+01  9.999595759E+00  2.110497801E+02  2.139718642E+02  2.697398305E-06  0.00000E+00  9.000E+00
#rwgt            1           1   4.3382041735926941E-002           2       76541           0
</event>
<event>
      5   9999 -3.79277E-02  5.00472E+01 -1.00000E+00  1.39052E-01
      21    -1     0     0   502   501  0.000000000E+00  0.000000000E+00  1.461131203E+02  1.461131203E+02  0.000000000E+00  0.00000E+00  9.000E+00
      21    -1     0     0   501   511  0.000000000E+00  0.000000000E+00 -9.003738685E+02  9.003738685E+02  0.000000000E+00  0.00000E+00  9.000E+00
      25     1     1     2     0     0  2.318209089E+02 -4.670790331E+01 -3.987988850E+02  4.801959107E+02  1.250000000E+02  0.00000E+00  9.000E+00
      25     1     1     2     0     0 -2.662338359E+02  1.036959248E+01 -1.074853871E+02  3.133146857E+02  1.250000000E+02  0.00000E+00  9.000E+00
      21     1     1     2   502   511  3.441292706E+01  3.633831083E+01 -2.479764761E+02  2.529763924E+02  4.672030912E-06  0.00000E+00  9.000E+00
#rwgt            1           1  -3.6688841215012806E-002           2       76727           0
</event>
<event>
      5   9999  3.79277E-02  9.93211E+01 -1.00000E+00  1.23961E-01
      21    -1     0     0   502   501  0.000000000E+00  0.000000000E+00  8.524872851E+02  8.524872851E+02  0.000000000E+00  0.00000E+00  9.000E+00
      21    -1     0     0   512   502  0.000000000E+00  0.000000000E+00 -3.091659161E+02  3.091659161E+02  0.000000000E+00  0.00000E+00  9.000E+00
      25     1     1     2     0     0 -5.949709825E+01  2.385455291E+02 -4.912856997E+01  2.801472658E+02  1.250000000E+02  0.00000E+00  9.000E+00
      25     1     1     2     0     0 -3.933271758E+01 -2.484122888E+02  6.883501359E+02  7.434424238E+02  1.250000000E+02  0.00000E+00  9.000E+00
      21     1     1     2   512   501  9.882981584E+01  9.866759668E+00 -9.590019697E+01  1.380635116E+02  2.336015456E-06  0.00000E+00  9.000E+00
#rwgt            1           1   4.0314280776790487E-002           2       76869           0
</event>
<event>
      5   9999  3.79277E-02  3.13070E+01 -1.00000E+00  1.51765E-01
      21    -1     0     0   502   501  0.000000000E+00  0.000000000E+00  8.934098697E+02  8.934098697E+02  0.000000000E+00  0.00000E+00  9.000E+00
      21    -1     0     0   501   511  0.000000000E+00  0.000000000E+00 -1.377866614E+02  1.377866614E+02  0.000000000E+00  0.00000E+00  9.000E+00
      25     1     1     2     0     0 -1.438785624E+02 -6.661821579E+01  5.799210014E+02  6.140622079E+02  1.250000000E+02  0.00000E+00  9.000E+00
      25     1     1     2     0     0  1.360469858E+02  9.692981371E+01  2.564094557E+02  3.305676634E+02  1.250000000E+02  0.00000E+00  9.000E+00
      21     1     1     2   502   511  7.831576635E+00 -3.031159792E+01 -8.070724882E+01  8.656665971E+01  1.907348633E-06  0.00000E+00  9.000E+00
#rwgt            1           1   4.4141619347219455E-002           2       77023           0
</event>
<event>
      5   9999  3.79277E-02  3.93788E+01 -1.00000E+00  1.45263E-01
      21    -1     0     0   502   501  0.000000000E+00  0.000000000E+00  8.680369203E+01  8.680369203E+01  0.000000000E+00  0.00000E+00  9.000E+00
      21    -1     0     0   512   502  0.000000000E+00  0.000000000E+00 -6.406525154E+02  6.406525154E+02  0.000000000E+00  0.00000E+00  9.000E+00
      25     1     1     2     0     0 -1.277638700E+01 -3.359483905E+01  1.203351680E+01  1.306202695E+02  1.250000000E+02  0.00000E+00  9.000E+00
      25     1     1     2     0     0  5.192537062E+01  3.784300747E+01 -5.060739742E+02  5.252277645E+02  1.250000000E+02  0.00000E+00  9.000E+00
      21     1     1     2   512   501 -3.914898361E+01 -4.248168423E+00 -5.980836603E+01  7.160817341E+01  1.507891493E-06  0.00000E+00  9.000E+00
#rwgt            1           1   3.0256341524085097E-002           2       77320           0
</event>
<event>
      5   9999  3.79277E-02  1.85667E+02 -1.00000E+00  1.12836E-01
      21    -1     0     0   502   501  0.000000000E+00  0.000000000E+00  9.228162915E+02  9.228162915E+02  0.000000000E+00  0.00000E+00  9.000E+00
      21    -1     0     0   501   511  0.000000000E+00  0.000000000E+00 -7.529057757E+02  7.529057757E+02  0.000000000E+00  0.00000E+00  9.000E+00
      25     1     1     2     0     0  3.362270913E+01 -9.535264308E+01  1.132668403E+02  1.966646644E+02  1.250000000E+02  0.00000E+00  9.000E+00
      25     1     1     2     0     0  1.079704470E+02  2.154512967E+02  7.309077797E+02  7.796974164E+02  1.250000000E+02  0.00000E+00  9.000E+00
      21     1     1     2   502   511 -1.415931561E+02 -1.200986537E+02 -6.742641042E+02  6.993599865E+02  1.321449896E-05  0.00000E+00  9.000E+00
#rwgt            1           1   3.7327897712592685E-002           2       77535           0
</event>
<event>
      5   9999  3.79277E-02  1.39303E+01 -1.00000E+00  1.80465E-01
      21    -1     0     0   502   512  0.000000000E+00  0.000000000E+00  2.579749761E+02  2.579749761E+02  0.000000000E+00  0.00000E+00  9.000E+00
      21    -1     0     0   501   502  0.000000000E+00  0.000000000E+00 -1.522799961E+02  1.522799961E+02  0.000000000E+00  0.00000E+00  9.000E+00
      25     1     1     2     0     0 -1.102380060E+02  9.785484854E+01  5.002110888E+01  1.996374230E+02  1.250000000E+02  0.00000E+00  9.000E+00
      25     1     1     2     0     0  9.711674561E+01 -1.025329437E+02  4.758705764E+01  1.945101408E+02  1.250000000E+02  0.00000E+00  9.000E+00
      21     1     1     2   501   512  1.312126037E+01  4.678095205E+00  8.086813479E+00  1.610740825E+01  0.000000000E+00  0.00000E+00  9.000E+00
#rwgt            1           1   3.4737076639581040E-002           2       77589           0
</event>
<event>
      5   9999  3.79277E-02  7.26863E+01 -1.00000E+00  1.30398E-01
      21    -1     0     0   502   511  0.000000000E+00  0.000000000E+00  1.579590183E+02  1.579590183E+02  0.000000000E+00  0.00000E+00  9.000E+00
      21    -1     0     0   501   502  0.000000000E+00  0.000000000E+00 -2.211889197E+03  2.211889197E+03  0.000000000E+00  0.00000E+00  9.000E+00
      25     1     1     2     0     0 -8.488861416E+01 -4.122689660E+01 -1.789382927E+03  1.796224371E+03  1.250000000E+02  0.00000E+00  9.000E+00
      25     1     1     2     0     0  6.404817714E+01 -2.840768205E+01 -3.972572680E+02  4.223120912E+02  1.250000000E+02  0.00000E+00  9.000E+00
      21     1     1     2   501   511  2.084043703E+01  6.963457865E+01  1.327100157E+02  1.513117531E+02  7.864199878E-06  0.00000E+00  9.000E+00
#rwgt            1           1  0.14321835518917095                2       77847           0
</event>
<event>
      5   9999  3.79277E-02  1.42045E+01 -1.00000E+00  1.79642E-01
      21    -1     0     0   512   501  0.000000000E+00  0.000000000E+00  8.544722473E+02  8.544722473E+02  0.000000000E+00  0.00000E+00  9.000E+00
      21    -1     0     0   501   502  0.000000000E+00  0.000000000E+00 -8.567308269E+01  8.567308269E+01  0.000000000E+00  0.00000E+00  9.000E+00
      25     1     1     2     0     0 -8.652631324E+01 -1.283979203E+01  7.519459120E+02  7.672674356E+02  1.250000000E+02  0.00000E+00  9.000E+00
      25     1     1     2     0     0  7.246948781E+01  1.079681182E+01 -7.061243371E+00  1.450629483E+02  1.250000000E+02  0.00000E+00  9.000E+00
      21     1     1     2   512   502  1.405682543E+01  2.042980208E+00  2.391449593E+01  2.781494607E+01  0.000000000E+00  0.00000E+00  9.000E+00
#rwgt            1           1   3.7337296606794725E-002           2       77933           0
</event>
<event>
      5   9999  3.79277E-02  1.93566E+01 -1.00000E+00  1.67549E-01
      21    -1     0     0   502   511  0.000000000E+00  0.000000000E+00  7.309989707E+02  7.309989707E+02  0.000000000E+00  0.00000E+00  9.000E+00
      21    -1     0     0   501   502  0.000000000E+00  0.000000000E+00 -1.022647444E+02  1.022647444E+02  0.000000000E+00  0.00000E+00  9.000E+00
      25     1     1     2     0     0  1.075493575E+02 -1.417917744E+02  8.255909529E+01  2.326215291E+02  1.250000000E+02  0.00000E+00  9.000E+00
      25     1     1     2     0     0 -1.011675391E+02  1.600660555E+02  4.679246689E+02  5.200331805E+02  1.250000000E+02  0.00000E+00  9.000E+00
      21     1     1     2   501   511 -6.381818410E+00 -1.827428115E+01  7.825046213E+01  8.060900559E+01  1.651812370E-06  0.00000E+00  9.000E+00
#rwgt            1           1  0.10373623434911253                2       78193           0
</event>
<event>
      5   9999  3.79277E-02  7.48727E+01 -1.00000E+00  1.29757E-01
      21    -1     0     0   502   512  0.000000000E+00  0.000000000E+00  9.742117386E+02  9.742117386E+02  0.000000000E+00  0.00000E+00  9.000E+00
      21    -1     0     0   501   502  0.000000000E+00  0.000000000E+00 -1.979081894E+02  1.979081894E+02  0.000000000E+00  0.00000E+00  9.000E+00
      25     1     1     2     0     0 -6.400237037E+01  1.494545979E+02  8.032282035E+01  2.202492582E+02  1.250000000E+02  0.00000E+00  9.000E+00
      25     1     1     2     0     0  2.660325068E+00 -1.065235393E+02 -7.264893134E+01  1.796029203E+02  1.250000000E+02  0.00000E+00  9.000E+00
      21     1     1     2   501   512  6.134204530E+01 -4.293105858E+01  7.686296602E+02  7.722677495E+02  1.078959322E-05  0.00000E+00  9.000E+00
#rwgt            1           1   2.6654511651817616E-002           2       78327           0
</event>
<event>
      5   9999  3.79277E-02  3.23806E+01 -1.00000E+00  1.50772E-01
      21    -1     0     0   502   501  0.000000000E+00  0.000000000E+00  1.858922432E+02  1.858922432E+02  0.000000000E+00  0.00000E+00  9.000E+00
       2    -1     0     0   501     0  0.000000000E+00  0.000000000E+00 -3.289267707E+03  3.289267707E+03  0.000000000E+00  0.00000E+00  9.000E+00
      25     1     1     2     0     0 -3.267208888E+01  1.388800299E+02  7.056406060E+01  2.023843243E+02  1.250000000E+02  0.00000E+00  9.000E+00
      25     1     1     2     0     0  4.661431484E-01 -1.355211549E+02 -1.229247391E+02  2.215890164E+02  1.250000000E+02  0.00000E+00  9.000E+00
       2     1     1     2   502     0  3.220594573E+01 -3.358874985E+00 -3.051014785E+03  3.051186609E+03  4.315837288E-05  0.00000E+00  9.000E+00
#rwgt            1           1   3.6652527652954542E-002           2       78436           0
</event>
<event>
      5   9999  3.79277E-02  7.35127E+01 -1.00000E+00  1.30153E-01
      21    -1     0     0   502   501  0.000000000E+00  0.000000000E+00  3.313515384E+02  3.313515384E+02  0.000000000E+00  0.00000E+00  9.000E+00
       2    -1     0     0   501     0  0.000000000E+00  0.000000000E+00 -1.565150256E+02  1.565150256E+02  0.000000000E+00  0.00000E+00  9.000E+00
      25     1     1     2     0     0 -7.049274965E+01 -1.108993352E+02  4.830693265E+01  1.876871067E+02  1.250000000E+02  0.00000E+00  9.000E+00
      25     1     1     2     0     0  1.230226377E+02  5.947241552E+01  1.305086550E+02  2.265591460E+02  1.250000000E+02  0.00000E+00  9.000E+00
       2     1     1     2   502     0 -5.252988805E+01  5.142691963E+01 -3.979074847E+00  7.362031131E+01  1.534168443E-06  0.00000E+00  9.000E+00
#rwgt            1           1   4.4879716399032890E-002           2       78612           0
</event>
<event>
      5   9999  3.79277E-02  2.50390E+01 -1.00000E+00  1.58700E-01
      21    -1     0     0   502   511  0.000000000E+00  0.000000000E+00  2.973432423E+02  2.973432423E+02  0.000000000E+00  0.00000E+00  9.000E+00
      21    -1     0     0   501   502  0.000000000E+00  0.000000000E+00 -1.726443048E+02  1.726443048E+02  0.000000000E+00  0.00000E+00  9.000E+00
      25     1     1     2     0     0 -1.280858801E+02 -5.395783759E+01  1.171488288E+02  2.206043721E+02  1.250000000E+02  0.00000E+00  9.000E+00
      25     1     1     2     0     0  1.395935402E+02  3.171986983E+01 -4.130716406E+01  1.944833885E+02  1.250000000E+02  0.00000E+00  9.000E+00
      21     1     1     2   501   511 -1.150766011E+01  2.223796776E+01  4.885727278E+01  5.489978647E+01  0.000000000E+00  0.00000E+00  9.000E+00
#rwgt            1           1   3.8848916064119013E-002           2       78710           0
</event>
<event>
      5   9999  3.79277E-02  8.10360E+01 -1.00000E+00  1.28080E-01
      21    -1     0     0   502   501  0.000000000E+00  0.000000000E+00  2.049444351E+02  2.049444351E+02  0.000000000E+00  0.00000E+00  9.000E+00
      21    -1     0     0   512   502  0.000000000E+00  0.000000000E+00 -6.540469991E+02  6.540469991E+02  0.000000000E+00  0.00000E+00  9.000E+00
      25     1     1     2     0     0  1.201654260E+02  4.208273825E+01 -4.080315065E+02  4.453373966E+02  1.250000000E+02  0.00000E+00  9.000E+00
      25     1     1     2     0     0 -1.369587150E+02 -1.213595506E+02  1.060606654E+02  2.456821013E+02  1.250000000E+02  0.00000E+00  9.000E+00
      21     1     1     2   512   501  1.679328904E+01  7.927681238E+01 -1.471317228E+02  1.679719364E+02  2.697398305E-06  0.00000E+00  9.000E+00
#rwgt            1           1   4.0236808616353231E-002           2       78847           0
</event>
<event>
      5   9999  3.79277E-02  2.33549E+01 -1.00000E+00  1.60997E-01
      21    -1     0     0   502   501  0.000000000E+00  0.000000000E+00  8.061189090E+02  8.061189090E+02  0.000000000E+00  0.00000E+00  9.000E+00
      21    -1     0     0   511   502  0.000000000E+00  0.000000000E+00 -2.795304199E+02  2.795304199E+02  0.000000000E+00  0.00000E+00  9.000E+00
      25     1     1     2     0     0 -5.577761595E+01  2.410323457E+02  6.762373995E+02  7.308418123E+02  1.250000000E+02  0.00000E+00  9.000E+00
      25     1     1     2     0     0  6.826751323E+01 -2.607669202E+02 -1.301474867E+02  3.243812700E+02  1.250000000E+02  0.00000E+00  9.000E+00
      21     1     1     2   511   501 -1.248989728E+01  1.973457445E+01 -1.950142358E+01  3.042624664E+01  5.331201500E-07  0.00000E+00  9.000E+00
#rwgt            1           1  0.13193530577303206                2       78915           0
</event>
<event>
      5   9999  3.79277E-02  2.02804E+01 -1.00000E+00  1.65872E-01
      21    -1     0     0   502   501  0.000000000E+00  0.000000000E+00  2.147918208E+02  2.147918208E+02  0.000000000E+00  0.00000E+00  9.000E+00
      21    -1     0     0   512   502  0.000000000E+00  0.000000000E+00 -4.801028491E+02  4.801028491E+02  0.000000000E+00  0.00000E+00  9.000E+00
      25     1     1     2     0     0 -7.183791537E+01  1.356270158E+02  1.236834538E+02  2.334051633E+02  1.250000000E+02  0.00000E+00  9.000E+00
      25     1     1     2     0     0  5.668783104E+01 -1.491092302E+02 -2.538217360E+02  3.248038583E+02  1.250000000E+02  0.00000E+00  9.000E+00
      21     1     1     2   512   501  1.515008432E+01  1.348221441E+01 -1.351727462E+02  1.366856483E+02  1.907348633E-06  0.00000E+00  9.000E+00
#rwgt            1           1   5.2038310856088170E-002           2       79112           0
</event>
<event>
      5   9999  3.79277E-02  4.82764E+01 -1.00000E+00  1.39950E-01
      21    -1     0     0   511   501  0.000000000E+00  0.000000000E+00  5.172681871E+01  5.172681871E+01  0.000000000E+00  0.00000E+00  9.000E+00
      21    -1     0     0   501   502  0.000000000E+00  0.000000000E+00 -8.239988119E+02  8.239988119E+02  0.000000000E+00  0.00000E+00  9.000E+00
      25     1     1     2     0     0  8.266458601E+01  7.025030985E+01 -3.244604590E+02  3.642363645E+02  1.250000000E+02  0.00000E+00  9.000E+00
      25     1     1     2     0     0 -1.232300686E+02 -4.407684636E+01 -4.160326122E+02  4.536921342E+02  1.250000000E+02  0.00000E+00  9.000E+00
      21     1     1     2   511   502  4.056548259E+01 -2.617346349E+01 -3.177892195E+01  5.779713184E+01  5.840038640E-07  0.00000E+00  9.000E+00
#rwgt            1           1   3.0249346779136363E-002           2       79468           0
</event>
<event>
      5   9999  3.79277E-02  1.65846E+01 -1.00000E+00  1.73371E-01
      -1    -1     0     0     0   501  0.000000000E+00  0.000000000E+00  1.832772388E+03  1.832772388E+03  0.000000000E+00  0.00000E+00  9.000E+00
      21    -1     0     0   501   502  0.000000000E+00  0.000000000E+00 -1.982109493E+02  1.982109493E+02  0.000000000E+00  0.00000E+00  9.000E+00
      25     1     1     2     0     0 -2.187010456E+02 -1.929232453E+02  2.741714066E+02  4.193381525E+02  1.250000000E+02  0.00000E+00  9.000E+00
      25     1     1     2     0     0  2.022391443E+02  1.949369252E+02  6.261250946E+01  3.137616972E+02  1.250000000E+02  0.00000E+00  9.000E+00
      -1     1     1     2     0   502  1.646190132E+01 -2.013679851E+00  1.297777522E+03  1.297883487E+03  2.157918644E-05  0.00000E+00  9.000E+00
#rwgt            1           1   2.8361712502931690E-002           2       79528           0
</event>
<event>
      5   9999  3.79277E-02  5.49428E+01 -1.00000E+00  1.36779E-01
      21    -1     0     0   511   501  0.000000000E+00  0.000000000E+00  9.556975430E+02  9.556975430E+02  0.000000000E+00  0.00000E+00  9.000E+00
      21    -1     0     0   501   502  0.000000000E+00  0.000000000E+00 -5.875282529E+01  5.875282529E+01  0.000000000E+00  0.00000E+00  9.000E+00
      25     1     1     2     0     0 -4.703041113E+01  9.051781641E+01  2.863129818E+02  3.286418388E+02  1.250000000E+02  0.00000E+00  9.000E+00
      25     1     1     2     0     0  9.563374089E+01 -1.161387327E+02  2.330726000E+02  3.042726647E+02  1.250000000E+02  0.00000E+00  9.000E+00
      21     1     1     2   511   502 -4.860332976E+01  2.562091627E+01  3.775591358E+02  3.815358647E+02  7.629394531E-06  0.00000E+00  9.000E+00
#rwgt            1           1   4.0084301411702730E-002           2       79744           0
</event>
<event>
      5   9999  3.79277E-02  4.78902E+00 -1.00000E+00  2.46312E-01
      21    -1     0     0   502   512  0.000000000E+00  0.000000000E+00  1.665677403E+02  1.665677403E+02  0.000000000E+00  0.00000E+00  9.000E+00
      21    -1     0     0   501   502  0.000000000E+00  0.000000000E+00 -4.327713409E+02  4.327713409E+02  0.000000000E+00  0.00000E+00  9.000E+00
      25     1     1     2     0     0  6.890255756E+01 -4.049441431E+01 -3.592881099E+02  3.887162280E+02  1.250000000E+02  0.00000E+00  9.000E+00
      25     1     1     2     0     0 -6.499773542E+01  3.772185849E+01  3.196129937E+01  1.493123199E+02  1.250000000E+02  0.00000E+00  9.000E+00
      21     1     1     2   501   512 -3.904822144E+00  2.772555817E+00  6.112320991E+01  6.131053328E+01  6.743495762E-07  0.00000E+00  9.000E+00
#rwgt            1           1   4.5480433377100914E-002           2       79822           0
</event>
<event>
      5   9999  3.79277E-02  1.21031E+02 -1.00000E+00  1.20211E-01
      21    -1     0     0   502   501  0.000000000E+00  0.000000000E+00  1.747648395E+02  1.747648395E+02  0.000000000E+00  0.00000E+00  9.000E+00
      21    -1     0     0   501   511  0.000000000E+00  0.000000000E+00 -7.162700627E+02  7.162700627E+02  0.000000000E+00  0.00000E+00  9.000E+00
      25     1     1     2     0     0 -1.846338665E+02  9.251418129E+01 -1.043820005E+02  2.630002669E+02  1.250000000E+02  0.00000E+00  9.000E+00
      25     1     1     2     0     0  2.294873114E+02  1.989857163E+01 -1.193159677E+02  2.879612463E+02  1.250000000E+02  0.00000E+00  9.000E+00
      21     1     1     2   502   511 -4.485344490E+01 -1.124127529E+02 -3.178072550E+02  3.400733889E+02  0.000000000E+00  0.00000E+00  9.000E+00
#rwgt            1           1   4.2396343868573168E-002           2       80343           0
</event>
<event>
      5   9999  3.79277E-02  3.82147E+01 -1.00000E+00  1.46081E-01
      21    -1     0     0   502   501  0.000000000E+00  0.000000000E+00  2.284034301E+03  2.284034301E+03  0.000000000E+00  0.00000E+00  9.000E+00
      21    -1     0     0   512   502  0.000000000E+00  0.000000000E+00 -3.223367390E+01  3.223367390E+01  0.000000000E+00  0.00000E+00  9.000E+00
      25     1     1     2     0     0  1.381148597E+01 -9.974511944E+01  1.219292923E+03  1.229813026E+03  1.250000000E+02  0.00000E+00  9.000E+00
      25     1     1     2     0     0 -5.010233180E+01  8.777262632E+01  1.035706564E+03  1.048106561E+03  1.250000000E+02  0.00000E+00  9.000E+00
      21     1     1     2   512   501  3.629084582E+01  1.197249312E+01 -3.198860564E+00  3.834838707E+01  2.606979338E-06  0.00000E+00  9.000E+00
#rwgt            1           1   9.3523330866371490E-002           2       80498           0
</event>
<event>
      5   9999  3.79277E-02  5.60392E+01 -1.00000E+00  1.36308E-01
      21    -1     0     0   502   511  0.000000000E+00  0.000000000E+00  1.615580875E+02  1.615580875E+02  0.000000000E+00  0.00000E+00  9.000E+00
      21    -1     0     0   501   502  0.000000000E+00  0.000000000E+00 -3.150203943E+02  3.150203943E+02  0.000000000E+00  0.00000E+00  9.000E+00
      25     1     1     2     0     0 -2.670650215E+00  1.238780331E+02 -6.272510652E+01  1.868484371E+02  1.250000000E+02  0.00000E+00  9.000E+00
      25     1     1     2     0     0  3.779232160E+00 -1.799062639E+02 -7.343467721E+01  2.310805016E+02  1.250000000E+02  0.00000E+00  9.000E+00
      21     1     1     2   501   511 -1.108581945E+00  5.602823082E+01 -1.730252311E+01  5.864954313E+01  2.384185791E-07  0.00000E+00  9.000E+00
#rwgt            1           1   2.6208485076189798E-002           2       80620           0
</event>
<event>
      5   9999  3.79277E-02  3.39117E+01 -1.00000E+00  1.49432E-01
      21    -1     0     0   512   501  0.000000000E+00  0.000000000E+00  8.668406224E+02  8.668406224E+02  0.000000000E+00  0.00000E+00  9.000E+00
      21    -1     0     0   501   502  0.000000000E+00  0.000000000E+00 -1.285155784E+02  1.285155784E+02  0.000000000E+00  0.00000E+00  9.000E+00
      25     1     1     2     0     0 -1.779795399E+02  1.737236516E+02  1.102665184E+02  2.993999480E+02  1.250000000E+02  0.00000E+00  9.000E+00
      25     1     1     2     0     0  1.444834321E+02 -1.684309425E+02  4.728014408E+02  5.370387760E+02  1.250000000E+02  0.00000E+00  9.000E+00
      21     1     1     2   512   502  3.349610789E+01 -5.292709187E+00  1.552570849E+02  1.589174768E+02  2.697398305E-06  0.00000E+00  9.000E+00
#rwgt            1           1   3.2080297592152265E-002           2       80792           0
</event>
<event>
      5   9999  3.79277E-02  1.66564E+01 -1.00000E+00  1.73203E-01
      21    -1     0     0   502   501  0.000000000E+00  0.000000000E+00  8.103751040E+02  8.103751040E+02  0.000000000E+00  0.00000E+00  9.000E+00
      21    -1     0     0   501   511  0.000000000E+00  0.000000000E+00 -8.709399569E+01  8.709399569E+01  0.000000000E+00  0.00000E+00  9.000E+00
      25     1     1     2     0     0 -1.191214437E+02  1.869092844E+02  2.671768394E+02  3.689626844E+02  1.250000000E+02  0.00000E+00  9.000E+00
      25     1     1     2     0     0  1.195907916E+02 -1.702594832E+02  4.489800656E+02  5.103903882E+02  1.250000000E+02  0.00000E+00  9.000E+00
      21     1     1     2   502   511 -4.693478510E-01 -1.664980115E+01  7.124203254E+00  1.811602710E+01  1.685873940E-07  0.00000E+00  9.000E+00
#rwgt            1           1   4.0942905358125836E-002           2       80954           0
</event>
<event>
      5   9999  3.79277E-02  1.70431E+01 -1.00000E+00  1.72314E-01
      21    -1     0     0   502   501  0.000000000E+00  0.000000000E+00  1.245497480E+02  1.245497480E+02  0.000000000E+00  0.00000E+00  9.000E+00
      21    -1     0     0   512   502  0.000000000E+00  0.000000000E+00 -6.360402246E+02  6.360402246E+02  0.000000000E+00  0.00000E+00  9.000E+00
      25     1     1     2     0     0  1.157309604E+02 -2.117578534E+02 -1.930476910E+02  3.333578477E+02  1.250000000E+02  0.00000E+00  9.000E+00
      25     1     1     2     0     0 -9.884523820E+01  2.094471580E+02 -2.753677197E+02  3.809079602E+02  1.250000000E+02  0.00000E+00  9.000E+00
      21     1     1     2   512   501 -1.688572216E+01  2.310695405E+00 -4.307506589E+01  4.632416462E+01  0.000000000E+00  0.00000E+00  9.000E+00
#rwgt            1           1   6.7748388955755620E-002           2       81123           0
</event>
<event>
      5   9999  3.79277E-02  7.62462E+01 -1.00000E+00  1.29368E-01
      21    -1     0     0   511   501  0.000000000E+00  0.000000000E+00  1.731089735E+03  1.731089735E+03  0.000000000E+00  0.00000E+00  9.000E+00
      21    -1     0     0   501   502  0.000000000E+00  0.000000000E+00 -1.011154235E+02  1.011154235E+02  0.000000000E+00  0.00000E+00  9.000E+00
      25     1     1     2     0     0 -3.096230846E+01 -3.027423104E+02  8.618989657E+02  9.225542792E+02  1.250000000E+02  0.00000E+00  9.000E+00
      25     1     1     2     0     0  8.635696162E+01  2.503503868E+02  2.472173205E+02  3.832417573E+02  1.250000000E+02  0.00000E+00  9.000E+00
      21     1     1     2   511   502 -5.539465316E+01  5.239192355E+01  5.208580255E+02  5.264091222E+02  1.078959322E-05  0.00000E+00  9.000E+00
#rwgt            1           1   2.8920770747526792E-002           2       81352           0
</event>
<event>
      5   9999  3.79277E-02  2.97364E+01 -1.00000E+00  1.53306E-01
      21    -1     0     0   502   512  0.000000000E+00  0.000000000E+00  7.080699048E+02  7.080699048E+02  0.000000000E+00  0.00000E+00  9.000E+00
      21    -1     0     0   501   502  0.000000000E+00  0.000000000E+00 -1.332500133E+02  1.332500133E+02  0.000000000E+00  0.00000E+00  9.000E+00
      25     1     1     2     0     0 -5.055153590E+00  1.862441296E+02  3.447517222E+01  2.269933212E+02  1.250000000E+02  0.00000E+00  9.000E+00
      25     1     1     2     0     0  3.401328078E+01 -1.794852678E+02  3.036221211E+02  3.757436054E+02  1.250000000E+02  0.00000E+00  9.000E+00
      21     1     1     2   501   512 -2.895812719E+01 -6.758861798E+00  2.367225981E+02  2.385829914E+02  3.814697266E-06  0.00000E+00  9.000E+00
#rwgt            1           1   4.3981395577957418E-002           2       81503           0
</event>
<event>
      5   9999  3.79277E-02  3.22859E+01 -1.00000E+00  1.50857E-01
      21    -1     0     0   502   501  0.000000000E+00  0.000000000E+00  9.027041129E+02  9.027041129E+02  0.000000000E+00  0.00000E+00  9.000E+00
      21    -1     0     0   501   511  0.000000000E+00  0.000000000E+00 -1.611845329E+02  1.611845329E+02  0.000000000E+00  0.00000E+00  9.000E+00
      25     1     1     2     0     0  1.716147182E+02 -1.882999495E+02  1.762491482E+02  3.340617379E+02  1.250000000E+02  0.00000E+00  9.000E+00
      25     1     1     2     0     0 -1.614845697E+02  2.189554463E+02  6.071423266E+02  6.769531435E+02  1.250000000E+02  0.00000E+00  9.000E+00
      21     1     1     2   502   511 -1.013014856E+01 -3.065549676E+01 -4.187189482E+01  5.287376445E+01  9.536743164E-07  0.00000E+00  9.000E+00
#rwgt            1           1   3.9337491094004667E-002           2       81721           0
</event>
<event>
      5   9999  3.79277E-02  3.54612E+01 -1.00000E+00  1.48161E-01
      21    -1     0     0   502   501  0.000000000E+00  0.000000000E+00  1.227874385E+03  1.227874385E+03  0.000000000E+00  0.00000E+00  9.000E+00
      21    -1     0     0   512   502  0.000000000E+00  0.000000000E+00 -4.208323305E+01  4.208323305E+01  0.000000000E+00  0.00000E+00  9.000E+00
      25     1     1     2     0     0 -4.372564810E+01 -8.489567689E+01  2.080814993E+02  2.608488424E+02  1.250000000E+02  0.00000E+00  9.000E+00
      25     1     1     2     0     0  3.476950948E+01  1.192072717E+02  9.435878417E+02  9.598970296E+02  1.250000000E+02  0.00000E+00  9.000E+00
      21     1     1     2   512   501  8.956138616E+00 -3.431159485E+01  3.412181090E+01  4.921174595E+01  9.536743164E-07  0.00000E+00  9.000E+00
#rwgt            1           1   5.0697782971776642E-002           2       81960           0
</event>
<event>
      5   9999  3.79277E-02  5.43802E+01 -1.00000E+00  1.37026E-01
      21    -1     0     0   511   501  0.000000000E+00  0.000000000E+00  5.083459252E+01  5.083459252E+01  0.000000000E+00  0.00000E+00  9.000E+00
      21    -1     0     0   501   502  0.000000000E+00  0.000000000E+00 -1.650678279E+03  1.650678279E+03  0.000000000E+00  0.00000E+00  9.000E+00
      25     1     1     2     0     0  9.437462468E+01 -8.954083396E+01 -9.145040440E+02  9.321302362E+02  1.250000000E+02  0.00000E+00  9.000E+00
      25     1     1     2     0     0 -1.343061280E+02  1.264553816E+02 -6.790057248E+02  7.146347836E+02  1.250000000E+02  0.00000E+00  9.000E+00
      21     1     1     2   511   502  3.993150331E+01 -3.691454768E+01 -6.333917952E+00  5.474785205E+01  9.973764736E-07  0.00000E+00  9.000E+00
#rwgt            1           1   2.8462808400460712E-002           2       82111           0
</event>
<event>
      5   9999  3.79277E-02  1.79555E+01 -1.00000E+00  1.70328E-01
      21    -1     0     0   502   512  0.000000000E+00  0.000000000E+00  2.997737086E+02  2.997737086E+02  0.000000000E+00  0.00000E+00  9.000E+00
      21    -1     0     0   501   502  0.000000000E+00  0.000000000E+00 -2.648255494E+02  2.648255494E+02  0.000000000E+00  0.00000E+00  9.000E+00
      25     1     1     2     0     0 -7.743316999E+01 -1.239775102E+02  1.977272678E+02  2.758394303E+02  1.250000000E+02  0.00000E+00  9.000E+00
      25     1     1     2     0     0  7.832767554E+01  1.419107062E+02 -1.730804538E+02  2.680591666E+02  1.250000000E+02  0.00000E+00  9.000E+00
      21     1     1     2   501   512 -8.945055442E-01 -1.793319603E+01  1.030134523E+01  2.070066118E+01  2.384185791E-07  0.00000E+00  9.000E+00
#rwgt            1           1   2.6560310209763387E-002           2       82224           0
</event>
<event>
      5   9999  3.79277E-02  3.00922E+01 -1.00000E+00  1.52947E-01
      21    -1     0     0   502   511  0.000000000E+00  0.000000000E+00  1.732055176E+02  1.732055176E+02  0.000000000E+00  0.00000E+00  9.000E+00
      21    -1     0     0   501   502  0.000000000E+00  0.000000000E+00 -4.503993837E+02  4.503993837E+02  0.000000000E+00  0.00000E+00  9.000E+00
      25     1     1     2     0     0  3.569253729E+01 -8.503380001E+01 -3.691818614E+02  4.005308367E+02  1.250000000E+02  0.00000E+00  9.000E+00
      25     1     1     2     0     0 -3.340430382E+01  1.150388811E+02  7.828084466E+01  1.900070586E+02  1.250000000E+02  0.00000E+00  9.000E+00
      21     1     1     2   501   511 -2.288233464E+00 -3.000508107E+01  1.370715069E+01  3.306700595E+01  7.539457465E-07  0.00000E+00  9.000E+00
#rwgt            1           1   2.2718068257698731E-002           2       82459           0
</event>
<event>
      5   9999 -3.79277E-02  8.91387E+01 -1.00000E+00  1.26116E-01
      21    -1     0     0   512   501  0.000000000E+00  0.000000000E+00  4.088704927E+02  4.088704927E+02  0.000000000E+00  0.00000E+00  9.000E+00
      21    -1     0     0   501   502  0.000000000E+00  0.000000000E+00 -2.646251423E+02  2.646251423E+02  0.000000000E+00  0.00000E+00  9.000E+00
      25     1     1     2     0     0  2.689637551E+01  3.924578977E+00 -1.453684979E+02  1.936383679E+02  1.250000000E+02  0.00000E+00  9.000E+00
      25     1     1     2     0     0 -5.665460722E+01  8.010017343E+01 -1.768981636E+01  1.598865595E+02  1.250000000E+02  0.00000E+00  9.000E+00
      21     1     1     2   512   502  2.975823171E+01 -8.402475241E+01  3.073036647E+02  3.199707076E+02  0.000000000E+00  0.00000E+00  9.000E+00
#rwgt            1           1 -0.10581992296128992                2       82595           0
</event>
<event>
      5   9999  3.79277E-02  1.44672E+02 -1.00000E+00  1.17020E-01
      21    -1     0     0   511   501  0.000000000E+00  0.000000000E+00  6.236612268E+02  6.236612268E+02  0.000000000E+00  0.00000E+00  9.000E+00
      21    -1     0     0   501   502  0.000000000E+00  0.000000000E+00 -2.363038538E+02  2.363038538E+02  0.000000000E+00  0.00000E+00  9.000E+00
      25     1     1     2     0     0 -1.785335692E+02  5.691850338E+01 -4.886354335E+01  2.304920763E+02  1.250000000E+02  0.00000E+00  9.000E+00
      25     1     1     2     0     0  1.492788282E+02 -1.986016173E+02  1.685548229E+02  3.252114685E+02  1.250000000E+02  0.00000E+00  9.000E+00
      21     1     1     2   511   502  2.925474095E+01  1.416831139E+02  2.676660934E+02  3.042615358E+02  0.000000000E+00  0.00000E+00  9.000E+00
#rwgt            1           1   3.7568737711491509E-002           2       82689           0
</event>
<event>
      5   9999  3.79277E-02  9.50514E+00 -1.00000E+00  1.98340E-01
      21    -1     0     0   502   501  0.000000000E+00  0.000000000E+00  1.511154627E+02  1.511154627E+02  0.000000000E+00  0.00000E+00  9.000E+00
      21    -1     0     0   512   502  0.000000000E+00  0.000000000E+00 -6.527595147E+02  6.527595147E+02  0.000000000E+00  0.00000E+00  9.000E+00
      25     1     1     2     0     0 -2.063182652E+02  1.819873333E+02 -2.884467865E+02  4.177477285E+02  1.250000000E+02  0.00000E+00  9.000E+00
      25     1     1     2     0     0  2.086924713E+02 -1.911911811E+02 -1.953717940E+02  3.659258849E+02  1.250000000E+02  0.00000E+00  9.000E+00
      21     1     1     2   512   501 -2.374206136E+00  9.203847807E+00 -1.782547149E+01  2.020136389E+01  4.768371582E-07  0.00000E+00  9.000E+00
#rwgt            1           1  0.18909795723603864                2       82810           0
</event>
<event>
      5   9999 -3.79277E-02  1.17851E+02 -1.00000E+00  1.20702E-01
      21    -1     0     0   502   501  0.000000000E+00  0.000000000E+00  7.058464259E+02  7.058464259E+02  0.000000000E+00  0.00000E+00  9.000E+00
       2    -1     0     0   501     0  0.000000000E+00  0.000000000E+00 -9.257386640E+02  9.257386640E+02  0.000000000E+00  0.00000E+00  9.000E+00
      25     1     1     2     0     0 -3.876184557E+02  1.055612734E+00  6.869301257E+01  4.130289476E+02  1.250000000E+02  0.00000E+00  9.000E+00
      25     1     1     2     0     0  2.882633273E+02  6.232718501E+01  4.042469144E+02  5.157722285E+02  1.250000000E+02  0.00000E+00  9.000E+00
       2     1     1     2   502     0  9.935512843E+01 -6.338279775E+01 -6.928321651E+02  7.027839139E+02  7.629394531E-06  0.00000E+00  9.000E+00
#rwgt            1           1 -0.13893184916105925                2       83162           0
</event>
<event>
      5   9999  3.79277E-02  1.85319E+01 -1.00000E+00  1.69148E-01
      21    -1     0     0   502   501  0.000000000E+00  0.000000000E+00  1.829563512E+03  1.829563512E+03  0.000000000E+00  0.00000E+00  9.000E+00
      21    -1     0     0   511   502  0.000000000E+00  0.000000000E+00 -1.949822537E+01  1.949822537E+01  0.000000000E+00  0.00000E+00  9.000E+00
      25     1     1     2     0     0  1.022390171E+02  6.359778880E+01  9.507864151E+02  9.664974405E+02  1.250000000E+02  0.00000E+00  9.000E+00
      25     1     1     2     0     0 -8.443656675E+01 -5.844947179E+01  8.414103564E+02  8.568210212E+02  1.250000000E+02  0.00000E+00  9.000E+00
      21     1     1     2   511   501 -1.780245034E+01 -5.148317009E+00  1.786851505E+01  2.574327556E+01  1.305872339E-06  0.00000E+00  9.000E+00
#rwgt            1           1  0.18084182866123247                2       83261           0
</event>
<event>
      5   9999  3.79277E-02  7.40772E+01 -1.00000E+00  1.29987E-01
      21    -1     0     0   502   501  0.000000000E+00  0.000000000E+00  2.680933927E+02  2.680933927E+02  0.000000000E+00  0.00000E+00  9.000E+00
      21    -1     0     0   512   502  0.000000000E+00  0.000000000E+00 -1.780741747E+02  1.780741747E+02  0.000000000E+00  0.00000E+00  9.000E+00
      25     1     1     2     0     0  1.100016452E+02  4.583258582E+01  1.461802392E+02  2.262623482E+02  1.250000000E+02  0.00000E+00  9.000E+00
      25     1     1     2     0     0 -3.592845570E+01 -4.505720988E+01 -4.603739789E+01  1.451394092E+02  1.250000000E+02  0.00000E+00  9.000E+00
      21     1     1     2   512   501 -7.407318948E+01 -7.753759479E-01 -1.012362330E+01  7.476581007E+01  2.665600750E-07  0.00000E+00  9.000E+00
#rwgt            1           1   5.5523998424199958E-002           2       83387           0
</event>
<event>
      5   9999  3.79277E-02  6.47104E+01 -1.00000E+00  1.32973E-01
      21    -1     0     0   502   501  0.000000000E+00  0.000000000E+00  1.303322827E+03  1.303322827E+03  0.000000000E+00  0.00000E+00  9.000E+00
      21    -1     0     0   501   511  0.000000000E+00  0.000000000E+00 -9.586935615E+01  9.586935615E+01  0.000000000E+00  0.00000E+00  9.000E+00
      25     1     1     2     0     0  2.781578342E+01 -2.539741208E+02  5.218146509E+02  5.942996734E+02  1.250000000E+02  0.00000E+00  9.000E+00
      25     1     1     2     0     0 -3.423353178E+00  3.139111538E+02  6.459200809E+02  7.289648021E+02  1.250000000E+02  0.00000E+00  9.000E+00
      21     1     1     2   502   511 -2.439243024E+01 -5.993703296E+01  3.971873917E+01  7.592770781E+01  1.168007728E-06  0.00000E+00  9.000E+00
#rwgt            1           1   1.2432344714012141E-002           2       83494           0
</event>
<event>
      5   9999  3.79277E-02  1.60292E+01 -1.00000E+00  1.74711E-01
      21    -1     0     0   502   501  0.000000000E+00  0.000000000E+00  3.593495217E+02  3.593495217E+02  0.000000000E+00  0.00000E+00  9.000E+00
      21    -1     0     0   501   512  0.000000000E+00  0.000000000E+00 -6.010720198E+02  6.010720198E+02  0.000000000E+00  0.00000E+00  9.000E+00
      25     1     1     2     0     0 -2.229206798E+02 -3.450450115E+02  3.491193400E+01  4.308056785E+02  1.250000000E+02  0.00000E+00  9.000E+00
      25     1     1     2     0     0  2.138425015E+02  3.582556895E+02 -2.682546312E+02  5.115283977E+02  1.250000000E+02  0.00000E+00  9.000E+00
      21     1     1     2   502   512  9.078178347E+00 -1.321067801E+01 -8.379800982E+00  1.808746528E+01  1.685873940E-07  0.00000E+00  9.000E+00
#rwgt            1           1  0.11323757363210665                2       83617           0
</event>
<event>
      5   9999  3.79277E-02  6.08657E+01 -1.00000E+00  1.34372E-01
       1    -1     0     0   502     0  0.000000000E+00  0.000000000E+00  2.113008463E+03  2.113008463E+03  0.000000000E+00  0.00000E+00  9.000E+00
      21    -1     0     0   501   502  0.000000000E+00  0.000000000E+00 -6.023081958E+01  6.023081958E+01  0.000000000E+00  0.00000E+00  9.000E+00
      25     1     1     2     0     0 -4.208710605E+01  2.098789322E+02  3.339573162E+02  4.159002040E+02  1.250000000E+02  0.00000E+00  9.000E+00
      25     1     1     2     0     0  4.314840748E+01 -1.490225107E+02  5.182592299E+02  5.552360968E+02  1.250000000E+02  0.00000E+00  9.000E+00
       1     1     1     2   501     0 -1.061301429E+00 -6.085642144E+01  1.200561098E+03  1.202102982E+03  1.525878906E-05  0.00000E+00  9.000E+00
#rwgt            1           1   3.7458821804351637E-002           2       83799           0
</event>
<event>
      5   9999  3.79277E-02  1.82479E+01 -1.00000E+00  1.69723E-01
      21    -1     0     0   511   501  0.000000000E+00  0.000000000E+00  8.507154524E+01  8.507154524E+01  0.000000000E+00  0.00000E+00  9.000E+00
      21    -1     0     0   501   502  0.000000000E+00  0.000000000E+00 -1.261093595E+03  1.261093595E+03  0.000000000E+00  0.00000E+00  9.000E+00
      25     1     1     2     0     0  1.405166920E+02  6.067024837E+01 -9.440115529E+02  9.644732406E+02  1.250000000E+02  0.00000E+00  9.000E+00
      25     1     1     2     0     0 -1.536224725E+02 -7.336768028E+01 -2.680713495E+02  3.412769096E+02  1.250000000E+02  0.00000E+00  9.000E+00
      21     1     1     2   511   502  1.310578047E+01  1.269743191E+01  3.606085313E+01  4.041498964E+01  1.784161275E-06  0.00000E+00  9.000E+00
#rwgt            1           1   5.0439776952824582E-002           2       83844           0
</event>
<event>
      5   9999  3.79277E-02  5.46837E+00 -1.00000E+00  2.31917E-01
      21    -1     0     0   512   501  0.000000000E+00  0.000000000E+00  6.853057700E+02  6.853057700E+02  0.000000000E+00  0.00000E+00  9.000E+00
      21    -1     0     0   501   502  0.000000000E+00  0.000000000E+00 -7.576786258E+01  7.576786258E+01  0.000000000E+00  0.00000E+00  9.000E+00
      25     1     1     2     0     0 -1.349891051E+01 -1.319301925E+02  8.202268983E+01  1.998512395E+02  1.250000000E+02  0.00000E+00  9.000E+00
      25     1     1     2     0     0  1.230959778E+01  1.372676639E+02  5.104935564E+02  5.433439140E+02  1.250000000E+02  0.00000E+00  9.000E+00
      21     1     1     2   512   502  1.189312725E+00 -5.337471439E+00  1.702166120E+01  1.787847913E+01  3.371747881E-07  0.00000E+00  9.000E+00
#rwgt            1           1   4.4624823364283590E-002           2       84196           0
</event>
<event>
      5   9999  3.79277E-02  1.17265E+02 -1.00000E+00  1.20795E-01
      21    -1     0     0   502   511  0.000000000E+00  0.000000000E+00  4.766780819E+02  4.766780819E+02  0.000000000E+00  0.00000E+00  9.000E+00
      21    -1     0     0   501   502  0.000000000E+00  0.000000000E+00 -2.047258218E+02  2.047258218E+02  0.000000000E+00  0.00000E+00  9.000E+00
      25     1     1     2     0     0 -1.848955581E+02  6.203597393E+01  3.117058120E+00  2.316668848E+02  1.250000000E+02  0.00000E+00  9.000E+00
      25     1     1     2     0     0  1.997272730E+02  5.428776789E+01  1.615142496E+02  2.907748238E+02  1.250000000E+02  0.00000E+00  9.000E+00
      21     1     1     2   501   511 -1.483171495E+01 -1.163237418E+02  1.073209524E+02  1.589621952E+02  1.907348633E-06  0.00000E+00  9.000E+00
#rwgt            2          11   2.6759159008555239E-003           2       84863           0
</event>
<event>
      5   9999  3.79277E-02  3.13437E+01 -1.00000E+00  1.51730E-01
      21    -1     0     0   512   501  0.000000000E+00  0.000000000E+00  6.068436126E+02  6.068436126E+02  0.000000000E+00  0.00000E+00  9.000E+00
      21    -1     0     0   501   502  0.000000000E+00  0.000000000E+00 -2.403161321E+02  2.403161321E+02  0.000000000E+00  0.00000E+00  9.000E+00
      25     1     1     2     0     0  1.431530064E+02  1.388729746E+01 -1.809327513E+02  2.627685308E+02  1.250000000E+02  0.00000E+00  9.000E+00
      25     1     1     2     0     0 -1.155675106E+02  9.944496190E-01  4.213016203E+02  4.543972862E+02  1.250000000E+02  0.00000E+00  9.000E+00
      21     1     1     2   512   502 -2.758549577E+01 -1.488174708E+01  1.261586116E+02  1.299939277E+02  0.000000000E+00  0.00000E+00  9.000E+00
#rwgt            1           1   3.4649990289242275E-002           2       85048           0
</event>
<event>
      5   9999 -3.79277E-02  2.22899E+02 -1.00000E+00  1.09961E-01
      21    -1     0     0   502   501  0.000000000E+00  0.000000000E+00  1.230564217E+03  1.230564217E+03  0.000000000E+00  0.00000E+00  9.000E+00
      21    -1     0     0   501   511  0.000000000E+00  0.000000000E+00 -4.171950734E+02  4.171950734E+02  0.000000000E+00  0.00000E+00  9.000E+00
      25     1     1     2     0     0  2.832782518E+02 -1.062998961E+02  4.611834375E+02  5.655629044E+02  1.250000000E+02  0.00000E+00  9.000E+00
      25     1     1     2     0     0 -6.688036330E+01  5.285761539E+01  6.739739811E+02  6.907480276E+02  1.250000000E+02  0.00000E+00  9.000E+00
      21     1     1     2   502   511 -2.163978885E+02  5.344228067E+01 -3.217882749E+02  3.914483585E+02  3.814697266E-06  0.00000E+00  9.000E+00
#rwgt            1           1 -0.25943346116312743                2       85253           0
</event>
<event>
      5   9999  3.79277E-02  6.31765E+01 -1.00000E+00  1.33517E-01
      21    -1     0     0   512   501  0.000000000E+00  0.000000000E+00  3.406066787E+01  3.406066787E+01  0.000000000E+00  0.00000E+00  9.000E+00
      21    -1     0     0   501   502  0.000000000E+00  0.000000000E+00 -1.501000739E+03  1.501000739E+03  0.000000000E+00  0.00000E+00  9.000E+00
      25     1     1     2     0     0 -1.533043063E+02 -5.546781882E+01 -9.505712966E+02  9.725171871E+02  1.250000000E+02  0.00000E+00  9.000E+00
      25     1     1     2     0     0  9.387632858E+01  3.402993078E+01 -3.654112546E+02  3.988999702E+02  1.250000000E+02  0.00000E+00  9.000E+00
      21     1     1     2   512   502  5.942797775E+01  2.143788804E+01 -1.509575196E+02  1.636442493E+02  3.814697266E-06  0.00000E+00  9.000E+00
#rwgt            1           1   1.9777012956800694E-002           2       85461           0
</event>
<event>
      5   9999  3.79277E-02  2.38310E+01 -1.00000E+00  1.60325E-01
      21    -1     0     0   502   501  0.000000000E+00  0.000000000E+00  1.657592526E+02  1.657592526E+02  0.000000000E+00  0.00000E+00  9.000E+00
       2    -1     0     0   501     0  0.000000000E+00  0.000000000E+00 -4.253072671E+02  4.253072671E+02  0.000000000E+00  0.00000E+00  9.000E+00
      25     1     1     2     0     0 -2.743408738E+01 -1.202003357E+02 -3.447597959E+02  3.868915439E+02  1.250000000E+02  0.00000E+00  9.000E+00
      25     1     1     2     0     0  1.222001249E+01  1.018577936E+02  7.476046186E+01  1.781529272E+02  1.250000000E+02  0.00000E+00  9.000E+00
       2     1     1     2   502     0  1.521407489E+01  1.834254210E+01  1.045131957E+01  2.602204846E+01  3.153981341E-07  0.00000E+00  9.000E+00
#rwgt            1           1   4.1267013177040283E-002           2       85598           0
</event>
<event>
      5   9999  3.79277E-02  3.34266E+01 -1.00000E+00  1.49847E-01
      21    -1     0     0   511   501  0.000000000E+00  0.000000000E+00  3.091939387E+02  3.091939387E+02  0.000000000E+00  0.00000E+00  9.000E+00
      21    -1     0     0   501   502  0.000000000E+00  0.000000000E+00 -2.599888176E+02  2.599888176E+02  0.000000000E+00  0.00000E+00  9.000E+00
      25     1     1     2     0     0 -1.621072887E+02 -1.501513672E+01 -1.530302930E+01  2.058237355E+02  1.250000000E+02  0.00000E+00  9.000E+00
      25     1     1     2     0     0  1.954940681E+02  1.664629817E+01 -5.517920767E+01  2.390915617E+02  1.250000000E+02  0.00000E+00  9.000E+00
      21     1     1     2   511   502 -3.338677945E+01 -1.631161452E+00  1.196873580E+02  1.242674591E+02  0.000000000E+00  0.00000E+00  9.000E+00
#rwgt            1           1   1.7586617667383734E-002           2       85821           0
</event>
<event>
      5   9999  3.79277E-02  2.55991E+01 -1.00000E+00  1.57984E-01
      21    -1     0     0   502   501  0.000000000E+00  0.000000000E+00  4.117170024E+02  4.117170024E+02  0.000000000E+00  0.00000E+00  9.000E+00
      21    -1     0     0   512   502  0.000000000E+00  0.000000000E+00 -1.145908734E+02  1.145908734E+02  0.000000000E+00  0.00000E+00  9.000E+00
      25     1     1     2     0     0  1.285893951E+02 -7.052258218E+00  2.481786479E+02  3.062721146E+02  1.250000000E+02  0.00000E+00  9.000E+00
      25     1     1     2     0     0 -1.169896331E+02 -1.576793131E+01  7.122548017E+01  1.861001637E+02  1.250000000E+02  0.00000E+00  9.000E+00
      21     1     1     2   512   501 -1.159976206E+01  2.282018953E+01 -2.227799911E+01  3.393559745E+01  5.331201500E-07  0.00000E+00  9.000E+00
#rwgt            1           1   4.8903004801427265E-002           2       85992           0
</event>
<event>
      5   9999  3.79277E-02  1.40146E+01 -1.00000E+00  1.80210E-01
      21    -1     0     0   502   501  0.000000000E+00  0.000000000E+00  2.595099963E+02  2.595099963E+02  0.000000000E+00  0.00000E+00  9.000E+00
      21    -1     0     0   511   502  0.000000000E+00  0.000000000E+00 -1.398760258E+02  1.398760258E+02  0.000000000E+00  0.00000E+00  9.000E+00
      25     1     1     2     0     0 -1.022638552E+02  4.385496629E+01  1.431069278E+02  2.201947932E+02  1.250000000E+02  0.00000E+00  9.000E+00
      25     1     1     2     0     0  8.834226964E+01 -4.224294178E+01 -8.997867841E+00  1.590433411E+02  1.250000000E+02  0.00000E+00  9.000E+00
      21     1     1     2   511   501  1.392158558E+01 -1.612024511E+00 -1.447508949E+01  2.014788782E+01  2.384185791E-07  0.00000E+00  9.000E+00
#rwgt            1           1   5.1600031352431595E-002           2       86191           0
</event>
<event>
      5   9999  3.79277E-02  7.66940E+01 -1.00000E+00  1.29243E-01
      21    -1     0     0   502   501  0.000000000E+00  0.000000000E+00  1.266942858E+02  1.266942858E+02  0.000000000E+00  0.00000E+00  9.000E+00
       2    -1     0     0   501     0  0.000000000E+00  0.000000000E+00 -2.420102443E+03  2.420102443E+03  0.000000000E+00  0.00000E+00  9.000E+00
      25     1     1     2     0     0  5.197454327E+01  2.400711830E+02 -5.597076767E+02  6.238855740E+02  1.250000000E+02  0.00000E+00  9.000E+00
      25     1     1     2     0     0 -1.177867757E+02 -2.006920735E+02 -9.243922109E+01  2.798589689E+02  1.250000000E+02  0.00000E+00  9.000E+00
       2     1     1     2   502     0  6.581223239E+01 -3.937910949E+01 -1.641261259E+03  1.643052186E+03  0.000000000E+00  0.00000E+00  9.000E+00
#rwgt            1           1   5.2643410899327468E-002           2       86437           0
</event>
<event>
      5   9999 -3.79277E-02  1.47904E+02 -1.00000E+00  1.16636E-01
       1    -1     0     0   502     0  0.000000000E+00  0.000000000E+00  8.426748770E+02  8.426748770E+02  0.000000000E+00  0.00000E+00  9.000E+00
      21    -1     0     0   501   502  0.000000000E+00  0.000000000E+00 -1.932811254E+02  1.932811254E+02  0.000000000E+00  0.00000E+00  9.000E+00
      25     1     1     2     0     0  2.209971587E+02 -1.345502709E+02  8.787042203E+01  3.004824963E+02  1.250000000E+02  0.00000E+00  9.000E+00
      25     1     1     2     0     0 -8.984212199E+01  2.029174624E+02  1.441364664E+02  2.926558122E+02  1.250000000E+02  0.00000E+00  9.000E+00
       1     1     1     2   501     0 -1.311550367E+02 -6.836719152E+01  4.173868631E+02  4.428176939E+02  0.000000000E+00  0.00000E+00  9.000E+00
#rwgt            1           1  -5.0795247572764289E-002           2       86518           0
</event>
<event>
      5   9999  3.79277E-02  1.07849E+02 -1.00000E+00  1.22370E-01
      21    -1     0     0   502   511  0.000000000E+00  0.000000000E+00  2.313617707E+02  2.313617707E+02  0.000000000E+00  0.00000E+00  9.000E+00
      21    -1     0     0   501   502  0.000000000E+00  0.000000000E+00 -4.035245588E+02  4.035245588E+02  0.000000000E+00  0.00000E+00  9.000E+00
      25     1     1     2     0     0 -1.170440483E+02  1.415205738E+02 -1.129320263E+02  2.492108036E+02  1.250000000E+02  0.00000E+00  9.000E+00
      25     1     1     2     0     0  2.167339977E+02 -1.003702263E+02 -6.624343824E+01  2.775986333E+02  1.250000000E+02  0.00000E+00  9.000E+00
      21     1     1     2   501   511 -9.968994939E+01 -4.115034748E+01  7.012676421E+00  1.080768927E+02  1.940586638E-06  0.00000E+00  9.000E+00
#rwgt            1           1   4.3653836187711563E-002           2       86577           0
</event>
<event>
      5   9999  3.79277E-02  6.54175E+01 -1.00000E+00  1.32727E-01
      21    -1     0     0   502   501  0.000000000E+00  0.000000000E+00  6.015560372E+02  6.015560372E+02  0.000000000E+00  0.00000E+00  9.000E+00
      -3    -1     0     0     0   502  0.000000000E+00  0.000000000E+00 -1.701790361E+02  1.701790361E+02  0.000000000E+00  0.00000E+00  9.000E+00
      25     1     1     2     0     0 -5.936365518E+01  7.034635126E+01  4.478788420E+02  4.740180480E+02  1.250000000E+02  0.00000E+00  9.000E+00
      25     1     1     2     0     0  7.748056996E+01 -7.487556564E+00  9.010725647E+01  1.726372494E+02  1.250000000E+02  0.00000E+00  9.000E+00
      -3     1     1     2     0   501 -1.811691478E+01 -6.285879469E+01 -1.066090975E+02  1.250797759E+02  0.000000000E+00  0.00000E+00  9.000E+00
#rwgt            1           1   1.5430554786527403E-002           2       86767           0
</event>
<event>
      5   9999 -3.79277E-02  2.33348E+01 -1.00000E+00  1.61026E-01
      21    -1     0     0   502   501  0.000000000E+00  0.000000000E+00  8.338614416E+01  8.338614416E+01  0.000000000E+00  0.00000E+00  9.000E+00
      21    -1     0     0   511   502  0.000000000E+00  0.000000000E+00 -6.907842465E+02  6.907842465E+02  0.000000000E+00  0.00000E+00  9.000E+00
      25     1     1     2     0     0  1.688335102E+02  3.449676572E+01 -2.526292897E+02  3.303654628E+02  1.250000000E+02  0.00000E+00  9.000E+00
      25     1     1     2     0     0 -1.881030791E+02 -2.133639829E+01 -2.548227870E+02  3.411710173E+02  1.250000000E+02  0.00000E+00  9.000E+00
      21     1     1     2   511   501  1.926956893E+01 -1.316036743E+01 -9.994602572E+01  1.026339107E+02  1.348699152E-06  0.00000E+00  9.000E+00
#rwgt            1           1 -0.15812322465787079                2       86849           0
</event>
<event>
      5   9999  3.79277E-02  1.30643E+01 -1.00000E+00  1.83230E-01
      21    -1     0     0   502   501  0.000000000E+00  0.000000000E+00  9.696098272E+02  9.696098272E+02  0.000000000E+00  0.00000E+00  9.000E+00
      21    -1     0     0   501   512  0.000000000E+00  0.000000000E+00 -8.826317027E+01  8.826317027E+01  0.000000000E+00  0.00000E+00  9.000E+00
      25     1     1     2     0     0  1.104094902E+02 -2.010461663E+02  6.190759981E+02  6.719299874E+02  1.250000000E+02  0.00000E+00  9.000E+00
      25     1     1     2     0     0 -1.233953718E+02  1.996172134E+02  2.613757404E+02  3.728481291E+02  1.250000000E+02  0.00000E+00  9.000E+00
      21     1     1     2   502   512  1.298588163E+01  1.428952863E+00  8.949183646E-01  1.309488094E+01  2.661432490E-07  0.00000E+00  9.000E+00
#rwgt            1           1   2.0480570717618819E-002           2       87082           0
</event>
<event>
      5   9999 -3.79277E-02  1.43327E+01 -1.00000E+00  1.79266E-01
      21    -1     0     0   502   501  0.000000000E+00  0.000000000E+00  3.698215175E+02  3.698215175E+02  0.000000000E+00  0.00000E+00  9.000E+00
      21    -1     0     0   501   511  0.000000000E+00  0.000000000E+00 -2.035913358E+02  2.035913358E+02  0.000000000E+00  0.00000E+00  9.000E+00
      25     1     1     2     0     0 -5.504901594E+00 -1.426551184E+02  1.500309279E+02  2.418988757E+02  1.250000000E+02  0.00000E+00  9.000E+00
      25     1     1     2     0     0  7.887983176E+00  1.567882885E+02  1.152619812E+02  2.314197744E+02  1.250000000E+02  0.00000E+00  9.000E+00
      21     1     1     2   502   511 -2.383081582E+00 -1.413317009E+01 -9.906272732E+01  1.000942032E+02  0.000000000E+00  0.00000E+00  9.000E+00
#rwgt            1           1 -0.20984063565311675                2       87419           0
</event>
<event>
      5   9999  3.79277E-02  2.78121E+01 -1.00000E+00  1.55360E-01
      21    -1     0     0   512   501  0.000000000E+00  0.000000000E+00  7.569379765E+01  7.569379765E+01  0.000000000E+00  0.00000E+00  9.000E+00
      21    -1     0     0   501   502  0.000000000E+00  0.000000000E+00 -7.630391135E+02  7.630391135E+02  0.000000000E+00  0.00000E+00  9.000E+00
      25     1     1     2     0     0 -1.384646068E+02 -7.854195259E+01 -2.837537264E+02  3.485433444E+02  1.250000000E+02  0.00000E+00  9.000E+00
      25     1     1     2     0     0  1.452625831E+02  1.055104858E+02 -4.071000303E+02  4.621570246E+02  1.250000000E+02  0.00000E+00  9.000E+00
      21     1     1     2   512   502 -6.797976264E+00 -2.696853317E+01  3.508440913E+00  2.803254217E+01  3.237360862E-07  0.00000E+00  9.000E+00
#rwgt            1           1   4.1855994445008829E-002           2       87621           0
</event>
<event>
      5   9999  3.79277E-02  5.83722E+01 -1.00000E+00  1.35345E-01
      21    -1     0     0   502   501  0.000000000E+00  0.000000000E+00  8.917995581E+02  8.917995581E+02  0.000000000E+00  0.00000E+00  9.000E+00
      21    -1     0     0   511   502  0.000000000E+00  0.000000000E+00 -9.844512410E+01  9.844512410E+01  0.000000000E+00  0.00000E+00  9.000E+00
      25     1     1     2     0     0  4.312919650E+01  1.298505715E+02  6.452666416E+02  6.713533624E+02  1.250000000E+02  0.00000E+00  9.000E+00
      25     1     1     2     0     0  1.510685280E+01 -1.338349255E+02  1.757738259E+02  2.542861423E+02  1.250000000E+02  0.00000E+00  9.000E+00
      21     1     1     2   511   501 -5.823604930E+01  3.984353977E+00 -2.768603345E+01  6.460517752E+01  1.581489940E-06  0.00000E+00  9.000E+00
#rwgt            1           1   3.6597199678760670E-002           2       87810           0
</event>
<event>
      5   9999  3.79277E-02  2.83554E+01 -1.00000E+00  1.54760E-01
      21    -1     0     0   502   501  0.000000000E+00  0.000000000E+00  3.683140726E+02  3.683140726E+02  0.000000000E+00  0.00000E+00  9.000E+00
      21    -1     0     0   512   502  0.000000000E+00  0.000000000E+00 -6.983158714E+02  6.983158714E+02  0.000000000E+00  0.00000E+00  9.000E+00
      25     1     1     2     0     0  1.549156435E+02  3.011005378E+02 -1.619096909E+02  3.956009839E+02  1.250000000E+02  0.00000E+00  9.000E+00
      25     1     1     2     0     0 -1.670604756E+02 -2.754776699E+02  1.317581337E+02  3.698409860E+02  1.250000000E+02  0.00000E+00  9.000E+00
      21     1     1     2   512   501  1.214483210E+01 -2.562286793E+01 -2.998502417E+02  3.011879741E+02  3.814697266E-06  0.00000E+00  9.000E+00
#rwgt            1           1   3.5829985289875833E-002           2       87889           0
</event>
<event>
      5   9999  3.79277E-02  2.99615E+01 -1.00000E+00  1.53079E-01
      21    -1     0     0   502   501  0.000000000E+00  0.000000000E+00  5.731304973E+02  5.731304973E+02  0.000000000E+00  0.00000E+00  9.000E+00
      21    -1     0     0   511   502  0.000000000E+00  0.000000000E+00 -1.051104539E+02  1.051104539E+02  0.000000000E+00  0.00000E+00  9.000E+00
      25     1     1     2     0     0  1.505181322E+02  1.118256520E+01  3.843260262E+02  4.314072928E+02  1.250000000E+02  0.00000E+00  9.000E+00
      25     1     1     2     0     0 -1.537237678E+02  1.860696233E+01  5.778350213E+01  2.072224625E+02  1.250000000E+02  0.00000E+00  9.000E+00
      21     1     1     2   511   501  3.205635595E+00 -2.978952753E+01  2.591051508E+01  3.961119591E+01  6.743495762E-07  0.00000E+00  9.000E+00
#rwgt            1           1   3.9545216534601614E-002           2       88234           0
</event>
<event>
      5   9999  3.79277E-02  6.83287E+01 -1.00000E+00  1.31754E-01
      21    -1     0     0   502   501  0.000000000E+00  0.000000000E+00  5.004434286E+02  5.004434286E+02  0.000000000E+00  0.00000E+00  9.000E+00
      21    -1     0     0   512   502  0.000000000E+00  0.000000000E+00 -1.444645702E+03  1.444645702E+03  0.000000000E+00  0.00000E+00  9.000E+00
      25     1     1     2     0     0  1.240425208E+02 -3.381023880E+01  3.537244401E+01  1.827727798E+02  1.250000000E+02  0.00000E+00  9.000E+00
      25     1     1     2     0     0 -1.299932341E+02  1.018792795E+02  3.630356977E+02  4.179683556E+02  1.250000000E+02  0.00000E+00  9.000E+00
      21     1     1     2   512   501  5.950713295E+00 -6.806904070E+01 -1.342610415E+03  1.344347995E+03  2.642899792E-05  0.00000E+00  9.000E+00
#rwgt            1           1   4.0905670391585304E-002           2       88368           0
</event>
<event>
      5   9999  3.79277E-02  3.23210E+01 -1.00000E+00  1.50826E-01
      21    -1     0     0   502   501  0.000000000E+00  0.000000000E+00  2.074309514E+02  2.074309514E+02  0.000000000E+00  0.00000E+00  9.000E+00
      21    -1     0     0   511   502  0.000000000E+00  0.000000000E+00 -2.720120434E+02  2.720120434E+02  0.000000000E+00  0.00000E+00  9.000E+00
      25     1     1     2     0     0 -5.693295201E+01  2.138902752E+01  1.530274742E+02  2.067395932E+02  1.250000000E+02  0.00000E+00  9.000E+00
      25     1     1     2     0     0  2.671190888E+01 -3.284907610E+01 -1.717807624E+02  2.166246020E+02  1.250000000E+02  0.00000E+00  9.000E+00
      21     1     1     2   511   501  3.022104313E+01  1.146004858E+01 -4.582780385E+01  5.607879963E+01  0.000000000E+00  0.00000E+00  9.000E+00
#rwgt            1           1   1.7481762103604300E-002           2       88468           0
</event>
<event>
      5   9999  3.79277E-02  6.99805E+01 -1.00000E+00  1.31227E-01
      21    -1     0     0   502   501  0.000000000E+00  0.000000000E+00  1.400261528E+03  1.400261528E+03  0.000000000E+00  0.00000E+00  9.000E+00
      21    -1     0     0   501   512  0.000000000E+00  0.000000000E+00 -2.823418736E+02  2.823418736E+02  0.000000000E+00  0.00000E+00  9.000E+00
      25     1     1     2     0     0  1.490828429E+02 -4.921336486E+02  6.195123591E+02  8.147648650E+02  1.250000000E+02  0.00000E+00  9.000E+00
      25     1     1     2     0     0 -8.220640545E+01  5.127446502E+02  5.605292300E+02  7.742628669E+02  1.250000000E+02  0.00000E+00  9.000E+00
      21     1     1     2   502   512 -6.687643743E+01 -2.061100163E+01 -6.212193442E+01  9.357566996E+01  1.348699152E-06  0.00000E+00  9.000E+00
#rwgt            1           1  0.38320081726220401                2       88870           0
</event>
<event>
      5   9999  3.79277E-02  3.96293E+01 -1.00000E+00  1.45091E-01
      21    -1     0     0   502   501  0.000000000E+00  0.000000000E+00  2.920052463E+02  2.920052463E+02  0.000000000E+00  0.00000E+00  9.000E+00
      21    -1     0     0   501   511  0.000000000E+00  0.000000000E+00 -1.798675477E+02  1.798675477E+02  0.000000000E+00  0.00000E+00  9.000E+00
      25     1     1     2     0     0  1.569550233E+01  1.569412110E+01 -6.579211248E+01  1.429904063E+02  1.250000000E+02  0.00000E+00  9.000E+00
      25     1     1     2     0     0 -5.490121627E+01 -9.915578147E+00  2.274461677E+02  2.654603952E+02  1.250000000E+02  0.00000E+00  9.000E+00
      21     1     1     2   502   511  3.920571394E+01 -5.778542951E+00 -4.951635662E+01  6.342199253E+01  0.000000000E+00  0.00000E+00  9.000E+00
#rwgt            1           1   4.1563476621048132E-002           2       89014           0
</event>
<event>
      5   9999  3.79277E-02  6.80585E+01 -1.00000E+00  1.31842E-01
      21    -1     0     0   502   501  0.000000000E+00  0.000000000E+00  1.233955699E+02  1.233955699E+02  0.000000000E+00  0.00000E+00  9.000E+00
      21    -1     0     0   501   512  0.000000000E+00  0.000000000E+00 -5.295227090E+02  5.295227090E+02  0.000000000E+00  0.00000E+00  9.000E+00
      25     1     1     2     0     0 -1.417412592E+02  9.823325880E+01 -8.217021367E+01  2.282921411E+02  1.250000000E+02  0.00000E+00  9.000E+00
      25     1     1     2     0     0  1.422308728E+02 -3.017654160E+01 -1.698222017E+02  2.561343887E+02  1.250000000E+02  0.00000E+00  9.000E+00
      21     1     1     2   502   512 -4.896136436E-01 -6.805671720E+01 -1.541347236E+02  1.684917491E+02  1.907348633E-06  0.00000E+00  9.000E+00
#rwgt            1           1  0.11141077129404608                2       89144           0
</event>
<event>
      5   9999  3.79277E-02  1.10869E+01 -1.00000E+00  1.90716E-01
      21    -1     0     0   502   501  0.000000000E+00  0.000000000E+00  3.411231019E+02  3.411231019E+02  0.000000000E+00  0.00000E+00  9.000E+00
      21    -1     0     0   501   511  0.000000000E+00  0.000000000E+00 -5.446533439E+02  5.446533439E+02  0.000000000E+00  0.00000E+00  9.000E+00
      25     1     1     2     0     0 -1.104808446E+02 -3.655608392E+02 -1.384591081E+01  4.020664789E+02  1.250000000E+02  0.00000E+00  9.000E+00
      25     1     1     2     0     0  1.085545904E+02  3.546425284E+02 -1.146058158E+02  4.078172569E+02  1.250000000E+02  0.00000E+00  9.000E+00
      21     1     1     2   502   511  1.926254184E+00  1.091831080E+01 -7.507851534E+01  7.589271000E+01  9.536743164E-07  0.00000E+00  9.000E+00
#rwgt            1           1   5.4541303573809020E-002           2       89234           0
</event>
<event>
      5   9999  3.79277E-02  2.46334E+01 -1.00000E+00  1.59233E-01
      21    -1     0     0   502   501  0.000000000E+00  0.000000000E+00  1.607338725E+02  1.607338725E+02  0.000000000E+00  0.00000E+00  9.000E+00
      21    -1     0     0   501   512  0.000000000E+00  0.000000000E+00 -6.008250649E+02  6.008250649E+02  0.000000000E+00  0.00000E+00  9.000E+00
      25     1     1     2     0     0  2.670950874E+01  7.646741585E+01  4.758302700E+01  1.563643438E+02  1.250000000E+02  0.00000E+00  9.000E+00
      25     1     1     2     0     0 -3.892578170E+01 -9.785820111E+01 -5.594143217E+01  1.727596244E+02  1.250000000E+02  0.00000E+00  9.000E+00
      21     1     1     2   502   512  1.221627296E+01  2.139078526E+01 -4.317327873E+02  4.324349692E+02  0.000000000E+00  0.00000E+00  9.000E+00
#rwgt            1           1   5.0779662229225114E-002           2       89686           0
</event>
<event>
      5   9999  3.79277E-02  9.38058E+01 -1.00000E+00  1.25090E-01
      21    -1     0     0   502   501  0.000000000E+00  0.000000000E+00  4.075693145E+02  4.075693145E+02  0.000000000E+00  0.00000E+00  9.000E+00
      21    -1     0     0   501   511  0.000000000E+00  0.000000000E+00 -3.536306685E+02  3.536306685E+02  0.000000000E+00  0.00000E+00  9.000E+00
      25     1     1     2     0     0 -1.927638431E+02 -5.445365229E+01 -9.085719895E+01  2.529883990E+02  1.250000000E+02  0.00000E+00  9.000E+00
      25     1     1     2     0     0  2.012808796E+02 -3.896468229E+01  2.637757914E+02  3.567000240E+02  1.250000000E+02  0.00000E+00  9.000E+00
      21     1     1     2   502   511 -8.517036539E+00  9.341833458E+01 -1.189799465E+02  1.515115600E+02  1.907348633E-06  0.00000E+00  9.000E+00
#rwgt            1           1   3.4851330542748825E-002           2       89846           0
</event>
<event>
      5   9999  3.79277E-02  1.64526E+01 -1.00000E+00  1.73684E-01
      21    -1     0     0   502   512  0.000000000E+00  0.000000000E+00  5.846549702E+02  5.846549702E+02  0.000000000E+00  0.00000E+00  9.000E+00
      21    -1     0     0   501   502  0.000000000E+00  0.000000000E+00 -8.851666279E+01  8.851666279E+01  0.000000000E+00  0.00000E+00  9.000E+00
      25     1     1     2     0     0 -8.356725923E+01  9.149352248E+01  1.929986253E+02  2.612049403E+02  1.250000000E+02  0.00000E+00  9.000E+00
      25     1     1     2     0     0  9.554243795E+01 -8.021158015E+01  9.003163376E+01  1.982244942E+02  1.250000000E+02  0.00000E+00  9.000E+00
      21     1     1     2   501   512 -1.197517872E+01 -1.128194233E+01  2.131080483E+02  2.137421984E+02  0.000000000E+00  0.00000E+00  9.000E+00
#rwgt            1           1   3.2948008355132230E-002           2       89982           0
</event>
<event>
      5   9999  3.79277E-02  2.15576E+01 -1.00000E+00  1.63726E-01
      21    -1     0     0   502   501  0.000000000E+00  0.000000000E+00  5.802929346E+02  5.802929346E+02  0.000000000E+00  0.00000E+00  9.000E+00
      21    -1     0     0   501   511  0.000000000E+00  0.000000000E+00 -8.812261916E+01  8.812261916E+01  0.000000000E+00  0.00000E+00  9.000E+00
      25     1     1     2     0     0 -9.839580938E+01  6.447226528E+01  1.029103917E+02  2.001348471E+02  1.250000000E+02  0.00000E+00  9.000E+00
      25     1     1     2     0     0  8.833092239E+01 -4.540852898E+01  4.089965635E+02  4.390529299E+02  1.250000000E+02  0.00000E+00  9.000E+00
      21     1     1     2   502   511  1.006488699E+01 -1.906373630E+01 -1.973663966E+01  2.922777680E+01  4.129530925E-07  0.00000E+00  9.000E+00
#rwgt            1           1   3.7267156590700366E-002           2       90140           0
</event>
<event>
      5   9999  3.79277E-02  4.67672E+01 -1.00000E+00  1.40752E-01
      21    -1     0     0   502   501  0.000000000E+00  0.000000000E+00  2.798372793E+02  2.798372793E+02  0.000000000E+00  0.00000E+00  9.000E+00
      21    -1     0     0   501   512  0.000000000E+00  0.000000000E+00 -1.713371720E+02  1.713371720E+02  0.000000000E+00  0.00000E+00  9.000E+00
      25     1     1     2     0     0  7.146960302E+01  3.243827730E+01  1.939786122E+02  2.437475086E+02  1.250000000E+02  0.00000E+00  9.000E+00
      25     1     1     2     0     0 -6.476652956E+01  1.384607002E+01 -5.598973983E+01  1.521389759E+02  1.250000000E+02  0.00000E+00  9.000E+00
      21     1     1     2   502   512 -6.703073455E+00 -4.628434732E+01 -2.948876504E+01  5.528796672E+01  0.000000000E+00  0.00000E+00  9.000E+00
#rwgt            1           1   2.8474517581852418E-002           2       90307           0
</event>
<event>
      5   9999  3.79277E-02  5.37399E+01 -1.00000E+00  1.37311E-01
      21    -1     0     0   511   501  0.000000000E+00  0.000000000E+00  1.759296253E+02  1.759296253E+02  0.000000000E+00  0.00000E+00  9.000E+00
      21    -1     0     0   501   502  0.000000000E+00  0.000000000E+00 -2.458560435E+02  2.458560435E+02  0.000000000E+00  0.00000E+00  9.000E+00
      25     1     1     2     0     0 -1.218258424E+02  1.647416878E+01 -1.160294442E+02  2.102397823E+02  1.250000000E+02  0.00000E+00  9.000E+00
      25     1     1     2     0     0  8.063825803E+01  1.804478522E+01  4.920701541E+01  1.577164332E+02  1.250000000E+02  0.00000E+00  9.000E+00
      21     1     1     2   511   502  4.118758436E+01 -3.451895400E+01 -3.103989369E+00  5.382945328E+01  8.248300852E-07  0.00000E+00  9.000E+00
#rwgt            1           1   4.3084451930131773E-002           2       90434           0
</event>
<event>
      5   9999  3.79277E-02  2.06458E+01 -1.00000E+00  1.65238E-01
      21    -1     0     0   502   501  0.000000000E+00  0.000000000E+00  1.125960292E+02  1.125960292E+02  0.000000000E+00  0.00000E+00  9.000E+00
      21    -1     0     0   512   502  0.000000000E+00  0.000000000E+00 -6.136331101E+02  6.136331101E+02  0.000000000E+00  0.00000E+00  9.000E+00
      25     1     1     2     0     0 -1.746561411E+02 -2.012836085E+01 -2.133913597E+02  3.034316907E+02  1.250000000E+02  0.00000E+00  9.000E+00
      25     1     1     2     0     0  1.747902247E+02 -5.170167487E-01 -1.053259574E+02  2.393124470E+02  1.250000000E+02  0.00000E+00  9.000E+00
      21     1     1     2   512   501 -1.340836703E-01  2.064537760E+01 -1.823197637E+02  1.834850016E+02  2.697398305E-06  0.00000E+00  9.000E+00
#rwgt            1           1   3.8459584045454048E-002           2       90486           0
</event>
<event>
      5   9999  3.79277E-02  1.28677E+02 -1.00000E+00  1.19095E-01
      21    -1     0     0   502   501  0.000000000E+00  0.000000000E+00  4.706590233E+02  4.706590233E+02  0.000000000E+00  0.00000E+00  9.000E+00
      21    -1     0     0   501   511  0.000000000E+00  0.000000000E+00 -4.444211368E+02  4.444211368E+02  0.000000000E+00  0.00000E+00  9.000E+00
      25     1     1     2     0     0  5.762467788E+01  4.397415265E+01  3.717602166E+02  3.988545954E+02  1.250000000E+02  0.00000E+00  9.000E+00
      25     1     1     2     0     0 -9.808789526E+01 -1.661240947E+02 -1.269853115E+02  2.626189623E+02  1.250000000E+02  0.00000E+00  9.000E+00
      21     1     1     2   502   511  4.046321738E+01  1.221499421E+02 -2.185370186E+02  2.536066024E+02  2.697398305E-06  0.00000E+00  9.000E+00
#rwgt            1           1   4.0157656063254596E-002           2       90793           0
</event>
<event>
      5   9999  3.79277E-02  1.01608E+02 -1.00000E+00  1.23517E-01
      21    -1     0     0   502   501  0.000000000E+00  0.000000000E+00  1.916891982E+03  1.916891982E+03  0.000000000E+00  0.00000E+00  9.000E+00
      21    -1     0     0   512   502  0.000000000E+00  0.000000000E+00 -6.133009488E+02  6.133009488E+02  0.000000000E+00  0.00000E+00  9.000E+00
      25     1     1     2     0     0 -7.490950763E+01 -2.215860678E+02  7.825459042E+02  8.262656425E+02  1.250000000E+02  0.00000E+00  9.000E+00
      25     1     1     2     0     0 -2.073455784E+01  1.872863709E+02  1.096498932E+03  1.119571800E+03  1.250000000E+02  0.00000E+00  9.000E+00
      21     1     1     2   512   501  9.564406546E+01  3.429969687E+01 -5.754538036E+02  5.843554882E+02  1.078959322E-05  0.00000E+00  9.000E+00
#rwgt            1           1   9.3317139170991797E-002           2       90930           0
</event>
<event>
      5   9999  3.79277E-02  6.61360E+01 -1.00000E+00  1.32482E-01
      21    -1     0     0   502   501  0.000000000E+00  0.000000000E+00  2.460333843E+02  2.460333843E+02  0.000000000E+00  0.00000E+00  9.000E+00
      21    -1     0     0   511   502  0.000000000E+00  0.000000000E+00 -5.849094811E+02  5.849094811E+02  0.000000000E+00  0.00000E+00  9.000E+00
      25     1     1     2     0     0  3.205178091E+02  2.373495107E+00 -1.953623560E+02  3.956371438E+02  1.250000000E+02  0.00000E+00  9.000E+00
      25     1     1     2     0     0 -3.131460972E+02 -6.809733638E+01 -1.098505537E+02  3.610953746E+02  1.250000000E+02  0.00000E+00  9.000E+00
      21     1     1     2   511   501 -7.371711906E+00  6.572384127E+01 -3.366318694E+01  7.421034701E+01  1.651812370E-06  0.00000E+00  9.000E+00
#rwgt            2          11   4.5258307773347163E-003           2       91099           0
</event>
<event>
      5   9999  3.79277E-02  3.05580E+01 -1.00000E+00  1.52486E-01
      21    -1     0     0   512   501  0.000000000E+00  0.000000000E+00  1.131793280E+03  1.131793280E+03  0.000000000E+00  0.00000E+00  9.000E+00
      21    -1     0     0   501   502  0.000000000E+00  0.000000000E+00 -4.495690086E+01  4.495690086E+01  0.000000000E+00  0.00000E+00  9.000E+00
      25     1     1     2     0     0  1.592432752E+02  4.216034065E+01  3.782080753E+02  4.310478665E+02  1.250000000E+02  0.00000E+00  9.000E+00
      25     1     1     2     0     0 -1.352973803E+02 -2.317650750E+01  4.734880315E+02  5.085847496E+02  1.250000000E+02  0.00000E+00  9.000E+00
      21     1     1     2   512   502 -2.394589485E+01 -1.898383316E+01  2.351402720E+02  2.371175644E+02  2.697398305E-06  0.00000E+00  9.000E+00
#rwgt            1           1   3.9173448601425409E-002           2       91194           0
</event>
<event>
      5   9999  3.79277E-02  1.07360E+02 -1.00000E+00  1.22456E-01
      21    -1     0     0   502   501  0.000000000E+00  0.000000000E+00  6.019867622E+02  6.019867622E+02  0.000000000E+00  0.00000E+00  9.000E+00
      21    -1     0     0   511   502  0.000000000E+00  0.000000000E+00 -2.585855220E+02  2.585855220E+02  0.000000000E+00  0.00000E+00  9.000E+00
      25     1     1     2     0     0 -9.263659896E+01  2.625726309E+02  2.761814392E+02  4.116152492E+02  1.250000000E+02  0.00000E+00  9.000E+00
      25     1     1     2     0     0  1.979274797E+02 -2.415941223E+02  4.627031263E+01  3.395717140E+02  1.250000000E+02  0.00000E+00  9.000E+00
      21     1     1     2   511   501 -1.052908807E+02 -2.097850866E+01  2.094948835E+01  1.093853210E+02  1.545128989E-06  0.00000E+00  9.000E+00
#rwgt            1           1   8.6799733681989705E-002           2       91311           0
</event>
<event>
      5   9999  3.79277E-02  5.22101E+01 -1.00000E+00  1.38012E-01
      21    -1     0     0   502   501  0.000000000E+00  0.000000000E+00  3.525947145E+02  3.525947145E+02  0.000000000E+00  0.00000E+00  9.000E+00
      21    -1     0     0   501   512  0.000000000E+00  0.000000000E+00 -3.516495575E+02  3.516495575E+02  0.000000000E+00  0.00000E+00  9.000E+00
      25     1     1     2     0     0 -7.158237730E+01  1.276176608E+02 -1.663849009E+02  2.543997629E+02  1.250000000E+02  0.00000E+00  9.000E+00
      25     1     1     2     0     0  9.495886217E+01 -1.743021111E+02  2.558302298E+02  3.470915123E+02  1.250000000E+02  0.00000E+00  9.000E+00
      21     1     1     2   502   512 -2.337648487E+01  4.668445029E+01 -8.850017182E+01  1.027529968E+02  1.907348633E-06  0.00000E+00  9.000E+00
#rwgt            1           1   5.1909901403221374E-002           2       91404           0
</event>
<event>
      5   9999  3.79277E-02  9.96285E+00 -1.00000E+00  1.95944E-01
      21    -1     0     0   502   501  0.000000000E+00  0.000000000E+00  2.359177683E+02  2.359177683E+02  0.000000000E+00  0.00000E+00  9.000E+00
      21    -1     0     0   501   511  0.000000000E+00  0.000000000E+00 -2.615667665E+02  2.615667665E+02  0.000000000E+00  0.00000E+00  9.000E+00
      25     1     1     2     0     0 -1.719733346E+01 -1.591702836E+02  6.429707109E+01  2.130493858E+02  1.250000000E+02  0.00000E+00  9.000E+00
      25     1     1     2     0     0  1.171093944E+01  1.674864028E+02 -1.611725800E+01  2.099371507E+02  1.250000000E+02  0.00000E+00  9.000E+00
      21     1     1     2   502   511  5.486394022E+00 -8.316119258E+00 -7.382881132E+01  7.449799823E+01  9.536743164E-07  0.00000E+00  9.000E+00
#rwgt            1           1   3.7336044773243281E-002           2       91466           0
</event>
<event>
      5   9999  3.79277E-02  2.55349E+01 -1.00000E+00  1.58065E-01
      21    -1     0     0   502   501  0.000000000E+00  0.000000000E+00  2.665152399E+02  2.665152399E+02  0.000000000E+00  0.00000E+00  9.000E+00
      21    -1     0     0   512   502  0.000000000E+00  0.000000000E+00 -1.928141056E+02  1.928141056E+02  0.000000000E+00  0.00000E+00  9.000E+00
      25     1     1     2     0     0  1.392991594E+01 -3.075583106E+01  2.053500790E+02  2.427624737E+02  1.250000000E+02  0.00000E+00  9.000E+00
      25     1     1     2     0     0 -3.289955575E+01  4.784928790E+01 -1.322627797E+02  1.910245482E+02  1.250000000E+02  0.00000E+00  9.000E+00
      21     1     1     2   512   501  1.896963981E+01 -1.709345684E+01  6.138349009E-01  2.554232359E+01  4.543021685E-07  0.00000E+00  9.000E+00
#rwgt            1           1   3.7108497025895609E-002           2       91720           0
</event>
<event>
      5   9999  3.79277E-02  8.46148E+01 -1.00000E+00  1.27182E-01
       1    -1     0     0   502     0  0.000000000E+00  0.000000000E+00  6.639656227E+02  6.639656227E+02  0.000000000E+00  0.00000E+00  9.000E+00
      21    -1     0     0   501   502  0.000000000E+00  0.000000000E+00 -2.396455027E+02  2.396455027E+02  0.000000000E+00  0.00000E+00  9.000E+00
      25     1     1     2     0     0 -1.981822954E+02  1.888408097E+02  1.571022101E+02  3.394748563E+02  1.250000000E+02  0.00000E+00  9.000E+00
      25     1     1     2     0     0  2.226351564E+02 -1.078363451E+02 -6.905856932E+00  2.772503941E+02  1.250000000E+02  0.00000E+00  9.000E+00
       1     1     1     2   501     0 -2.445286101E+01 -8.100446464E+01  2.741237669E+02  2.868858750E+02  5.394796609E-06  0.00000E+00  9.000E+00
#rwgt            1           1   3.8127583157028813E-002           2       91912           0
</event>
<event>
      5   9999  3.79277E-02  5.20485E+01 -1.00000E+00  1.38088E-01
      21    -1     0     0   511   501  0.000000000E+00  0.000000000E+00  4.684568753E+02  4.684568753E+02  0.000000000E+00  0.00000E+00  9.000E+00
      21    -1     0     0   501   502  0.000000000E+00  0.000000000E+00 -1.419540962E+02  1.419540962E+02  0.000000000E+00  0.00000E+00  9.000E+00
      25     1     1     2     0     0 -1.690327432E+02  1.812367133E+01  1.594653934E+02  2.644895980E+02  1.250000000E+02  0.00000E+00  9.000E+00
      25     1     1     2     0     0  2.066105709E+02 -5.413687194E+01  1.170628265E+02  2.737652905E+02  1.250000000E+02  0.00000E+00  9.000E+00
      21     1     1     2   511   502 -3.757782774E+01  3.601320061E+01  4.997455916E+01  7.215608303E+01  9.536743164E-07  0.00000E+00  9.000E+00
#rwgt            1           1   4.5994434600204255E-002           2       92077           0
</event>
<event>
      5   9999  3.79277E-02  9.77634E+00 -1.00000E+00  1.96900E-01
      21    -1     0     0   502   501  0.000000000E+00  0.000000000E+00  1.825982667E+02  1.825982667E+02  0.000000000E+00  0.00000E+00  9.000E+00
      21    -1     0     0   512   502  0.000000000E+00  0.000000000E+00 -3.593166402E+02  3.593166402E+02  0.000000000E+00  0.00000E+00  9.000E+00
      25     1     1     2     0     0 -1.579853215E+02  1.494539761E+02 -4.959907413E+01  2.556969318E+02  1.250000000E+02  0.00000E+00  9.000E+00
      25     1     1     2     0     0  1.517699928E+02 -1.419076803E+02 -1.094794022E+02  2.660501079E+02  1.250000000E+02  0.00000E+00  9.000E+00
      21     1     1     2   512   501  6.215328693E+00 -7.546295831E+00 -1.763989725E+01  2.016786717E+01  2.384185791E-07  0.00000E+00  9.000E+00
#rwgt            1           1   3.6405014451404497E-002           2       92213           0
</event>
<event>
      5   9999  3.79277E-02  5.39112E+01 -1.00000E+00  1.37235E-01
      21    -1     0     0   502   501  0.000000000E+00  0.000000000E+00  2.129703165E+02  2.129703165E+02  0.000000000E+00  0.00000E+00  9.000E+00
       2    -1     0     0   501     0  0.000000000E+00  0.000000000E+00 -1.621487481E+03  1.621487481E+03  0.000000000E+00  0.00000E+00  9.000E+00
      25     1     1     2     0     0  3.049267508E+01 -6.676303548E+00 -4.677268360E+01  1.370658973E+02  1.250000000E+02  0.00000E+00  9.000E+00
      25     1     1     2     0     0 -8.069439701E+01 -1.297591439E+01  1.340148940E+02  2.006612864E+02  1.250000000E+02  0.00000E+00  9.000E+00
       2     1     1     2   502     0  5.020172193E+01  1.965221794E+01 -1.495759375E+03  1.496730614E+03  0.000000000E+00  0.00000E+00  9.000E+00
#rwgt            1           1   3.5812461549001834E-002           2       92561           0
</event>
<event>
      5   9999 -3.79277E-02  6.48048E+01 -1.00000E+00  1.32940E-01
      21    -1     0     0   502   501  0.000000000E+00  0.000000000E+00  5.459944954E+01  5.459944954E+01  0.000000000E+00  0.00000E+00  9.000E+00
      21    -1     0     0   511   502  0.000000000E+00  0.000000000E+00 -1.396195263E+03  1.396195263E+03  0.000000000E+00  0.00000E+00  9.000E+00
      25     1     1     2     0     0  8.865377112E+01  1.944921215E+02 -6.181662914E+02  6.659138385E+02  1.250000000E+02  0.00000E+00  9.000E+00
      25     1     1     2     0     0 -7.208742276E+01 -1.318405693E+02 -3.105030218E+02  3.669000665E+02  1.250000000E+02  0.00000E+00  9.000E+00
      21     1     1     2   511   501 -1.656634836E+01 -6.265155219E+01 -4.129265006E+02  4.179808079E+02  0.000000000E+00  0.00000E+00  9.000E+00
#rwgt            1           1  -7.0688429934731387E-002           2       92729           0
</event>
<event>
      5   9999  3.79277E-02  2.03352E+02 -1.00000E+00  1.11386E-01
      21    -1     0     0   502   501  0.000000000E+00  0.000000000E+00  2.504419644E+02  2.504419644E+02  0.000000000E+00  0.00000E+00  9.000E+00
       2    -1     0     0   501     0  0.000000000E+00  0.000000000E+00 -1.096709199E+03  1.096709199E+03  0.000000000E+00  0.00000E+00  9.000E+00
      25     1     1     2     0     0 -2.908725224E+02 -1.406455262E+02 -5.638747092E+01  3.509879417E+02  1.250000000E+02  0.00000E+00  9.000E+00
      25     1     1     2     0     0  9.115223663E+01  1.023853358E+02 -5.229459977E+00  1.855905021E+02  1.250000000E+02  0.00000E+00  9.000E+00
       2     1     1     2   502     0  1.997202857E+02  3.826019037E+01 -7.846503041E+02  8.105727200E+02  1.078959322E-05  0.00000E+00  9.000E+00
#rwgt            1           1   4.0685479256516291E-002           2       92800           0
</event>
<event>
      5   9999  3.79277E-02  3.72472E+01 -1.00000E+00  1.46787E-01
      21    -1     0     0   502   501  0.000000000E+00  0.000000000E+00  6.556168278E+01  6.556168278E+01  0.000000000E+00  0.00000E+00  9.000E+00
      21    -1     0     0   501   511  0.000000000E+00  0.000000000E+00 -6.575950473E+02  6.575950473E+02  0.000000000E+00  0.00000E+00  9.000E+00
      25     1     1     2     0     0  9.461191263E+00  3.953400726E+01 -4.521036346E+02  4.708239037E+02  1.250000000E+02  0.00000E+00  9.000E+00
      25     1     1     2     0     0 -1.457618565E+01 -2.639737337E+00 -2.088298408E+01  1.275951897E+02  1.250000000E+02  0.00000E+00  9.000E+00
      21     1     1     2   502   511  5.114994391E+00 -3.689426993E+01 -1.190467458E+02  1.247376366E+02  1.348699152E-06  0.00000E+00  9.000E+00
#rwgt            1           1   5.2423921293159474E-002           2       92850           0
</event>
<event>
      5   9999  3.79277E-02  3.66549E+01 -1.00000E+00  1.47232E-01
      21    -1     0     0   502   501  0.000000000E+00  0.000000000E+00  1.719398451E+02  1.719398451E+02  0.000000000E+00  0.00000E+00  9.000E+00
       2    -1     0     0   501     0  0.000000000E+00  0.000000000E+00 -1.467759968E+03  1.467759968E+03  0.000000000E+00  0.00000E+00  9.000E+00
      25     1     1     2     0     0 -2.924263353E+01  1.728375652E+02 -1.611105447E+02  2.689043755E+02  1.250000000E+02  0.00000E+00  9.000E+00
      25     1     1     2     0     0  5.349319319E+01 -2.003238006E+02 -6.710233075E+00  2.422006896E+02  1.250000000E+02  0.00000E+00  9.000E+00
       2     1     1     2   502     0 -2.425055966E+01  2.748623534E+01 -1.127999345E+03  1.128594748E+03  0.000000000E+00  0.00000E+00  9.000E+00
#rwgt            1           1   3.4809654937443341E-002           2       93016           0
</event>
<event>
      5   9999  3.79277E-02  1.79135E+02 -1.00000E+00  1.13418E-01
      21    -1     0     0   511   501  0.000000000E+00  0.000000000E+00  3.245391709E+02  3.245391709E+02  0.000000000E+00  0.00000E+00  9.000E+00
      21    -1     0     0   501   502  0.000000000E+00  0.000000000E+00 -8.620645102E+02  8.620645102E+02  0.000000000E+00  0.00000E+00  9.000E+00
      25     1     1     2     0     0  1.859989351E+02 -8.173088888E+01 -3.562472777E+02  4.287337927E+02  1.250000000E+02  0.00000E+00  9.000E+00
      25     1     1     2     0     0 -2.965435797E+02 -5.922735610E+01 -3.725262621E+02  4.958293964E+02  1.250000000E+02  0.00000E+00  9.000E+00
      21     1     1     2   511   502  1.105446446E+02  1.409582450E+02  1.912482006E+02  2.620404921E+02  2.697398305E-06  0.00000E+00  9.000E+00
#rwgt            1           1   4.1509598605776570E-002           2       93205           0
</event>
<event>
      5   9999  3.79277E-02  1.64661E+01 -1.00000E+00  1.73651E-01
      21    -1     0     0   502   501  0.000000000E+00  0.000000000E+00  4.999604236E+01  4.999604236E+01  0.000000000E+00  0.00000E+00  9.000E+00
      21    -1     0     0   512   502  0.000000000E+00  0.000000000E+00 -9.377065393E+02  9.377065393E+02  0.000000000E+00  0.00000E+00  9.000E+00
      25     1     1     2     0     0  6.207146698E+01  8.990589836E+01 -1.380630132E+02  2.159220535E+02  1.250000000E+02  0.00000E+00  9.000E+00
      25     1     1     2     0     0 -7.207003379E+01 -7.682309203E+01 -6.238765321E+02  6.449362794E+02  1.250000000E+02  0.00000E+00  9.000E+00
      21     1     1     2   512   501  9.998566817E+00 -1.308280632E+01 -1.257709517E+02  1.268442488E+02  1.907348633E-06  0.00000E+00  9.000E+00
#rwgt            1           1   2.7088705224075277E-002           2       93251           0
</event>
<event>
      5   9999  3.79277E-02  5.97805E+01 -1.00000E+00  1.34789E-01
      21    -1     0     0   502   501  0.000000000E+00  0.000000000E+00  4.744348018E+02  4.744348018E+02  0.000000000E+00  0.00000E+00  9.000E+00
      21    -1     0     0   511   502  0.000000000E+00  0.000000000E+00 -4.067328551E+02  4.067328551E+02  0.000000000E+00  0.00000E+00  9.000E+00
      25     1     1     2     0     0  2.704854092E+02  5.274143581E+01 -1.876240856E+02  3.560502958E+02  1.250000000E+02  0.00000E+00  9.000E+00
      25     1     1     2     0     0 -2.668107095E+02 -1.124088997E+02  3.113729506E+02  4.431724605E+02  1.250000000E+02  0.00000E+00  9.000E+00
      21     1     1     2   511   501 -3.674699707E+00  5.966746391E+01 -5.604691837E+01  8.194490056E+01  6.743495762E-07  0.00000E+00  9.000E+00
#rwgt            1           1   4.3574652065582406E-002           2       93489           0
</event>
<event>
      5   9999  3.79277E-02  1.15472E+02 -1.00000E+00  1.21082E-01
      21    -1     0     0   502   501  0.000000000E+00  0.000000000E+00  1.061413681E+02  1.061413681E+02  0.000000000E+00  0.00000E+00  9.000E+00
      21    -1     0     0   501   512  0.000000000E+00  0.000000000E+00 -3.115949979E+03  3.115949979E+03  0.000000000E+00  0.00000E+00  9.000E+00
      25     1     1     2     0     0  1.552316252E+02 -3.547791115E+02 -5.503357622E+02  6.844410322E+02  1.250000000E+02  0.00000E+00  9.000E+00
      25     1     1     2     0     0 -1.597077107E+02  2.393942704E+02 -6.229525093E+02  6.975034039E+02  1.250000000E+02  0.00000E+00  9.000E+00
      21     1     1     2   502   512  4.476085522E+00  1.153848411E+02 -1.836520339E+03  1.840146911E+03  0.000000000E+00  0.00000E+00  9.000E+00
#rwgt            2          11   1.6692131094513834E-004           2       93688           0
</event>
<event>
      5   9999  3.79277E-02  8.89751E+01 -1.00000E+00  1.26153E-01
      21    -1     0     0   502   501  0.000000000E+00  0.000000000E+00  2.927938701E+01  2.927938701E+01  0.000000000E+00  0.00000E+00  9.000E+00
      21    -1     0     0   501   511  0.000000000E+00  0.000000000E+00 -1.972587935E+03  1.972587935E+03  0.000000000E+00  0.00000E+00  9.000E+00
      25     1     1     2     0     0  5.509771371E+01 -6.463856277E+01 -3.722426134E+02  4.017505010E+02  1.250000000E+02  0.00000E+00  9.000E+00
      25     1     1     2     0     0 -1.150166955E+02  1.304131067E+02 -1.071946100E+03  1.093128474E+03  1.250000000E+02  0.00000E+00  9.000E+00
      21     1     1     2   502   511  5.991898183E+01 -6.577454397E+01 -4.991198349E+02  5.069883476E+02  0.000000000E+00  0.00000E+00  9.000E+00
#rwgt            1           1   5.2712628394095150E-002           2       93708           0
</event>
<event>
      5   9999  3.79277E-02  3.10463E+01 -1.00000E+00  1.52013E-01
       2    -1     0     0   502     0  0.000000000E+00  0.000000000E+00  1.427197168E+03  1.427197168E+03  0.000000000E+00  0.00000E+00  9.000E+00
      21    -1     0     0   501   502  0.000000000E+00  0.000000000E+00 -6.046945883E+02  6.046945883E+02  0.000000000E+00  0.00000E+00  9.000E+00
      25     1     1     2     0     0  1.226995491E+02 -9.428648594E+01 -2.131016732E+02  2.915174847E+02  1.250000000E+02  0.00000E+00  9.000E+00
      25     1     1     2     0     0 -1.063284576E+02  6.790737548E+01 -3.298197220E+02  3.745973859E+02  1.250000000E+02  0.00000E+00  9.000E+00
       2     1     1     2   501     0 -1.637109152E+01  2.637911046E+01  1.365423975E+03  1.365776886E+03  2.157918644E-05  0.00000E+00  9.000E+00
#rwgt            1           1   4.4690696990097083E-002           2       93825           0
</event>
<event>
      5   9999  3.79277E-02  1.57633E+01 -1.00000E+00  1.75377E-01
      21    -1     0     0   502   501  0.000000000E+00  0.000000000E+00  6.493248199E+02  6.493248199E+02  0.000000000E+00  0.00000E+00  9.000E+00
      21    -1     0     0   501   511  0.000000000E+00  0.000000000E+00 -9.257483314E+01  9.257483314E+01  0.000000000E+00  0.00000E+00  9.000E+00
      25     1     1     2     0     0 -1.069183859E+02  3.968666784E+01  1.597752592E+01  1.699613314E+02  1.250000000E+02  0.00000E+00  9.000E+00
      25     1     1     2     0     0  9.610128139E+01 -2.822048688E+01  5.276535153E+02  5.514300358E+02  1.250000000E+02  0.00000E+00  9.000E+00
      21     1     1     2   502   511  1.081710448E+01 -1.146618095E+01  1.311894546E+01  2.050828576E+01  1.685873940E-07  0.00000E+00  9.000E+00
#rwgt            1           1   5.1137931384252926E-002           2       93996           0
</event>
<event>
      5   9999  3.79277E-02  1.98618E+01 -1.00000E+00  1.66618E-01
       2    -1     0     0   502     0  0.000000000E+00  0.000000000E+00  4.132260099E+03  4.132260099E+03  0.000000000E+00  0.00000E+00  9.000E+00
      21    -1     0     0   501   502  0.000000000E+00  0.000000000E+00 -7.514200271E+01  7.514200271E+01  0.000000000E+00  0.00000E+00  9.000E+00
      25     1     1     2     0     0 -1.068018176E+01  1.820174255E+01  3.558362871E+02  3.777430780E+02  1.250000000E+02  0.00000E+00  9.000E+00
      25     1     1     2     0     0  3.014485112E+01 -2.215391235E+01  2.172185340E+00  1.304960776E+02  1.250000000E+02  0.00000E+00  9.000E+00
       2     1     1     2   501     0 -1.946466936E+01  3.952169805E+00  3.699109624E+03  3.699162946E+03  6.103515625E-05  0.00000E+00  9.000E+00
#rwgt            1           1   4.4416195786839918E-002           2       94295           0
</event>
<event>
      5   9999  3.79277E-02  7.06696E+00 -1.00000E+00  2.14971E-01
      21    -1     0     0   511   501  0.000000000E+00  0.000000000E+00  4.003308619E+01  4.003308619E+01  0.000000000E+00  0.00000E+00  9.000E+00
      21    -1     0     0   501   502  0.000000000E+00  0.000000000E+00 -9.812186841E+02  9.812186841E+02  0.000000000E+00  0.00000E+00  9.000E+00
      25     1     1     2     0     0 -3.093942915E+01  1.197964234E+02 -2.693957072E+02  3.217257814E+02  1.250000000E+02  0.00000E+00  9.000E+00
      25     1     1     2     0     0  3.075157709E+01 -1.268608890E+02 -6.668400388E+02  6.908979534E+02  1.250000000E+02  0.00000E+00  9.000E+00
      21     1     1     2   511   502  1.878520581E-01  7.064465597E+00 -4.949851861E+00  8.628035467E+00  1.032382731E-07  0.00000E+00  9.000E+00
#rwgt            1           1   3.3121522052602083E-002           2       94441           0
</event>
<event>
      5   9999  3.79277E-02  6.32892E+01 -1.00000E+00  1.33476E-01
      21    -1     0     0   512   501  0.000000000E+00  0.000000000E+00  4.505546162E+02  4.505546162E+02  0.000000000E+00  0.00000E+00  9.000E+00
      21    -1     0     0   501   502  0.000000000E+00  0.000000000E+00 -3.318972084E+02  3.318972084E+02  0.000000000E+00  0.00000E+00  9.000E+00
      25     1     1     2     0     0  2.467670668E+01  4.375614657E+01 -2.845758019E+02  3.148522308E+02  1.250000000E+02  0.00000E+00  9.000E+00
      25     1     1     2     0     0 -5.676962473E+01  1.079266056E+01  1.381403497E+02  1.950564739E+02  1.250000000E+02  0.00000E+00  9.000E+00
      21     1     1     2   512   502  3.209291805E+01 -5.454880713E+01  2.650928600E+02  2.725431199E+02  3.814697266E-06  0.00000E+00  9.000E+00
#rwgt            1           1   3.6841171976993922E-002           2       94758           0
</event>
<event>
      5   9999  3.79277E-02  1.91423E+02 -1.00000E+00  1.12345E-01
      21    -1     0     0   502   501  0.000000000E+00  0.000000000E+00  8.339977374E+02  8.339977374E+02  0.000000000E+00  0.00000E+00  9.000E+00
      21    -1     0     0   501   511  0.000000000E+00  0.000000000E+00 -1.224996494E+03  1.224996494E+03  0.000000000E+00  0.00000E+00  9.000E+00
      25     1     1     2     0     0 -2.144160373E+02 -2.024515408E+02  6.251412723E+02  7.024154567E+02  1.250000000E+02  0.00000E+00  9.000E+00
      25     1     1     2     0     0  7.522978527E+01  3.338667871E+02 -4.542729088E+01  3.671718819E+02  1.250000000E+02  0.00000E+00  9.000E+00
      21     1     1     2   502   511  1.391862520E+02 -1.314152463E+02 -9.707127381E+02  9.894068928E+02  1.078959322E-05  0.00000E+00  9.000E+00
#rwgt            2          11   3.6351155697355018E-003           2       94935           0
</event>
<event>
      5   9999  3.79277E-02  5.59890E+01 -1.00000E+00  1.36329E-01
      21    -1     0     0   502   501  0.000000000E+00  0.000000000E+00  5.765162449E+01  5.765162449E+01  0.000000000E+00  0.00000E+00  9.000E+00
      21    -1     0     0   501   512  0.000000000E+00  0.000000000E+00 -5.845210374E+02  5.845210374E+02  0.000000000E+00  0.00000E+00  9.000E+00
      25     1     1     2     0     0  8.337189794E+00 -4.442246806E+01 -7.195590951E+01  1.511473364E+02  1.250000000E+02  0.00000E+00  9.000E+00
      25     1     1     2     0     0  3.086459549E+01  4.447654526E+00 -3.184267442E+02  3.435010864E+02  1.250000000E+02  0.00000E+00  9.000E+00
      21     1     1     2   502   512 -3.920178528E+01  3.997481353E+01 -1.364867591E+02  1.475242391E+02  0.000000000E+00  0.00000E+00  9.000E+00
#rwgt            1           1  0.10518546691203005                2       94985           0
</event>
<event>
      5   9999  3.79277E-02  4.25809E+01 -1.00000E+00  1.43176E-01
      21    -1     0     0   511   501  0.000000000E+00  0.000000000E+00  2.904216664E+02  2.904216664E+02  0.000000000E+00  0.00000E+00  9.000E+00
      21    -1     0     0   501   502  0.000000000E+00  0.000000000E+00 -3.091851744E+02  3.091851744E+02  0.000000000E+00  0.00000E+00  9.000E+00
      25     1     1     2     0     0 -3.481978773E+01  1.401947488E+02  3.510974428E+01  1.942284206E+02  1.250000000E+02  0.00000E+00  9.000E+00
      25     1     1     2     0     0 -6.773242127E+00 -1.493134416E+02 -1.842851553E+02  2.681909750E+02  1.250000000E+02  0.00000E+00  9.000E+00
      21     1     1     2   511   502  4.159302986E+01  9.118692749E+00  1.304119029E+02  1.371874452E+02  0.000000000E+00  0.00000E+00  9.000E+00
#rwgt            1           1   4.0824155490305485E-002           2       95154           0
</event>
<event>
      5   9999  3.79277E-02  1.32068E+02 -1.00000E+00  1.18628E-01
      21    -1     0     0   502   512  0.000000000E+00  0.000000000E+00  2.968606059E+03  2.968606059E+03  0.000000000E+00  0.00000E+00  9.000E+00
      21    -1     0     0   501   502  0.000000000E+00  0.000000000E+00 -4.318182801E+02  4.318182801E+02  0.000000000E+00  0.00000E+00  9.000E+00
      25     1     1     2     0     0 -9.188395780E+01  3.216248715E+02 -1.753607512E+02  3.978210813E+02  1.250000000E+02  0.00000E+00  9.000E+00
      25     1     1     2     0     0  5.864866368E+01 -1.938072070E+02 -4.509623333E+01  2.421973771E+02  1.250000000E+02  0.00000E+00  9.000E+00
      21     1     1     2   501   512  3.323529412E+01 -1.278176645E+02  2.757244763E+03  2.760405880E+03  3.051757812E-05  0.00000E+00  9.000E+00
#rwgt            1           1   3.7129196112199649E-002           2       95286           0
</event>
<event>
      5   9999  3.79277E-02  2.80759E+01 -1.00000E+00  1.55067E-01
      21    -1     0     0   502   511  0.000000000E+00  0.000000000E+00  2.385159460E+02  2.385159460E+02  0.000000000E+00  0.00000E+00  9.000E+00
      21    -1     0     0   501   502  0.000000000E+00  0.000000000E+00 -7.391284589E+02  7.391284589E+02  0.000000000E+00  0.00000E+00  9.000E+00
      25     1     1     2     0     0 -2.822593454E+01 -1.892163942E+02 -2.754440623E+02  3.579021915E+02  1.250000000E+02  0.00000E+00  9.000E+00
      25     1     1     2     0     0  5.299461774E+01  2.024363664E+02 -3.859776840E+02  4.565004759E+02  1.250000000E+02  0.00000E+00  9.000E+00
      21     1     1     2   501   511 -2.476868320E+01 -1.321997217E+01  1.608092334E+02  1.632417375E+02  3.814697266E-06  0.00000E+00  9.000E+00
#rwgt            1           1   3.4453984826231861E-002           2       95340           0
</event>
<event>
      5   9999  3.79277E-02  1.15594E+02 -1.00000E+00  1.21062E-01
      21    -1     0     0   512   501  0.000000000E+00  0.000000000E+00  1.134038249E+03  1.134038249E+03  0.000000000E+00  0.00000E+00  9.000E+00
      21    -1     0     0   501   502  0.000000000E+00  0.000000000E+00 -1.335682871E+02  1.335682871E+02  0.000000000E+00  0.00000E+00  9.000E+00
      25     1     1     2     0     0  1.394574006E+01 -1.668347023E+02  2.535697930E+01  2.104668096E+02  1.250000000E+02  0.00000E+00  9.000E+00
      25     1     1     2     0     0  1.011483902E+02  1.561008954E+02  3.126841458E+02  3.847010026E+02  1.250000000E+02  0.00000E+00  9.000E+00
      21     1     1     2   512   502 -1.150941303E+02  1.073380685E+01  6.624288369E+02  6.724387239E+02  0.000000000E+00  0.00000E+00  9.000E+00
#rwgt            1           1   4.1530923489137589E-002           2       95490           0
</event>
<event>
      5   9999  3.79277E-02  4.06976E+01 -1.00000E+00  1.44376E-01
      21    -1     0     0   502   501  0.000000000E+00  0.000000000E+00  1.404734695E+03  1.404734695E+03  0.000000000E+00  0.00000E+00  9.000E+00
       3    -1     0     0   501     0  0.000000000E+00  0.000000000E+00 -3.440817734E+02  3.440817734E+02  0.000000000E+00  0.00000E+00  9.000E+00
      25     1     1     2     0     0 -8.902945371E+01 -1.106751646E+02  2.379715761E+02  3.040241877E+02  1.250000000E+02  0.00000E+00  9.000E+00
      25     1     1     2     0     0  7.747111405E+01  1.496969158E+02  1.122640540E+03  1.142084814E+03  1.250000000E+02  0.00000E+00  9.000E+00
       3     1     1     2   502     0  1.155833967E+01 -3.902175122E+01 -2.999591944E+02  3.027074670E+02  8.529922400E-06  0.00000E+00  9.000E+00
#rwgt            1           1   3.1300657413925487E-002           2       95640           0
</event>
<event>
      5   9999  3.79277E-02  1.50424E+02 -1.00000E+00  1.16345E-01
      21    -1     0     0   502   501  0.000000000E+00  0.000000000E+00  7.156150175E+01  7.156150175E+01  0.000000000E+00  0.00000E+00  9.000E+00
      21    -1     0     0   501   511  0.000000000E+00  0.000000000E+00 -1.238594669E+03  1.238594669E+03  0.000000000E+00  0.00000E+00  9.000E+00
      25     1     1     2     0     0  1.789630364E+01  9.906076206E+00 -1.541653960E+02  1.995253802E+02  1.250000000E+02  0.00000E+00  9.000E+00
      25     1     1     2     0     0 -9.567342134E+01 -1.386620966E+02 -2.214091950E+02  3.050042823E+02  1.250000000E+02  0.00000E+00  9.000E+00
      21     1     1     2   502   511  7.777711770E+01  1.287560204E+02 -7.914585768E+02  8.056265087E+02  0.000000000E+00  0.00000E+00  9.000E+00
#rwgt            1           1  0.10327252798687137                2       95829           0
</event>
<event>
      5   9999  3.79277E-02  9.45810E+00 -1.00000E+00  1.98596E-01
      21    -1     0     0   502   501  0.000000000E+00  0.000000000E+00  1.814541126E+02  1.814541126E+02  0.000000000E+00  0.00000E+00  9.000E+00
      21    -1     0     0   501   512  0.000000000E+00  0.000000000E+00 -3.528899019E+02  3.528899019E+02  0.000000000E+00  0.00000E+00  9.000E+00
      25     1     1     2     0     0  1.766325853E+01 -1.547083369E+02  5.641611459E+01  2.074956341E+02  1.250000000E+02  0.00000E+00  9.000E+00
      25     1     1     2     0     0 -2.339621224E+01  1.471857771E+02 -1.428804161E+02  2.413521266E+02  1.250000000E+02  0.00000E+00  9.000E+00
      21     1     1     2   502   512  5.732953703E+00  7.522559723E+00 -8.497148777E+01  8.549625370E+01  1.348699152E-06  0.00000E+00  9.000E+00
#rwgt            1           1   3.6190781627909945E-002           2       96023           0
</event>
<event>
      5   9999  3.79277E-02  6.85635E+01 -1.00000E+00  1.31678E-01
      21    -1     0     0   502   501  0.000000000E+00  0.000000000E+00  1.062406284E+02  1.062406284E+02  0.000000000E+00  0.00000E+00  9.000E+00
       2    -1     0     0   501     0  0.000000000E+00  0.000000000E+00 -1.646108782E+03  1.646108782E+03  0.000000000E+00  0.00000E+00  9.000E+00
      25     1     1     2     0     0 -1.896145186E+02 -8.094225893E+01 -1.782520326E+02  2.998401276E+02  1.250000000E+02  0.00000E+00  9.000E+00
      25     1     1     2     0     0  1.704464736E+02  1.511266530E+01 -2.082549037E+02  2.971119283E+02  1.250000000E+02  0.00000E+00  9.000E+00
       2     1     1     2   502     0  1.916804498E+01  6.582959364E+01 -1.153361218E+03  1.155397355E+03  1.525878906E-05  0.00000E+00  9.000E+00
#rwgt            1           1   3.7402891637151887E-002           2       96315           0
</event>
<event>
      5   9999  3.79277E-02  3.48318E+01 -1.00000E+00  1.48668E-01
      21    -1     0     0   502   511  0.000000000E+00  0.000000000E+00  4.721589219E+01  4.721589219E+01  0.000000000E+00  0.00000E+00  9.000E+00
      21    -1     0     0   501   502  0.000000000E+00  0.000000000E+00 -1.472903719E+03  1.472903719E+03  0.000000000E+00  0.00000E+00  9.000E+00
      25     1     1     2     0     0 -3.544176840E+01  2.016538560E+02 -7.040001057E+02  7.437483079E+02  1.250000000E+02  0.00000E+00  9.000E+00
      25     1     1     2     0     0  6.980720027E+01 -1.959728121E+02 -6.801920150E+02  7.221942713E+02  1.250000000E+02  0.00000E+00  9.000E+00
      21     1     1     2   501   511 -3.436543187E+01 -5.681043865E+00 -4.149570585E+01  5.417703176E+01  0.000000000E+00  0.00000E+00  9.000E+00
#rwgt            1           1   3.3632400043335085E-002           2       96423           0
</event>
<event>
      5   9999  3.79277E-02  7.01997E+01 -1.00000E+00  1.31158E-01
      21    -1     0     0   502   512  0.000000000E+00  0.000000000E+00  9.003980086E+02  9.003980086E+02  0.000000000E+00  0.00000E+00  9.000E+00
      21    -1     0     0   501   502  0.000000000E+00  0.000000000E+00 -2.658167763E+02  2.658167763E+02  0.000000000E+00  0.00000E+00  9.000E+00
      25     1     1     2     0     0  1.131753924E+02  1.361275189E+02  8.678568432E+01  2.334440530E+02  1.250000000E+02  0.00000E+00  9.000E+00
      25     1     1     2     0     0 -4.386174262E+01 -1.250093612E+02 -1.472312953E+02  2.342077009E+02  1.250000000E+02  0.00000E+00  9.000E+00
      21     1     1     2   501   512 -6.931364979E+01 -1.111815769E+01  6.950268432E+02  6.985630310E+02  0.000000000E+00  0.00000E+00  9.000E+00
#rwgt            1           1   2.6441287053409493E-002           2       96584           0
</event>
<event>
      5   9999  3.79277E-02  2.27759E+01 -1.00000E+00  1.61843E-01
      -4    -1     0     0     0   501  0.000000000E+00  0.000000000E+00  4.452710952E+01  4.452710952E+01  0.000000000E+00  0.00000E+00  9.000E+00
      21    -1     0     0   501   502  0.000000000E+00  0.000000000E+00 -1.005616963E+03  1.005616963E+03  0.000000000E+00  0.00000E+00  9.000E+00
      25     1     1     2     0     0  6.254433269E+01 -8.479937627E+01 -7.485569778E+02  7.662018512E+02  1.250000000E+02  0.00000E+00  9.000E+00
      25     1     1     2     0     0 -6.818902408E+01  6.273404784E+01 -2.095066433E+02  2.609661613E+02  1.250000000E+02  0.00000E+00  9.000E+00
      -4     1     1     2     0   502  5.644691384E+00  2.206532843E+01 -3.026232610E+00  2.297606023E+01  6.322027277E-07  0.00000E+00  9.000E+00
#rwgt            1           1   4.0033450898781173E-002           2       96701           0
</event>
<event>
      5   9999  3.79277E-02  1.38035E+02 -1.00000E+00  1.17843E-01
      21    -1     0     0   502   511  0.000000000E+00  0.000000000E+00  3.886958389E+02  3.886958389E+02  0.000000000E+00  0.00000E+00  9.000E+00
      21    -1     0     0   501   502  0.000000000E+00  0.000000000E+00 -2.377264258E+02  2.377264258E+02  0.000000000E+00  0.00000E+00  9.000E+00
      25     1     1     2     0     0 -4.537914580E+01 -1.970908740E+01 -1.448429157E+02  1.976162575E+02  1.250000000E+02  0.00000E+00  9.000E+00
      25     1     1     2     0     0 -9.263967921E+01  1.759381257E+01  8.883702256E+01  1.800240789E+02  1.250000000E+02  0.00000E+00  9.000E+00
      21     1     1     2   501   511  1.380188250E+02  2.115274826E+00  2.069753062E+02  2.487819283E+02  3.814697266E-06  0.00000E+00  9.000E+00
#rwgt            1           1   5.2610811456204463E-002           2       96899           0
</event>
<event>
      5   9999  3.79277E-02  1.36072E+02 -1.00000E+00  1.18096E-01
      21    -1     0     0   502   512  0.000000000E+00  0.000000000E+00  3.690584412E+02  3.690584412E+02  0.000000000E+00  0.00000E+00  9.000E+00
      21    -1     0     0   501   502  0.000000000E+00  0.000000000E+00 -4.787516430E+02  4.787516430E+02  0.000000000E+00  0.00000E+00  9.000E+00
      25     1     1     2     0     0 -7.407545089E+01  1.591224283E+02 -3.126799920E+01  2.177379328E+02  1.250000000E+02  0.00000E+00  9.000E+00
      25     1     1     2     0     0  9.152190548E+01 -2.940718224E+02 -2.465048492E+02  4.138165495E+02  1.250000000E+02  0.00000E+00  9.000E+00
      21     1     1     2   501   512 -1.744645459E+01  1.349493941E+02  1.680796466E+02  2.162556019E+02  2.697398305E-06  0.00000E+00  9.000E+00
#rwgt            1           1  0.14189159975294885                2       96963           0
</event>
<event>
      5   9999  3.79277E-02  4.51055E+00 -1.00000E+00  2.51754E-01
      21    -1     0     0   502   501  0.000000000E+00  0.000000000E+00  2.707745222E+02  2.707745222E+02  0.000000000E+00  0.00000E+00  9.000E+00
      21    -1     0     0   501   511  0.000000000E+00  0.000000000E+00 -1.872753286E+02  1.872753286E+02  0.000000000E+00  0.00000E+00  9.000E+00
      25     1     1     2     0     0 -2.847780388E+00  1.070560253E+02 -7.019408276E+01  1.789449962E+02  1.250000000E+02  0.00000E+00  9.000E+00
      25     1     1     2     0     0  7.208110305E+00 -1.082104164E+02  1.845724181E+02  2.478980206E+02  1.250000000E+02  0.00000E+00  9.000E+00
      21     1     1     2   502   511 -4.360329918E+00  1.154391070E+00 -3.087914175E+01  3.120683404E+01  4.768371582E-07  0.00000E+00  9.000E+00
#rwgt            1           1   2.8022605851361237E-002           2       97068           0
</event>
<event>
      5   9999  3.79277E-02  4.50649E+01 -1.00000E+00  1.41700E-01
      21    -1     0     0   512   501  0.000000000E+00  0.000000000E+00  6.125022506E+01  6.125022506E+01  0.000000000E+00  0.00000E+00  9.000E+00
      21    -1     0     0   501   502  0.000000000E+00  0.000000000E+00 -1.947435800E+03  1.947435800E+03  0.000000000E+00  0.00000E+00  9.000E+00
      25     1     1     2     0     0  2.251754013E+02  8.021461363E+01 -1.119590004E+03  1.151627163E+03  1.250000000E+02  0.00000E+00  9.000E+00
      25     1     1     2     0     0 -2.702306775E+02 -7.928236356E+01 -7.467482605E+02  8.078169822E+02  1.250000000E+02  0.00000E+00  9.000E+00
      21     1     1     2   512   502  4.505527615E+01 -9.322500644E-01 -1.984731057E+01  4.924187990E+01  1.907348633E-06  0.00000E+00  9.000E+00
#rwgt            1           1   3.2930668595909825E-002           2       97460           0
</event>
<event>
      5   9999  3.79277E-02  5.10434E+01 -1.00000E+00  1.38566E-01
      21    -1     0     0   502   501  0.000000000E+00  0.000000000E+00  1.974163740E+02  1.974163740E+02  0.000000000E+00  0.00000E+00  9.000E+00
       3    -1     0     0   501     0  0.000000000E+00  0.000000000E+00 -1.173257258E+03  1.173257258E+03  0.000000000E+00  0.00000E+00  9.000E+00
      25     1     1     2     0     0 -1.725215351E+02 -1.122827101E+02 -4.460750649E+02  5.069310117E+02  1.250000000E+02  0.00000E+00  9.000E+00
      25     1     1     2     0     0  1.392602958E+02  1.510011878E+02  7.879995918E+01  2.530399618E+02  1.250000000E+02  0.00000E+00  9.000E+00
       3     1     1     2   502     0  3.326123926E+01 -3.871847772E+01 -6.085657785E+02  6.107026586E+02  7.629394531E-06  0.00000E+00  9.000E+00
#rwgt            1           1   3.2781101393956638E-002           2       97612           0
</event>
<event>
      5   9999  3.79277E-02  3.34950E+01 -1.00000E+00  1.49788E-01
      21    -1     0     0   502   501  0.000000000E+00  0.000000000E+00  6.865164042E+01  6.865164042E+01  0.000000000E+00  0.00000E+00  9.000E+00
       2    -1     0     0   501     0  0.000000000E+00  0.000000000E+00 -2.569531393E+03  2.569531393E+03  0.000000000E+00  0.00000E+00  9.000E+00
      25     1     1     2     0     0  2.346651628E+02 -1.452086433E+01 -1.110588899E+03  1.142064489E+03  1.250000000E+02  0.00000E+00  9.000E+00
      25     1     1     2     0     0 -2.627805200E+02 -3.684687614E+00 -3.495453262E+02  4.548341607E+02  1.250000000E+02  0.00000E+00  9.000E+00
       2     1     1     2   502     0  2.811535719E+01  1.820555194E+01 -1.040745527E+03  1.041284384E+03  0.000000000E+00  0.00000E+00  9.000E+00
#rwgt            1           1   5.1608656984336775E-002           2       97740           0
</event>
<event>
      5   9999  3.79277E-02  7.54863E+01 -1.00000E+00  1.29582E-01
      21    -1     0     0   502   501  0.000000000E+00  0.000000000E+00  1.667783586E+02  1.667783586E+02  0.000000000E+00  0.00000E+00  9.000E+00
      21    -1     0     0   511   502  0.000000000E+00  0.000000000E+00 -2.711624812E+02  2.711624812E+02  0.000000000E+00  0.00000E+00  9.000E+00
      25     1     1     2     0     0  5.343698589E+01 -1.333178825E+02 -4.562153808E+01  1.957945198E+02  1.250000000E+02  0.00000E+00  9.000E+00
      25     1     1     2     0     0  1.190778172E+01  9.552568280E+01 -2.618408721E+01  1.599298526E+02  1.250000000E+02  0.00000E+00  9.000E+00
      21     1     1     2   511   501 -6.534476760E+01  3.779219969E+01 -3.257849738E+01  8.221646734E+01  1.651812370E-06  0.00000E+00  9.000E+00
#rwgt            1           1   4.2479808101310725E-002           2       97910           0
</event>
<event>
      5   9999  3.79277E-02  1.26786E+01 -1.00000E+00  1.84551E-01
      21    -1     0     0   502   501  0.000000000E+00  0.000000000E+00  1.224943106E+01  1.224943106E+01  0.000000000E+00  0.00000E+00  9.000E+00
      21    -1     0     0   501   512  0.000000000E+00  0.000000000E+00 -3.685671996E+03  3.685671996E+03  0.000000000E+00  0.00000E+00  9.000E+00
      25     1     1     2     0     0  2.278529229E+01  1.244908035E+02 -2.008946276E+03  2.016806205E+03  1.250000000E+02  0.00000E+00  9.000E+00
      25     1     1     2     0     0 -2.922279129E+01 -1.135681236E+02 -8.799701968E+02  8.965066857E+02  1.250000000E+02  0.00000E+00  9.000E+00
      21     1     1     2   502   512  6.437499004E+00 -1.092267990E+01 -7.845060920E+02  7.846085359E+02  1.078959322E-05  0.00000E+00  9.000E+00
#rwgt            1           1   7.9853061428613842E-002           2       98023           0
</event>
<event>
      5   9999  3.79277E-02  2.54441E+01 -1.00000E+00  1.58180E-01
      21    -1     0     0   502   501  0.000000000E+00  0.000000000E+00  2.916355078E+02  2.916355078E+02  0.000000000E+00  0.00000E+00  9.000E+00
      21    -1     0     0   511   502  0.000000000E+00  0.000000000E+00 -1.847413386E+02  1.847413386E+02  0.000000000E+00  0.00000E+00  9.000E+00
      25     1     1     2     0     0 -5.419194115E+01 -8.334505508E+01  2.114207044E+02  2.649658071E+02  1.250000000E+02  0.00000E+00  9.000E+00
      25     1     1     2     0     0  2.883964149E+01  8.550453315E+01 -1.039896351E+02  1.859612710E+02  1.250000000E+02  0.00000E+00  9.000E+00
      21     1     1     2   511   501  2.535229966E+01 -2.159478066E+00 -5.369001860E-01  2.544976828E+01  2.602375924E-07  0.00000E+00  9.000E+00
#rwgt            2          11   2.7689408861796797E-003           2       98344           0
</event>
<event>
      5   9999  3.79277E-02  3.17684E+02 -1.00000E+00  1.04790E-01
      21    -1     0     0   512   501  0.000000000E+00  0.000000000E+00  5.629323721E+02  5.629323721E+02  0.000000000E+00  0.00000E+00  9.000E+00
      21    -1     0     0   501   502  0.000000000E+00  0.000000000E+00 -3.188578734E+02  3.188578734E+02  0.000000000E+00  0.00000E+00  9.000E+00
      25     1     1     2     0     0 -2.443657906E+02 -2.027041446E+02  1.905711663E+02  3.908273011E+02  1.250000000E+02  0.00000E+00  9.000E+00
      25     1     1     2     0     0 -3.978673715E+01  6.064543057E+01 -5.592114999E+01  1.549613749E+02  1.250000000E+02  0.00000E+00  9.000E+00
      21     1     1     2   512   502  2.841525278E+02  1.420587141E+02  1.094244824E+02  3.360015694E+02  2.697398305E-06  0.00000E+00  9.000E+00
#rwgt            1           1   3.1624555092195250E-002           2       98364           0
</event>
<event>
      5   9999  3.79277E-02  5.90951E+01 -1.00000E+00  1.35057E-01
      21    -1     0     0   502   501  0.000000000E+00  0.000000000E+00  1.205030128E+02  1.205030128E+02  0.000000000E+00  0.00000E+00  9.000E+00
      21    -1     0     0   511   502  0.000000000E+00  0.000000000E+00 -2.846856152E+02  2.846856152E+02  0.000000000E+00  0.00000E+00  9.000E+00
      25     1     1     2     0     0 -1.832263644E+01  1.186457865E+01  1.921303419E+01  1.283379442E+02  1.250000000E+02  0.00000E+00  9.000E+00
      25     1     1     2     0     0  7.633576660E+01 -2.312109685E+01 -1.328535094E+02  1.990899027E+02  1.250000000E+02  0.00000E+00  9.000E+00
      21     1     1     2   511   501 -5.801313015E+01  1.125651819E+01 -5.054212718E+01  7.776078119E+01  1.784161275E-06  0.00000E+00  9.000E+00
#rwgt            1           1  0.13414985545131597                2       98707           0
</event>
<event>
      5   9999  3.79277E-02  1.98077E+01 -1.00000E+00  1.66716E-01
      21    -1     0     0   512   501  0.000000000E+00  0.000000000E+00  2.235234204E+02  2.235234204E+02  0.000000000E+00  0.00000E+00  9.000E+00
      21    -1     0     0   501   502  0.000000000E+00  0.000000000E+00 -3.824282722E+02  3.824282722E+02  0.000000000E+00  0.00000E+00  9.000E+00
      25     1     1     2     0     0 -2.086638065E+02  1.028052608E+02 -1.694461804E+02  3.137618744E+02  1.250000000E+02  0.00000E+00  9.000E+00
      25     1     1     2     0     0  2.029954410E+02 -8.382590978E+01 -2.246108136E+01  2.536994923E+02  1.250000000E+02  0.00000E+00  9.000E+00
      21     1     1     2   512   502  5.668365566E+00 -1.897935100E+01  3.300240991E+01  3.849032596E+01  0.000000000E+00  0.00000E+00  9.000E+00
#rwgt            1           1   9.5484059585539266E-002           2       98821           0
</event>
<event>
      5   9999 -3.79277E-02  8.51915E+01 -1.00000E+00  1.27042E-01
      21    -1     0     0   502   511  0.000000000E+00  0.000000000E+00  3.374834635E+02  3.374834635E+02  0.000000000E+00  0.00000E+00  9.000E+00
      21    -1     0     0   501   502  0.000000000E+00  0.000000000E+00 -1.698396552E+03  1.698396552E+03  0.000000000E+00  0.00000E+00  9.000E+00
      25     1     1     2     0     0  2.796148187E+02 -1.426621519E+02 -3.795322910E+01  3.400035059E+02  1.250000000E+02  0.00000E+00  9.000E+00
      25     1     1     2     0     0 -2.143548744E+02  8.790144888E+01 -1.487487015E+03  1.510601634E+03  1.250000000E+02  0.00000E+00  9.000E+00
      21     1     1     2   501   511 -6.525994431E+01  5.476070298E+01  1.645271551E+02  1.852748760E+02  3.814697266E-06  0.00000E+00  9.000E+00
#rwgt            1           1 -0.30376249171783970                2       98999           0
</event>
<event>
      5   9999  3.79277E-02  4.59656E+01 -1.00000E+00  1.41193E-01
      21    -1     0     0   502   501  0.000000000E+00  0.000000000E+00  2.010588804E+02  2.010588804E+02  0.000000000E+00  0.00000E+00  9.000E+00
      21    -1     0     0   501   512  0.000000000E+00  0.000000000E+00 -4.521948060E+02  4.521948060E+02  0.000000000E+00  0.00000E+00  9.000E+00
      25     1     1     2     0     0 -1.985048585E+02 -2.292619290E+01  3.814088069E+00  2.357314923E+02  1.250000000E+02  0.00000E+00  9.000E+00
      25     1     1     2     0     0  2.426610978E+02  1.015673216E+01 -1.723136892E+02  3.229621883E+02  1.250000000E+02  0.00000E+00  9.000E+00
      21     1     1     2   502   512 -4.415623926E+01  1.276946074E+01 -8.263632447E+01  9.456000590E+01  2.132480600E-06  0.00000E+00  9.000E+00
#rwgt            1           1   4.0874060902278790E-002           2       99222           0
</event>
<event>
      5   9999  3.79277E-02  2.90684E+01 -1.00000E+00  1.53998E-01
      21    -1     0     0   502   501  0.000000000E+00  0.000000000E+00  5.986733138E+02  5.986733138E+02  0.000000000E+00  0.00000E+00  9.000E+00
      21    -1     0     0   501   511  0.000000000E+00  0.000000000E+00 -2.758500595E+02  2.758500595E+02  0.000000000E+00  0.00000E+00  9.000E+00
      25     1     1     2     0     0 -2.513863329E+01  1.147595344E+02  1.900615346E+02  2.560275153E+02  1.250000000E+02  0.00000E+00  9.000E+00
      25     1     1     2     0     0  4.565172268E+00 -1.352949472E+02  3.520158527E+02  3.973231985E+02  1.250000000E+02  0.00000E+00  9.000E+00
      21     1     1     2   502   511  2.057346102E+01  2.053541276E+01 -2.192541330E+02  2.211726595E+02  2.697398305E-06  0.00000E+00  9.000E+00
#rwgt            2          11   4.8504558487793272E-003           2       99411           0
</event>
<event>
      5   9999  3.79277E-02  3.12631E+01 -1.00000E+00  1.51806E-01
      21    -1     0     0   502   501  0.000000000E+00  0.000000000E+00  3.088928859E+02  3.088928859E+02  0.000000000E+00  0.00000E+00  9.000E+00
      21    -1     0     0   501   512  0.000000000E+00  0.000000000E+00 -1.792992721E+02  1.792992721E+02  0.000000000E+00  0.00000E+00  9.000E+00
      25     1     1     2     0     0  1.340555718E+02  2.817569336E+01  1.331732376E+02  2.283087323E+02  1.250000000E+02  0.00000E+00  9.000E+00
      25     1     1     2     0     0 -1.542441543E+02 -5.204621313E+01  3.710850465E+01  2.085715910E+02  1.250000000E+02  0.00000E+00  9.000E+00
      21     1     1     2   502   512  2.018858250E+01  2.387051977E+01 -4.068812851E+01  5.131183469E+01  0.000000000E+00  0.00000E+00  9.000E+00
#rwgt            1           1   3.5442581855621838E-002           2       99431           0
</event>
<event>
      5   9999  3.79277E-02  4.44370E+01 -1.00000E+00  1.42063E-01
      21    -1     0     0   511   501  0.000000000E+00  0.000000000E+00  1.664614187E+02  1.664614187E+02  0.000000000E+00  0.00000E+00  9.000E+00
      21    -1     0     0   501   502  0.000000000E+00  0.000000000E+00 -2.371348066E+02  2.371348066E+02  0.000000000E+00  0.00000E+00  9.000E+00
      25     1     1     2     0     0 -8.462736107E+01 -1.648088542E+01 -9.717052378E+01  1.802790074E+02  1.250000000E+02  0.00000E+00  9.000E+00
      25     1     1     2     0     0  1.153418233E+02  4.859426351E+01  2.660721410E+01  1.788800785E+02  1.250000000E+02  0.00000E+00  9.000E+00
      21     1     1     2   511   502 -3.071446220E+01 -3.211337809E+01 -1.100781666E-01  4.443713939E+01  6.100326376E-07  0.00000E+00  9.000E+00
#rwgt            1           1   5.5214570885798862E-002           2       99552           0
</event>
<event>
      5   9999  3.79277E-02  3.33098E+01 -1.00000E+00  1.49949E-01
      21    -1     0     0   502   501  0.000000000E+00  0.000000000E+00  2.257930243E+02  2.257930243E+02  0.000000000E+00  0.00000E+00  9.000E+00
      21    -1     0     0   501   512  0.000000000E+00  0.000000000E+00 -2.515071529E+02  2.515071529E+02  0.000000000E+00  0.00000E+00  9.000E+00
      25     1     1     2     0     0  1.589209760E+02 -3.856822771E+01  9.446328986E+01  2.264767051E+02  1.250000000E+02  0.00000E+00  9.000E+00
      25     1     1     2     0     0 -1.374927031E+02  1.306582398E+01 -9.524782694E+01  2.092178475E+02  1.250000000E+02  0.00000E+00  9.000E+00
      21     1     1     2   502   512 -2.142827286E+01  2.550240372E+01 -2.492959148E+01  4.160562468E+01  7.539457465E-07  0.00000E+00  9.000E+00
#rwgt            1           1   3.9808643351497745E-002           2       99695           0
</event>
<event>
      5   9999  3.79277E-02  1.05605E+01 -1.00000E+00  1.93059E-01
      21    -1     0     0   502   501  0.000000000E+00  0.000000000E+00  6.155315176E+02  6.155315176E+02  0.000000000E+00  0.00000E+00  9.000E+00
      21    -1     0     0   501   511  0.000000000E+00  0.000000000E+00 -3.195005288E+02  3.195005288E+02  0.000000000E+00  0.00000E+00  9.000E+00
      25     1     1     2     0     0  1.330588067E+02 -4.906292997E+00 -4.856889919E+00  1.826945733E+02  1.250000000E+02  0.00000E+00  9.000E+00
      25     1     1     2     0     0 -1.362923549E+02 -5.146980316E+00  5.102267609E+02  5.427323880E+02  1.250000000E+02  0.00000E+00  9.000E+00
      21     1     1     2   502   511  3.233548207E+00  1.005327331E+01 -2.093388822E+02  2.096050852E+02  2.697398305E-06  0.00000E+00  9.000E+00
#rwgt            1           1   3.1661132362179788E-002           2      100052           0
</event>
<event>
      5   9999  3.79277E-02  2.87828E+02 -1.00000E+00  1.06180E-01
      21    -1     0     0   502   501  0.000000000E+00  0.000000000E+00  2.140373435E+03  2.140373435E+03  0.000000000E+00  0.00000E+00  9.000E+00
      21    -1     0     0   501   512  0.000000000E+00  0.000000000E+00 -4.413007617E+02  4.413007617E+02  0.000000000E+00  0.00000E+00  9.000E+00
      25     1     1     2     0     0 -1.531243667E+02 -4.464355147E+02  9.941513047E+02  1.107571017E+03  1.250000000E+02  0.00000E+00  9.000E+00
      25     1     1     2     0     0  4.388269271E+02  4.115228307E+02  9.258993287E+02  1.111231155E+03  1.250000000E+02  0.00000E+00  9.000E+00
      21     1     1     2   502   512 -2.857025604E+02  3.491268394E+01 -2.209779597E+02  3.628720259E+02  6.607249480E-06  0.00000E+00  9.000E+00
#rwgt            1           1  0.50610838685316895                2      100257           0
</event>
<event>
      5   9999  3.79277E-02  3.16681E+01 -1.00000E+00  1.51425E-01
      21    -1     0     0   511   501  0.000000000E+00  0.000000000E+00  2.229351277E+02  2.229351277E+02  0.000000000E+00  0.00000E+00  9.000E+00
      21    -1     0     0   501   502  0.000000000E+00  0.000000000E+00 -2.336502727E+02  2.336502727E+02  0.000000000E+00  0.00000E+00  9.000E+00
      25     1     1     2     0     0  1.697466402E+02  3.385024763E+01  5.365651706E+01  2.201449136E+02  1.250000000E+02  0.00000E+00  9.000E+00
      25     1     1     2     0     0 -1.385702179E+02 -3.940897985E+01 -7.199082591E+01  2.038687127E+02  1.250000000E+02  0.00000E+00  9.000E+00
      21     1     1     2   511   502 -3.117642233E+01  5.558732226E+00  7.619163867E+00  3.257177415E+01  3.475518164E-07  0.00000E+00  9.000E+00
#rwgt            1           1   8.4554534605722154E-002           2      100391           0
</event>
<event>
      5   9999  3.79277E-02  1.64231E+01 -1.00000E+00  1.73754E-01
      21    -1     0     0   502   512  0.000000000E+00  0.000000000E+00  2.441728268E+02  2.441728268E+02  0.000000000E+00  0.00000E+00  9.000E+00
      21    -1     0     0   501   502  0.000000000E+00  0.000000000E+00 -2.564834869E+02  2.564834869E+02  0.000000000E+00  0.00000E+00  9.000E+00
      25     1     1     2     0     0  1.330087758E+02 -8.591591468E+01 -1.346202003E+02  2.425293326E+02  1.250000000E+02  0.00000E+00  9.000E+00
      25     1     1     2     0     0 -1.480966375E+02  7.942943678E+01  1.204242129E+02  2.415960275E+02  1.250000000E+02  0.00000E+00  9.000E+00
      21     1     1     2   501   512  1.508786173E+01  6.486477897E+00  1.885327391E+00  1.653095358E+01  1.032382731E-07  0.00000E+00  9.000E+00
#rwgt            1           1   4.3730412191700332E-002           2      100561           0
</event>
<event>
      5   9999  3.79277E-02  4.00971E+01 -1.00000E+00  1.44775E-01
      21    -1     0     0   511   501  0.000000000E+00  0.000000000E+00  1.902305137E+02  1.902305137E+02  0.000000000E+00  0.00000E+00  9.000E+00
      21    -1     0     0   501   502  0.000000000E+00  0.000000000E+00 -3.442146828E+02  3.442146828E+02  0.000000000E+00  0.00000E+00  9.000E+00
      25     1     1     2     0     0 -1.671092642E+02 -1.557306083E+01 -1.388101939E+02  2.511200835E+02  1.250000000E+02  0.00000E+00  9.000E+00
      25     1     1     2     0     0  2.070790043E+02  1.876655262E+01 -9.177086872E+00  2.427820349E+02  1.250000000E+02  0.00000E+00  9.000E+00
      21     1     1     2   511   502 -3.996974015E+01 -3.193491787E+00 -5.996888213E+00  4.054307815E+01  2.064765462E-07  0.00000E+00  9.000E+00
#rwgt            1           1  0.30604077317014866                2      100779           0
</event>
<event>
      5   9999  3.79277E-02  3.63388E+01 -1.00000E+00  1.47474E-01
      21    -1     0     0   512   501  0.000000000E+00  0.000000000E+00  8.568140605E+02  8.568140605E+02  0.000000000E+00  0.00000E+00  9.000E+00
      21    -1     0     0   501   502  0.000000000E+00  0.000000000E+00 -3.712623252E+02  3.712623252E+02  0.000000000E+00  0.00000E+00  9.000E+00
      25     1     1     2     0     0 -2.762975747E+02 -1.166358298E+02 -1.142762661E+02  3.444246385E+02  1.250000000E+02  0.00000E+00  9.000E+00
      25     1     1     2     0     0  2.923265392E+02  1.492483706E+02  7.699777941E+01  3.595602032E+02  1.250000000E+02  0.00000E+00  9.000E+00
      21     1     1     2   512   502 -1.602896448E+01 -3.261254079E+01  5.228302220E+02  5.240915441E+02  0.000000000E+00  0.00000E+00  9.000E+00
#rwgt            1           1   3.5532358570888503E-002           2      100929           0
</event>
<event>
      5   9999  3.79277E-02  2.57565E+01 -1.00000E+00  1.57787E-01
      21    -1     0     0   502   501  0.000000000E+00  0.000000000E+00  1.585942477E+03  1.585942477E+03  0.000000000E+00  0.00000E+00  9.000E+00
      21    -1     0     0   511   502  0.000000000E+00  0.000000000E+00 -1.112490668E+02  1.112490668E+02  0.000000000E+00  0.00000E+00  9.000E+00
      25     1     1     2     0     0 -2.894374040E+02  4.738602622E+01  1.232712883E+03  1.273273536E+03  1.250000000E+02  0.00000E+00  9.000E+00
      25     1     1     2     0     0  2.679828344E+02 -6.163726202E+01  2.547763778E+02  3.951581383E+02  1.250000000E+02  0.00000E+00  9.000E+00
      21     1     1     2   511   501  2.145456969E+01  1.425123581E+01 -1.279585054E+01  2.875986915E+01  1.011524364E-06  0.00000E+00  9.000E+00
#rwgt            1           1   2.8376505602112290E-002           2      101186           0
</event>
<event>
      5   9999  3.79277E-02  4.71322E+01 -1.00000E+00  1.40555E-01
      21    -1     0     0   502   501  0.000000000E+00  0.000000000E+00  9.288757524E+01  9.288757524E+01  0.000000000E+00  0.00000E+00  9.000E+00
      21    -1     0     0   512   502  0.000000000E+00  0.000000000E+00 -9.645686642E+02  9.645686642E+02  0.000000000E+00  0.00000E+00  9.000E+00
      25     1     1     2     0     0  1.646051416E+02  4.943606963E+01 -4.004236484E+02  4.533242502E+02  1.250000000E+02  0.00000E+00  9.000E+00
      25     1     1     2     0     0 -1.811449271E+02 -9.357082258E+01 -1.563703229E+02  2.857370493E+02  1.250000000E+02  0.00000E+00  9.000E+00
      21     1     1     2   512   501  1.653978551E+01  4.413475296E+01 -3.148871177E+02  3.183949400E+02  6.607249480E-06  0.00000E+00  9.000E+00
#rwgt            1           1   4.2373350936714120E-002           2      101360           0
</event>
<event>
      5   9999  3.79277E-02  4.77682E+01 -1.00000E+00  1.40217E-01
      21    -1     0     0   502   501  0.000000000E+00  0.000000000E+00  5.711304690E+01  5.711304690E+01  0.000000000E+00  0.00000E+00  9.000E+00
       1    -1     0     0   501     0  0.000000000E+00  0.000000000E+00 -1.427124253E+03  1.427124253E+03  0.000000000E+00  0.00000E+00  9.000E+00
      25     1     1     2     0     0 -6.156421008E+01  4.295071812E+01 -5.851983813E+01  1.571129772E+02  1.250000000E+02  0.00000E+00  9.000E+00
      25     1     1     2     0     0  1.705868675E+01 -2.559960106E+01 -5.818088513E+02  5.958799189E+02  1.250000000E+02  0.00000E+00  9.000E+00
       1     1     1     2   502     0  4.450552333E+01 -1.735111705E+01 -7.296825169E+02  7.312444040E+02  1.078959322E-05  0.00000E+00  9.000E+00
#rwgt            1           1   3.8191119650469750E-002           2      101431           0
</event>
<event>
      5   9999  3.79277E-02  8.41670E+00 -1.00000E+00  2.04829E-01
      21    -1     0     0   511   501  0.000000000E+00  0.000000000E+00  5.909478148E+02  5.909478148E+02  0.000000000E+00  0.00000E+00  9.000E+00
      21    -1     0     0   501   502  0.000000000E+00  0.000000000E+00 -7.404530556E+02  7.404530556E+02  0.000000000E+00  0.00000E+00  9.000E+00
      25     1     1     2     0     0 -1.256939458E+02  1.381011631E+02 -2.697565369E+01  2.263262803E+02  1.250000000E+02  0.00000E+00  9.000E+00
      25     1     1     2     0     0  1.208213786E+02 -1.312383029E+02 -5.944386271E+02  6.330904983E+02  1.250000000E+02  0.00000E+00  9.000E+00
      21     1     1     2   511   502  4.872567244E+00 -6.862860188E+00  4.719090400E+02  4.719840917E+02  5.394796609E-06  0.00000E+00  9.000E+00
#rwgt            1           1   3.5077462510767175E-002           2      101521           0
</event>
<event>
      5   9999  3.79277E-02  1.47285E+01 -1.00000E+00  1.78134E-01
      21    -1     0     0   512   501  0.000000000E+00  0.000000000E+00  6.936907953E+02  6.936907953E+02  0.000000000E+00  0.00000E+00  9.000E+00
      21    -1     0     0   501   502  0.000000000E+00  0.000000000E+00 -1.386894709E+02  1.386894709E+02  0.000000000E+00  0.00000E+00  9.000E+00
      25     1     1     2     0     0  3.306001228E+01  3.434144826E+01 -7.951861223E+01  1.556293969E+02  1.250000000E+02  0.00000E+00  9.000E+00
      25     1     1     2     0     0 -4.406621428E+01 -2.455412147E+01  1.953968132E+02  2.373808137E+02  1.250000000E+02  0.00000E+00  9.000E+00
      21     1     1     2   512   502  1.100620200E+01 -9.787326787E+00  4.391231234E+02  4.393700556E+02  9.344061824E-06  0.00000E+00  9.000E+00
#rwgt            1           1   3.6578314772732795E-002           2      101901           0
</event>
<event>
      5   9999  3.79277E-02  1.81014E+02 -1.00000E+00  1.13248E-01
      21    -1     0     0   502   501  0.000000000E+00  0.000000000E+00  1.378375255E+03  1.378375255E+03  0.000000000E+00  0.00000E+00  9.000E+00
       2    -1     0     0   501     0  0.000000000E+00  0.000000000E+00 -1.468721104E+02  1.468721104E+02  0.000000000E+00  0.00000E+00  9.000E+00
      25     1     1     2     0     0  2.760119191E+02 -5.354166209E-01  5.530637482E+02  6.306245918E+02  1.250000000E+02  0.00000E+00  9.000E+00
      25     1     1     2     0     0 -1.015658563E+02 -4.778296806E+01  6.929536184E+02  7.130277361E+02  1.250000000E+02  0.00000E+00  9.000E+00
       2     1     1     2   502     0 -1.744460628E+02  4.831838468E+01 -1.451422162E+01  1.815950378E+02  3.329334269E-06  0.00000E+00  9.000E+00
#rwgt            1           1  0.10172544008114801                2      102142           0
</event>
<event>
      5   9999  3.79277E-02  4.31813E+01 -1.00000E+00  1.42809E-01
      21    -1     0     0   502   501  0.000000000E+00  0.000000000E+00  1.599018710E+02  1.599018710E+02  0.000000000E+00  0.00000E+00  9.000E+00
      21    -1     0     0   511   502  0.000000000E+00  0.000000000E+00 -1.267403573E+03  1.267403573E+03  0.000000000E+00  0.00000E+00  9.000E+00
      25     1     1     2     0     0 -2.420825794E+01 -1.772305505E+02  4.812683226E+01  2.234678942E+02  1.250000000E+02  0.00000E+00  9.000E+00
      25     1     1     2     0     0  3.598335509E+01  1.356857073E+02 -3.519325711E+02  3.989823901E+02  1.250000000E+02  0.00000E+00  9.000E+00
      21     1     1     2   511   501 -1.177509714E+01  4.154484315E+01 -8.036959635E+02  8.048551601E+02  1.078959322E-05  0.00000E+00  9.000E+00
#rwgt            1           1   2.8081934273652066E-002           2      102218           0
</event>
<event>
      5   9999  3.79277E-02  4.64765E+01 -1.00000E+00  1.40911E-01
      21    -1     0     0   502   501  0.000000000E+00  0.000000000E+00  2.256448966E+02  2.256448966E+02  0.000000000E+00  0.00000E+00  9.000E+00
      21    -1     0     0   501   512  0.000000000E+00  0.000000000E+00 -3.892954291E+02  3.892954291E+02  0.000000000E+00  0.00000E+00  9.000E+00
      25     1     1     2     0     0  1.218946908E+02 -1.936255046E+02 -1.485134139E+02  3.000506387E+02  1.250000000E+02  0.00000E+00  9.000E+00
      25     1     1     2     0     0 -7.547411813E+01  1.913460119E+02  3.867715230E+01  2.437838405E+02  1.250000000E+02  0.00000E+00  9.000E+00
      21     1     1     2   502   512 -4.642057269E+01  2.279492775E+00 -5.381427090E+01  7.110584652E+01  1.348699152E-06  0.00000E+00  9.000E+00
#rwgt            1           1  0.13775278645852237                2      102455           0
</event>
<event>
      5   9999  3.79277E-02  7.49760E+01 -1.00000E+00  1.29728E-01
      21    -1     0     0   502   501  0.000000000E+00  0.000000000E+00  9.690925754E+01  9.690925754E+01  0.000000000E+00  0.00000E+00  9.000E+00
      21    -1     0     0   501   511  0.000000000E+00  0.000000000E+00 -1.216413446E+03  1.216413446E+03  0.000000000E+00  0.00000E+00  9.000E+00
      25     1     1     2     0     0 -1.502612265E+01  1.915419952E+02 -1.873339124E+02  2.960289091E+02  1.250000000E+02  0.00000E+00  9.000E+00
      25     1     1     2     0     0 -1.352110714E+01 -2.608705777E+02 -4.929288948E+02  5.716993738E+02  1.250000000E+02  0.00000E+00  9.000E+00
      21     1     1     2   502   511  2.854722979E+01  6.932858245E+01 -4.392413810E+02  4.455944204E+02  0.000000000E+00  0.00000E+00  9.000E+00
#rwgt            1           1   3.4939105145936011E-002           2      102635           0
</event>
<event>
      5   9999  3.79277E-02  6.27429E+01 -1.00000E+00  1.33674E-01
      21    -1     0     0   502   501  0.000000000E+00  0.000000000E+00  6.248020231E+02  6.248020231E+02  0.000000000E+00  0.00000E+00  9.000E+00
       2    -1     0     0   501     0  0.000000000E+00  0.000000000E+00 -4.143802916E+02  4.143802916E+02  0.000000000E+00  0.00000E+00  9.000E+00
      25     1     1     2     0     0 -5.614260282E+01 -1.633601797E+02  2.768048973E+02  3.494059120E+02  1.250000000E+02  0.00000E+00  9.000E+00
      25     1     1     2     0     0  4.233805239E+01  2.245656215E+02  2.536961612E+02  3.636055160E+02  1.250000000E+02  0.00000E+00  9.000E+00
       2     1     1     2   502     0  1.380455043E+01 -6.120544185E+01 -3.200793271E+02  3.261708867E+02  0.000000000E+00  0.00000E+00  9.000E+00
#rwgt            1           1   4.2278665262755422E-002           2      102740           0
</event>
<event>
      5   9999  3.79277E-02  2.60268E+01 -1.00000E+00  1.57453E-01
      21    -1     0     0   502   501  0.000000000E+00  0.000000000E+00  1.502405717E+02  1.502405717E+02  0.000000000E+00  0.00000E+00  9.000E+00
      21    -1     0     0   501   511  0.000000000E+00  0.000000000E+00 -4.655279967E+02  4.655279967E+02  0.000000000E+00  0.00000E+00  9.000E+00
      25     1     1     2     0     0 -6.153823830E+01  9.794186651E+01  3.888118935E+01  1.746891836E+02  1.250000000E+02  0.00000E+00  9.000E+00
      25     1     1     2     0     0  7.346919625E+01 -1.210729621E+02 -1.670665558E+02  2.521757701E+02  1.250000000E+02  0.00000E+00  9.000E+00
      21     1     1     2   502   511 -1.193095795E+01  2.313109560E+01 -1.871020585E+02  1.889036147E+02  0.000000000E+00  0.00000E+00  9.000E+00
#rwgt            1           1   3.8678748628537513E-002           2      102818           0
</event>
<event>
      5   9999  3.79277E-02  8.82469E+01 -1.00000E+00  1.26320E-01
      21    -1     0     0   502   501  0.000000000E+00  0.000000000E+00  2.723934305E+02  2.723934305E+02  0.000000000E+00  0.00000E+00  9.000E+00
      21    -1     0     0   501   512  0.000000000E+00  0.000000000E+00 -3.540701782E+02  3.540701782E+02  0.000000000E+00  0.00000E+00  9.000E+00
      25     1     1     2     0     0 -1.761931980E+02 -1.950996565E+01  1.045692259E+02  2.407995116E+02  1.250000000E+02  0.00000E+00  9.000E+00
      25     1     1     2     0     0  1.759677694E+02  1.077565383E+02 -1.719743340E+02  2.962706515E+02  1.250000000E+02  0.00000E+00  9.000E+00
      21     1     1     2   502   512  2.254286579E-01 -8.824657269E+01 -1.427163961E+01  8.939344554E+01  2.185142372E-06  0.00000E+00  9.000E+00
#rwgt            1           1   3.7550293011977660E-002           2      102981           0
</event>
<event>
      5   9999  3.79277E-02  7.80421E+01 -1.00000E+00  1.28873E-01
      21    -1     0     0   502   501  0.000000000E+00  0.000000000E+00  9.323668917E+02  9.323668917E+02  0.000000000E+00  0.00000E+00  9.000E+00
      21    -1     0     0   501   511  0.000000000E+00  0.000000000E+00 -1.410638267E+02  1.410638267E+02  0.000000000E+00  0.00000E+00  9.000E+00
      25     1     1     2     0     0 -6.319227944E+01 -1.496300699E+02  2.709754099E+02  3.397574058E+02  1.250000000E+02  0.00000E+00  9.000E+00
      25     1     1     2     0     0  8.477050653E+01  2.246297063E+02  5.769247680E+02  6.372689634E+02  1.250000000E+02  0.00000E+00  9.000E+00
      21     1     1     2   502   511 -2.157822709E+01 -7.499963636E+01 -5.659711300E+01  9.640434917E+01  0.000000000E+00  0.00000E+00  9.000E+00
#rwgt            1           1   3.9509859186731250E-002           2      103079           0
</event>
<event>
      5   9999  4.08722E-02  1.89945E+02 -1.00000E+00  1.12470E-01
      21    -1     0     0   502   501  0.000000000E+00  0.000000000E+00  7.603684151E+02  7.603684151E+02  0.000000000E+00  0.00000E+00  9.000E+00
       3    -1     0     0   501     0  0.000000000E+00  0.000000000E+00 -6.189003049E+02  6.189003049E+02  0.000000000E+00  0.00000E+00  9.000E+00
      25     1     1     2     0     0  2.131787514E+02  1.184038113E+02  5.611062967E+02  6.244436875E+02  1.250000000E+02  0.00000E+00  9.000E+00
      25     1     1     2     0     0 -1.280039636E+02  5.137351630E+01  9.303341624E+01  2.080972595E+02  1.250000000E+02  0.00000E+00  9.000E+00
       3     1     1     2   502     0 -8.517478783E+01 -1.697773276E+02 -5.126716028E+02  5.467277730E+02  1.321449896E-05  0.00000E+00  9.000E+00
#rwgt            1           1  0.31211272426856057                2      103178           0
</event>
<event>
      5   9999  3.79277E-02  1.26474E+02 -1.00000E+00  1.19408E-01
      21    -1     0     0   502   501  0.000000000E+00  0.000000000E+00  3.463421030E+02  3.463421030E+02  0.000000000E+00  0.00000E+00  9.000E+00
      21    -1     0     0   501   511  0.000000000E+00  0.000000000E+00 -3.587346835E+02  3.587346835E+02  0.000000000E+00  0.00000E+00  9.000E+00
      25     1     1     2     0     0  3.042048272E+02  4.198716201E+01  8.303638314E+01  3.417945868E+02  1.250000000E+02  0.00000E+00  9.000E+00
      25     1     1     2     0     0 -1.805175935E+02 -1.558342652E+01 -8.644556388E+01  2.364894929E+02  1.250000000E+02  0.00000E+00  9.000E+00
      21     1     1     2   502   511 -1.236872337E+02 -2.640373549E+01 -8.983399823E+00  1.267927068E+02  2.503395081E-06  0.00000E+00  9.000E+00
#rwgt            1           1   3.0765560228938102E-002           2      103249           0
</event>
<event>
      5   9999  3.79277E-02  7.01169E+00 -1.00000E+00  2.15451E-01
      21    -1     0     0   502   512  0.000000000E+00  0.000000000E+00  5.056512860E+01  5.056512860E+01  0.000000000E+00  0.00000E+00  9.000E+00
      21    -1     0     0   501   502  0.000000000E+00  0.000000000E+00 -1.079677237E+03  1.079677237E+03  0.000000000E+00  0.00000E+00  9.000E+00
      25     1     1     2     0     0  7.091710371E+01  1.168585506E+02 -1.792274070E+02  2.577452615E+02  1.250000000E+02  0.00000E+00  9.000E+00
      25     1     1     2     0     0 -6.409362854E+01 -1.184722566E+02 -8.425237555E+02  8.623311124E+02  1.250000000E+02  0.00000E+00  9.000E+00
      21     1     1     2   501   512 -6.823475167E+00  1.613706073E+00 -7.360945825E+00  1.016599154E+01  1.460009660E-07  0.00000E+00  9.000E+00
#rwgt            1           1   5.3317776416036002E-002           2      103446           0
</event>
<event>
      5   9999  3.79277E-02  9.99451E+00 -1.00000E+00  1.95785E-01
      21    -1     0     0   502   501  0.000000000E+00  0.000000000E+00  1.753412783E+03  1.753412783E+03  0.000000000E+00  0.00000E+00  9.000E+00
       1    -1     0     0   501     0  0.000000000E+00  0.000000000E+00 -1.181747691E+02  1.181747691E+02  0.000000000E+00  0.00000E+00  9.000E+00
      25     1     1     2     0     0 -4.009744572E+02  8.003924308E+01  7.160473472E+02  8.339877692E+02  1.250000000E+02  0.00000E+00  9.000E+00
      25     1     1     2     0     0  3.910263443E+02 -7.907737930E+01  9.319301462E+02  1.021407671E+03  1.250000000E+02  0.00000E+00  9.000E+00
       1     1     1     2   502     0  9.948112905E+00 -9.618637740E-01 -1.273947958E+01  1.619211142E+01  0.000000000E+00  0.00000E+00  9.000E+00
#rwgt            1           1   4.3347618078108129E-002           2      103777           0
</event>
<event>
      5   9999  3.79277E-02  1.77426E+01 -1.00000E+00  1.70778E-01
      21    -1     0     0   511   501  0.000000000E+00  0.000000000E+00  1.337653047E+02  1.337653047E+02  0.000000000E+00  0.00000E+00  9.000E+00
      21    -1     0     0   501   502  0.000000000E+00  0.000000000E+00 -2.396822612E+02  2.396822612E+02  0.000000000E+00  0.00000E+00  9.000E+00
      25     1     1     2     0     0  6.353550697E+01  6.236667118E+01 -4.992771560E+01  1.613819665E+02  1.250000000E+02  0.00000E+00  9.000E+00
      25     1     1     2     0     0 -5.061711534E+01 -7.452864606E+01 -8.655043727E+01  1.767274445E+02  1.250000000E+02  0.00000E+00  9.000E+00
      21     1     1     2   511   502 -1.291839163E+01  1.216197488E+01  3.056119628E+01  3.533815493E+01  5.840038640E-07  0.00000E+00  9.000E+00
#rwgt            1           1   3.6225940109543366E-002           2      104112           0
</event>
<event>
      5   9999  3.79277E-02  6.64549E+01 -1.00000E+00  1.32374E-01
      21    -1     0     0   502   512  0.000000000E+00  0.000000000E+00  3.951482734E+02  3.951482734E+02  0.000000000E+00  0.00000E+00  9.000E+00
      21    -1     0     0   501   502  0.000000000E+00  0.000000000E+00 -1.460555094E+02  1.460555094E+02  0.000000000E+00  0.00000E+00  9.000E+00
      25     1     1     2     0     0  1.463754355E+02  8.918091597E+00  1.410828430E+02  2.388193230E+02  1.250000000E+02  0.00000E+00  9.000E+00
      25     1     1     2     0     0 -1.191571641E+02  5.170715055E+01  5.666914227E+00  1.803584572E+02  1.250000000E+02  0.00000E+00  9.000E+00
      21     1     1     2   501   512 -2.721827138E+01 -6.062524215E+01  1.023430067E+02  1.220260026E+02  1.907348633E-06  0.00000E+00  9.000E+00
#rwgt            1           1   3.6171380301616089E-002           2      104235           0
</event>
<event>
      5   9999  3.79277E-02  1.82436E+02 -1.00000E+00  1.13121E-01
      21    -1     0     0   511   501  0.000000000E+00  0.000000000E+00  1.047511314E+03  1.047511314E+03  0.000000000E+00  0.00000E+00  9.000E+00
      21    -1     0     0   501   502  0.000000000E+00  0.000000000E+00 -1.463114663E+02  1.463114663E+02  0.000000000E+00  0.00000E+00  9.000E+00
      25     1     1     2     0     0 -9.265685094E+01  1.457229649E+02 -2.548784595E+01  2.146977056E+02  1.250000000E+02  0.00000E+00  9.000E+00
      25     1     1     2     0     0  3.730846158E+01  2.811474043E+01  4.106610820E+02  4.317984301E+02  1.250000000E+02  0.00000E+00  9.000E+00
      21     1     1     2   511   502  5.534838936E+01 -1.738377053E+02  5.160266113E+02  5.473266443E+02  0.000000000E+00  0.00000E+00  9.000E+00
#rwgt            1           1   4.1792551356379111E-002           2      104304           0
</event>
<event>
      5   9999  3.79277E-02  4.61482E+01 -1.00000E+00  1.41091E-01
      21    -1     0     0   502   512  0.000000000E+00  0.000000000E+00  3.419686302E+02  3.419686302E+02  0.000000000E+00  0.00000E+00  9.000E+00
      21    -1     0     0   501   502  0.000000000E+00  0.000000000E+00 -5.236642110E+02  5.236642110E+02  0.000000000E+00  0.00000E+00  9.000E+00
      25     1     1     2     0     0  9.720568604E+01 -1.649321095E+02 -6.141813559E+01  2.367461373E+02  1.250000000E+02  0.00000E+00  9.000E+00
      25     1     1     2     0     0 -5.645889725E+01  1.865967424E+02 -3.361144308E+02  4.081713635E+02  1.250000000E+02  0.00000E+00  9.000E+00
      21     1     1     2   501   512 -4.074678880E+01 -2.166463292E+01  2.158369856E+02  2.207153404E+02  2.697398305E-06  0.00000E+00  9.000E+00
#rwgt            1           1   3.7343966155232736E-002           2      104359           0
</event>
<event>
      5   9999  3.79277E-02  2.78883E+01 -1.00000E+00  1.55275E-01
      21    -1     0     0   511   501  0.000000000E+00  0.000000000E+00  3.840325486E+02  3.840325486E+02  0.000000000E+00  0.00000E+00  9.000E+00
      21    -1     0     0   501   502  0.000000000E+00  0.000000000E+00 -4.348922905E+02  4.348922905E+02  0.000000000E+00  0.00000E+00  9.000E+00
      25     1     1     2     0     0  2.908275739E+02  1.020420185E+02 -2.109945573E+02  3.938742877E+02  1.250000000E+02  0.00000E+00  9.000E+00
      25     1     1     2     0     0 -2.753356496E+02 -1.252316528E+02  7.542344931E+01  3.358666157E+02  1.250000000E+02  0.00000E+00  9.000E+00
      21     1     1     2   511   502 -1.549192435E+01  2.318963435E+01  8.471136605E+01  8.918393577E+01  1.348699152E-06  0.00000E+00  9.000E+00
#rwgt            1           1   4.0401166626605076E-002           2      104464           0
</event>
<event>
      5   9999  3.79277E-02  1.18444E+02 -1.00000E+00  1.20609E-01
      21    -1     0     0   502   501  0.000000000E+00  0.000000000E+00  4.192058102E+02  4.192058102E+02  0.000000000E+00  0.00000E+00  9.000E+00
      21    -1     0     0   501   512  0.000000000E+00  0.000000000E+00 -4.358240420E+02  4.358240420E+02  0.000000000E+00  0.00000E+00  9.000E+00
      25     1     1     2     0     0 -1.705322665E+02 -1.810341519E+02  1.289244932E+02  3.067590961E+02  1.250000000E+02  0.00000E+00  9.000E+00
      25     1     1     2     0     0  2.543147169E+02  9.731103432E+01  6.510287192E+01  3.066085396E+02  1.250000000E+02  0.00000E+00  9.000E+00
      21     1     1     2   502   512 -8.378245042E+01  8.372311761E+01 -2.106455969E+02  2.416622166E+02  2.697398305E-06  0.00000E+00  9.000E+00
#rwgt            1           1   3.9556706407063644E-002           2      104666           0
</event>
<event>
      5   9999  3.79277E-02  9.17941E+01 -1.00000E+00  1.25524E-01
      21    -1     0     0   502   501  0.000000000E+00  0.000000000E+00  2.626003264E+02  2.626003264E+02  0.000000000E+00  0.00000E+00  9.000E+00
      21    -1     0     0   511   502  0.000000000E+00  0.000000000E+00 -5.998728481E+02  5.998728481E+02  0.000000000E+00  0.00000E+00  9.000E+00
      25     1     1     2     0     0  3.251873984E+02  1.127099601E+02 -2.821667088E+02  4.622698679E+02  1.250000000E+02  0.00000E+00  9.000E+00
      25     1     1     2     0     0 -2.430878357E+02 -7.165113824E+01  1.756743080E+01  2.831239942E+02  1.250000000E+02  0.00000E+00  9.000E+00
      21     1     1     2   511   501 -8.209956276E+01 -4.105882189E+01 -7.267324363E+01  1.170793124E+02  1.348699152E-06  0.00000E+00  9.000E+00
#rwgt            1           1   2.0209233241352254E-002           2      104741           0
</event>
<event>
      5   9999  3.79277E-02  2.64332E+02 -1.00000E+00  1.07409E-01
      21    -1     0     0   502   501  0.000000000E+00  0.000000000E+00  9.638979222E+02  9.638979222E+02  0.000000000E+00  0.00000E+00  9.000E+00
      21    -1     0     0   501   512  0.000000000E+00  0.000000000E+00 -3.054565736E+02  3.054565736E+02  0.000000000E+00  0.00000E+00  9.000E+00
      25     1     1     2     0     0 -1.038286962E+02 -1.213432151E+01  4.694321004E+02  4.969095862E+02  1.250000000E+02  0.00000E+00  9.000E+00
      25     1     1     2     0     0  1.182205929E+02  2.760740658E+02  3.379237137E+02  4.690526992E+02  1.250000000E+02  0.00000E+00  9.000E+00
      21     1     1     2   502   512 -1.439189670E+01 -2.639397443E+02 -1.489144655E+02  3.033922104E+02  7.629394531E-06  0.00000E+00  9.000E+00
#rwgt            1           1   1.5595591728071567E-002           2      104785           0
</event>
<event>
      5   9999  3.79277E-02  2.64531E+01 -1.00000E+00  1.56935E-01
      21    -1     0     0   511   501  0.000000000E+00  0.000000000E+00  4.203323339E+02  4.203323339E+02  0.000000000E+00  0.00000E+00  9.000E+00
      21    -1     0     0   501   502  0.000000000E+00  0.000000000E+00 -1.133452031E+02  1.133452031E+02  0.000000000E+00  0.00000E+00  9.000E+00
      25     1     1     2     0     0 -6.442122563E+01 -1.913603965E+01 -4.289949239E+01  1.482620949E+02  1.250000000E+02  0.00000E+00  9.000E+00
      25     1     1     2     0     0  4.038097860E+01  3.017372286E+01  3.019106225E+02  3.306298549E+02  1.250000000E+02  0.00000E+00  9.000E+00
      21     1     1     2   511   502  2.404024703E+01 -1.103768320E+01  4.797600064E+01  5.478558721E+01  0.000000000E+00  0.00000E+00  9.000E+00
#rwgt            1           1   1.0669604302758035E-002           2      104813           0
</event>
<event>
      5   9999  3.79277E-02  7.19978E+01 -1.00000E+00  1.30605E-01
      21    -1     0     0   512   501  0.000000000E+00  0.000000000E+00  1.551064078E+03  1.551064078E+03  0.000000000E+00  0.00000E+00  9.000E+00
      21    -1     0     0   501   502  0.000000000E+00  0.000000000E+00 -2.251468819E+02  2.251468819E+02  0.000000000E+00  0.00000E+00  9.000E+00
      25     1     1     2     0     0  8.712507040E+01 -6.941794442E+01 -1.712020981E+02  2.394677166E+02  1.250000000E+02  0.00000E+00  9.000E+00
      25     1     1     2     0     0 -6.558168155E+01  7.188507909E-01  2.465336225E+02  2.840867838E+02  1.250000000E+02  0.00000E+00  9.000E+00
      21     1     1     2   512   502 -2.154338885E+01  6.869909363E+01  1.250585672E+03  1.252656459E+03  1.525878906E-05  0.00000E+00  9.000E+00
#rwgt            1           1   1.6829481154850754E-002           2      105046           0
</event>
<event>
      5   9999  3.79277E-02  1.18672E+01 -1.00000E+00  1.87537E-01
      21    -1     0     0   502   501  0.000000000E+00  0.000000000E+00  9.484754357E+01  9.484754357E+01  0.000000000E+00  0.00000E+00  9.000E+00
      21    -1     0     0   501   511  0.000000000E+00  0.000000000E+00 -4.022474819E+02  4.022474819E+02  0.000000000E+00  0.00000E+00  9.000E+00
      25     1     1     2     0     0  3.915008888E+01 -7.406670664E+01 -2.549634346E+02  2.960573584E+02  1.250000000E+02  0.00000E+00  9.000E+00
      25     1     1     2     0     0 -2.752284095E+01  7.169217401E+01  5.834159415E-01  1.467058791E+02  1.250000000E+02  0.00000E+00  9.000E+00
      21     1     1     2   502   511 -1.162724793E+01  2.374532627E+00 -5.301991971E+01  5.433178798E+01  6.743495762E-07  0.00000E+00  9.000E+00
#rwgt            1           1   3.9430990312651779E-002           2      105145           0
</event>
<event>
      5   9999  3.79277E-02  2.28062E+01 -1.00000E+00  1.61798E-01
      21    -1     0     0   502   501  0.000000000E+00  0.000000000E+00  1.232295996E+02  1.232295996E+02  0.000000000E+00  0.00000E+00  9.000E+00
      21    -1     0     0   512   502  0.000000000E+00  0.000000000E+00 -2.732401841E+02  2.732401841E+02  0.000000000E+00  0.00000E+00  9.000E+00
      25     1     1     2     0     0  5.794336407E+01  3.691150532E-01  4.211351076E+01  1.440698354E+02  1.250000000E+02  0.00000E+00  9.000E+00
      25     1     1     2     0     0 -5.231698394E+01 -2.247042054E+01 -1.432300499E+02  1.984485672E+02  1.250000000E+02  0.00000E+00  9.000E+00
      21     1     1     2   512   501 -5.626380133E+00  2.210130549E+01 -4.889404539E+01  5.395138119E+01  6.743495762E-07  0.00000E+00  9.000E+00
#rwgt            1           1   4.7440084418935172E-002           2      105366           0
</event>
<event>
      5   9999  3.79277E-02  3.27747E+01 -1.00000E+00  1.50419E-01
      21    -1     0     0   502   511  0.000000000E+00  0.000000000E+00  1.354923053E+03  1.354923053E+03  0.000000000E+00  0.00000E+00  9.000E+00
      21    -1     0     0   501   502  0.000000000E+00  0.000000000E+00 -2.769673561E+01  2.769673561E+01  0.000000000E+00  0.00000E+00  9.000E+00
      25     1     1     2     0     0  2.086042706E+01 -1.217636160E+02  4.433876681E+02  4.769477538E+02  1.250000000E+02  0.00000E+00  9.000E+00
      25     1     1     2     0     0  7.700961952E+00  1.056879658E+02  7.678384393E+02  7.851306387E+02  1.250000000E+02  0.00000E+00  9.000E+00
      21     1     1     2   501   511 -2.856138902E+01  1.607565021E+01  1.160002096E+02  1.205413958E+02  1.907348633E-06  0.00000E+00  9.000E+00
#rwgt            1           1   3.4294173723441360E-002           2      105615           0
</event>
<event>
      5   9999  3.79277E-02  5.48389E+01 -1.00000E+00  1.36825E-01
      21    -1     0     0   502   501  0.000000000E+00  0.000000000E+00  1.571903498E+03  1.571903498E+03  0.000000000E+00  0.00000E+00  9.000E+00
      21    -1     0     0   512   502  0.000000000E+00  0.000000000E+00 -4.555737995E+01  4.555737995E+01  0.000000000E+00  0.00000E+00  9.000E+00
      25     1     1     2     0     0  4.314960791E+01 -1.650693403E+02  6.195377717E+02  6.546463369E+02  1.250000000E+02  0.00000E+00  9.000E+00
      25     1     1     2     0     0 -7.852724820E+01  1.231679150E+02  8.818490314E+02  9.025627835E+02  1.250000000E+02  0.00000E+00  9.000E+00
      21     1     1     2   512   501  3.537764028E+01  4.190142537E+01  2.495931477E+01  6.025175743E+01  1.617033478E-06  0.00000E+00  9.000E+00
#rwgt            1           1   4.6003115779022254E-002           2      105789           0
</event>
<event>
      5   9999  3.79277E-02  1.76359E+01 -1.00000E+00  1.71007E-01
      21    -1     0     0   502   501  0.000000000E+00  0.000000000E+00  1.465640054E+02  1.465640054E+02  0.000000000E+00  0.00000E+00  9.000E+00
      21    -1     0     0   511   502  0.000000000E+00  0.000000000E+00 -4.287188103E+02  4.287188103E+02  0.000000000E+00  0.00000E+00  9.000E+00
      25     1     1     2     0     0 -1.651479917E+02 -6.309753854E+01 -2.352046483E+02  3.196895136E+02  1.250000000E+02  0.00000E+00  9.000E+00
      25     1     1     2     0     0  1.775447677E+02  5.055388646E+01 -2.060684836E+01  2.238916751E+02  1.250000000E+02  0.00000E+00  9.000E+00
      21     1     1     2   511   501 -1.239677602E+01  1.254365208E+01 -2.634330830E+01  3.170162701E+01  5.840038640E-07  0.00000E+00  9.000E+00
#rwgt            1           1   2.7716518118730427E-002           2      106038           0
</event>
<event>
      5   9999  3.79277E-02  1.00838E+02 -1.00000E+00  1.23665E-01
      -1    -1     0     0     0   501  0.000000000E+00  0.000000000E+00  3.300757410E+02  3.300757410E+02  0.000000000E+00  0.00000E+00  9.000E+00
      21    -1     0     0   501   502  0.000000000E+00  0.000000000E+00 -6.772815337E+02  6.772815337E+02  0.000000000E+00  0.00000E+00  9.000E+00
      25     1     1     2     0     0 -1.509129959E+02  1.434469462E+02 -4.915138893E+02  5.482359548E+02  1.250000000E+02  0.00000E+00  9.000E+00
      25     1     1     2     0     0  6.043600897E+01 -9.892485930E+01 -9.801937877E+01  1.966505469E+02  1.250000000E+02  0.00000E+00  9.000E+00
      -1     1     1     2     0   502  9.047698694E+01 -4.452208693E+01  2.423274754E+02  2.624707730E+02  4.672030912E-06  0.00000E+00  9.000E+00
#rwgt            1           1   3.0576772561902027E-002           2      106246           0
</event>
<event>
      5   9999  3.79277E-02  2.48860E+01 -1.00000E+00  1.58900E-01
      21    -1     0     0   502   511  0.000000000E+00  0.000000000E+00  4.148415496E+02  4.148415496E+02  0.000000000E+00  0.00000E+00  9.000E+00
      21    -1     0     0   501   502  0.000000000E+00  0.000000000E+00 -9.501204415E+01  9.501204415E+01  0.000000000E+00  0.00000E+00  9.000E+00
      25     1     1     2     0     0 -8.928383047E+01  9.510226099E+01  8.263618001E+01  1.986700296E+02  1.250000000E+02  0.00000E+00  9.000E+00
      25     1     1     2     0     0  6.603907911E+01 -1.039902102E+02  1.963001354E+02  2.633132487E+02  1.250000000E+02  0.00000E+00  9.000E+00
      21     1     1     2   501   511  2.324475136E+01  8.887949184E+00  4.089319001E+01  4.787031539E+01  6.743495762E-07  0.00000E+00  9.000E+00
#rwgt            1           1   3.4000463991347048E-002           2      106328           0
</event>
<event>
      5   9999  3.79277E-02  1.50067E+02 -1.00000E+00  1.16386E-01
      21    -1     0     0   502   501  0.000000000E+00  0.000000000E+00  1.111722985E+02  1.111722985E+02  0.000000000E+00  0.00000E+00  9.000E+00
      21    -1     0     0   512   502  0.000000000E+00  0.000000000E+00 -1.284555982E+03  1.284555982E+03  0.000000000E+00  0.00000E+00  9.000E+00
      25     1     1     2     0     0  4.496290039E+01  1.915752898E+01  3.313100354E+01  1.382437584E+02  1.250000000E+02  0.00000E+00  9.000E+00
      25     1     1     2     0     0  1.036761850E+02 -3.981357055E+01 -9.091547744E+02  9.244031996E+02  1.250000000E+02  0.00000E+00  9.000E+00
      21     1     1     2   512   501 -1.486390854E+02  2.065604157E+01 -2.973599125E+02  3.330813224E+02  3.814697266E-06  0.00000E+00  9.000E+00
#rwgt            1           1   4.2394761540955977E-002           2      106469           0
</event>
<event>
      5   9999 -3.79277E-02  2.99128E+01 -1.00000E+00  1.53128E-01
      21    -1     0     0   502   511  0.000000000E+00  0.000000000E+00  6.428269618E+01  6.428269618E+01  0.000000000E+00  0.00000E+00  9.000E+00
      21    -1     0     0   501   502  0.000000000E+00  0.000000000E+00 -1.071232247E+03  1.071232247E+03  0.000000000E+00  0.00000E+00  9.000E+00
      25     1     1     2     0     0 -2.315624867E+01 -2.147074950E+02 -3.653371337E+02  4.424158016E+02  1.250000000E+02  0.00000E+00  9.000E+00
      25     1     1     2     0     0  9.592943865E+00  1.880464020E+02 -6.049090371E+02  6.457502746E+02  1.250000000E+02  0.00000E+00  9.000E+00
      21     1     1     2   501   511  1.356330480E+01  2.666109295E+01 -3.670338034E+01  4.734886738E+01  6.743495762E-07  0.00000E+00  9.000E+00
#rwgt            1           1  -2.8509412380928776E-002           2      106516           0
</event>
<event>
      5   9999 -3.79277E-02  8.73822E+01 -1.00000E+00  1.26521E-01
      21    -1     0     0   502   501  0.000000000E+00  0.000000000E+00  3.959429930E+02  3.959429930E+02  0.000000000E+00  0.00000E+00  9.000E+00
      21    -1     0     0   512   502  0.000000000E+00  0.000000000E+00 -3.216031304E+02  3.216031304E+02  0.000000000E+00  0.00000E+00  9.000E+00
      25     1     1     2     0     0  2.984913954E+01 -7.223074897E+01  2.194872162E+02  2.644010029E+02  1.250000000E+02  0.00000E+00  9.000E+00
      25     1     1     2     0     0  4.293659233E+01  2.387901518E+01  1.161862923E+02  1.775894503E+02  1.250000000E+02  0.00000E+00  9.000E+00
      21     1     1     2   512   501 -7.278573187E+01  4.835173379E+01 -2.613336459E+02  2.755556702E+02  5.394796609E-06  0.00000E+00  9.000E+00
#rwgt            1           1  -7.0487786554271584E-002           2      106666           0
</event>
<event>
      5   9999  3.79277E-02  1.66690E+02 -1.00000E+00  1.14606E-01
      21    -1     0     0   502   501  0.000000000E+00  0.000000000E+00  1.315690105E+02  1.315690105E+02  0.000000000E+00  0.00000E+00  9.000E+00
      21    -1     0     0   501   511  0.000000000E+00  0.000000000E+00 -8.759220603E+02  8.759220603E+02  0.000000000E+00  0.00000E+00  9.000E+00
      25     1     1     2     0     0 -1.833321042E+02  2.312995977E+01 -2.773417377E+02  3.559341161E+02  1.250000000E+02  0.00000E+00  9.000E+00
      25     1     1     2     0     0  9.770039653E+01  1.198834480E+02 -5.381692594E+01  2.060064807E+02  1.250000000E+02  0.00000E+00  9.000E+00
      21     1     1     2   502   511  8.563170770E+01 -1.430134078E+02 -4.131943861E+02  4.455504740E+02  0.000000000E+00  0.00000E+00  9.000E+00
#rwgt            1           1   3.7333546061939088E-002           2      106771           0
</event>
<event>
      5   9999  3.79277E-02  7.40879E+01 -1.00000E+00  1.29984E-01
      21    -1     0     0   502   501  0.000000000E+00  0.000000000E+00  1.420275476E+02  1.420275476E+02  0.000000000E+00  0.00000E+00  9.000E+00
      21    -1     0     0   512   502  0.000000000E+00  0.000000000E+00 -1.005625033E+03  1.005625033E+03  0.000000000E+00  0.00000E+00  9.000E+00
      25     1     1     2     0     0  7.034631874E+01 -3.202361866E+02 -2.290713428E+02  4.190447469E+02  1.250000000E+02  0.00000E+00  9.000E+00
      25     1     1     2     0     0 -6.622915558E+01  2.462627493E+02 -4.997035501E+02  5.747697632E+02  1.250000000E+02  0.00000E+00  9.000E+00
      21     1     1     2   512   501 -4.117163155E+00  7.397343731E+01 -1.348225923E+02  1.538380703E+02  2.697398305E-06  0.00000E+00  9.000E+00
#rwgt            1           1   3.6136010378016767E-002           2      106836           0
</event>
<event>
      5   9999  3.79277E-02  7.10561E+01 -1.00000E+00  1.30892E-01
      21    -1     0     0   502   511  0.000000000E+00  0.000000000E+00  9.720271278E+01  9.720271278E+01  0.000000000E+00  0.00000E+00  9.000E+00
      21    -1     0     0   501   502  0.000000000E+00  0.000000000E+00 -1.646991710E+03  1.646991710E+03  0.000000000E+00  0.00000E+00  9.000E+00
      25     1     1     2     0     0  5.486301443E+01 -1.212027763E+02 -4.288923299E+01  1.875221311E+02  1.250000000E+02  0.00000E+00  9.000E+00
      25     1     1     2     0     0 -8.303534622E+01  5.597017390E+01 -1.465924682E+03  1.474648331E+03  1.250000000E+02  0.00000E+00  9.000E+00
      21     1     1     2   501   511  2.817233179E+01  6.523260239E+01 -4.097508285E+01  8.202396057E+01  1.581489940E-06  0.00000E+00  9.000E+00
#rwgt            1           1   4.3631812843042753E-002           2      106915           0
</event>
<event>
      5   9999  3.79277E-02  4.94530E+01 -1.00000E+00  1.39349E-01
      21    -1     0     0   502   512  0.000000000E+00  0.000000000E+00  6.725117469E+02  6.725117469E+02  0.000000000E+00  0.00000E+00  9.000E+00
      21    -1     0     0   501   502  0.000000000E+00  0.000000000E+00 -9.000226117E+01  9.000226117E+01  0.000000000E+00  0.00000E+00  9.000E+00
      25     1     1     2     0     0  3.244267914E+01 -1.687616221E+02  1.281966586E+02  2.481781533E+02  1.250000000E+02  0.00000E+00  9.000E+00
      25     1     1     2     0     0 -6.876765987E+00  1.264297564E+02  2.688483029E+02  3.223913510E+02  1.250000000E+02  0.00000E+00  9.000E+00
      21     1     1     2   501   512 -2.556591316E+01  4.233186562E+01  1.854645244E+02  1.919445038E+02  0.000000000E+00  0.00000E+00  9.000E+00
#rwgt            1           1   2.8607865242280966E-002           2      107219           0
</event>
<event>
      5   9999  3.79277E-02  1.54801E+01 -1.00000E+00  1.76104E-01
      21    -1     0     0   502   501  0.000000000E+00  0.000000000E+00  1.985608288E+03  1.985608288E+03  0.000000000E+00  0.00000E+00  9.000E+00
      21    -1     0     0   511   502  0.000000000E+00  0.000000000E+00 -2.754245765E+01  2.754245765E+01  0.000000000E+00  0.00000E+00  9.000E+00
      25     1     1     2     0     0 -5.578651109E+01 -1.027546295E+02  1.602684702E+03  1.611798344E+03  1.250000000E+02  0.00000E+00  9.000E+00
      25     1     1     2     0     0  4.456595407E+01  9.209006222E+01  3.490765759E+02  3.846376992E+02  1.250000000E+02  0.00000E+00  9.000E+00
      21     1     1     2   511   501  1.122055702E+01  1.066456725E+01  6.304552885E+00  1.671470256E+01  2.795705652E-07  0.00000E+00  9.000E+00
#rwgt            1           1  0.12359500564151811                2      107393           0
</event>
<event>
      5   9999  3.79277E-02  2.49975E+01 -1.00000E+00  1.58754E-01
      21    -1     0     0   502   512  0.000000000E+00  0.000000000E+00  3.829441503E+02  3.829441503E+02  0.000000000E+00  0.00000E+00  9.000E+00
      21    -1     0     0   501   502  0.000000000E+00  0.000000000E+00 -5.751662531E+02  5.751662531E+02  0.000000000E+00  0.00000E+00  9.000E+00
      25     1     1     2     0     0 -1.068717385E+02  1.240877099E+02 -2.633648132E+02  3.343730747E+02  1.250000000E+02  0.00000E+00  9.000E+00
      25     1     1     2     0     0  1.113273801E+02 -1.486848684E+02 -2.303398510E+02  3.212202089E+02  1.250000000E+02  0.00000E+00  9.000E+00
      21     1     1     2   501   512 -4.455641585E+00  2.459715856E+01  3.014825614E+02  3.025171198E+02  0.000000000E+00  0.00000E+00  9.000E+00
#rwgt            1           1   3.1144890428036660E-002           2      107739           0
</event>
<event>
      5   9999  3.79277E-02  2.96492E+01 -1.00000E+00  1.53395E-01
      21    -1     0     0   502   501  0.000000000E+00  0.000000000E+00  3.039588171E+01  3.039588171E+01  0.000000000E+00  0.00000E+00  9.000E+00
       2    -1     0     0   501     0  0.000000000E+00  0.000000000E+00 -2.603011386E+03  2.603011386E+03  0.000000000E+00  0.00000E+00  9.000E+00
      25     1     1     2     0     0 -5.847267022E+01  4.256603831E+01 -1.259188100E+03  1.267442540E+03  1.250000000E+02  0.00000E+00  9.000E+00
      25     1     1     2     0     0  8.711717543E+01 -3.491315998E+01 -2.082365889E+02  2.603762815E+02  1.250000000E+02  0.00000E+00  9.000E+00
       2     1     1     2   502     0 -2.864450521E+01 -7.652878331E+00 -1.105190816E+03  1.105588447E+03  0.000000000E+00  0.00000E+00  9.000E+00
#rwgt            1           1   4.1971890828097248E-002           2      107982           0
</event>
<event>
      5   9999  3.79277E-02  9.59310E+00 -1.00000E+00  1.97866E-01
      21    -1     0     0   502   501  0.000000000E+00  0.000000000E+00  1.425053942E+02  1.425053942E+02  0.000000000E+00  0.00000E+00  9.000E+00
      -4    -1     0     0     0   502  0.000000000E+00  0.000000000E+00 -6.081653997E+02  6.081653997E+02  0.000000000E+00  0.00000E+00  9.000E+00
      25     1     1     2     0     0  9.186959791E+01 -4.841393461E+01  4.967161702E+01  1.699299904E+02  1.250000000E+02  0.00000E+00  9.000E+00
      25     1     1     2     0     0 -9.584747937E+01  3.968444571E+01 -1.694770041E+02  2.347531670E+02  1.250000000E+02  0.00000E+00  9.000E+00
      -4     1     1     2     0   501  3.977881464E+00  8.729488897E+00 -3.458546184E+02  3.459876365E+02  5.394796609E-06  0.00000E+00  9.000E+00
#rwgt            1           1   4.3680468092980797E-002           2      108130           0
</event>
<event>
      5   9999  3.79277E-02  3.97237E+01 -1.00000E+00  1.45027E-01
      21    -1     0     0   502   501  0.000000000E+00  0.000000000E+00  1.905368728E+02  1.905368728E+02  0.000000000E+00  0.00000E+00  9.000E+00
      21    -1     0     0   501   511  0.000000000E+00  0.000000000E+00 -3.938146817E+02  3.938146817E+02  0.000000000E+00  0.00000E+00  9.000E+00
      25     1     1     2     0     0 -1.333034294E+02  1.328605867E+02 -1.706998075E+01  2.265791783E+02  1.250000000E+02  0.00000E+00  9.000E+00
      25     1     1     2     0     0  1.538042361E+02 -1.668853617E+02 -1.326180481E+02  2.910653083E+02  1.250000000E+02  0.00000E+00  9.000E+00
      21     1     1     2   502   511 -2.050080669E+01  3.402477499E+01 -5.358978008E+01  6.670706796E+01  1.168007728E-06  0.00000E+00  9.000E+00
#rwgt            1           1   3.6987395270172016E-002           2      108426           0
</event>
<event>
      5   9999  3.79277E-02  1.28699E+01 -1.00000E+00  1.83888E-01
      21    -1     0     0   502   501  0.000000000E+00  0.000000000E+00  8.718887164E+01  8.718887164E+01  0.000000000E+00  0.00000E+00  9.000E+00
      21    -1     0     0   501   512  0.000000000E+00  0.000000000E+00 -7.898866589E+02  7.898866589E+02  0.000000000E+00  0.00000E+00  9.000E+00
      25     1     1     2     0     0  2.172585889E+02 -4.924497915E+01 -2.903533288E+02  3.867252487E+02  1.250000000E+02  0.00000E+00  9.000E+00
      25     1     1     2     0     0 -2.126589713E+02  3.722507008E+01 -3.712037352E+02  4.472435096E+02  1.250000000E+02  0.00000E+00  9.000E+00
      21     1     1     2   502   512 -4.599617670E+00  1.201990906E+01 -4.114072329E+01  4.310677220E+01  4.768371582E-07  0.00000E+00  9.000E+00
#rwgt            1           1   3.4777008350945368E-002           2      108573           0
</event>
<event>
      5   9999  3.79277E-02  1.93091E+02 -1.00000E+00  1.12207E-01
      21    -1     0     0   511   501  0.000000000E+00  0.000000000E+00  1.120079673E+03  1.120079673E+03  0.000000000E+00  0.00000E+00  9.000E+00
      21    -1     0     0   501   502  0.000000000E+00  0.000000000E+00 -8.937813776E+01  8.937813776E+01  0.000000000E+00  0.00000E+00  9.000E+00
      25     1     1     2     0     0 -8.593785743E+01  1.107242636E+02  5.155389173E+02  5.486807388E+02  1.250000000E+02  0.00000E+00  9.000E+00
      25     1     1     2     0     0 -1.071481615E+02 -1.093028843E+02  1.514167548E+02  2.489575921E+02  1.250000000E+02  0.00000E+00  9.000E+00
      21     1     1     2   511   502  1.930860189E+02 -1.421379238E+00  3.637458628E+02  4.118194795E+02  0.000000000E+00  0.00000E+00  9.000E+00
#rwgt            1           1   1.8239912883075315E-002           2      108840           0
</event>
<event>
      5   9999  3.79277E-02  4.26149E+01 -1.00000E+00  1.43155E-01
      21    -1     0     0   502   501  0.000000000E+00  0.000000000E+00  2.174032754E+02  2.174032754E+02  0.000000000E+00  0.00000E+00  9.000E+00
      21    -1     0     0   501   512  0.000000000E+00  0.000000000E+00 -7.259034110E+02  7.259034110E+02  0.000000000E+00  0.00000E+00  9.000E+00
      25     1     1     2     0     0  1.356128354E+01  2.168514474E+00  1.627644965E+02  2.056839619E+02  1.250000000E+02  0.00000E+00  9.000E+00
      25     1     1     2     0     0  1.544511769E+01 -3.338802955E+01 -9.866983618E+01  1.634443292E+02  1.250000000E+02  0.00000E+00  9.000E+00
      21     1     1     2   502   512 -2.900640123E+01  3.121951508E+01 -5.725947959E+02  5.741783954E+02  1.078959322E-05  0.00000E+00  9.000E+00
#rwgt            1           1   4.3807755040486160E-002           2      109038           0
</event>
<event>
      5   9999  3.79277E-02  1.27652E+01 -1.00000E+00  1.84249E-01
      21    -1     0     0   511   501  0.000000000E+00  0.000000000E+00  1.917176516E+02  1.917176516E+02  0.000000000E+00  0.00000E+00  9.000E+00
      21    -1     0     0   501   502  0.000000000E+00  0.000000000E+00 -2.724941518E+02  2.724941518E+02  0.000000000E+00  0.00000E+00  9.000E+00
      25     1     1     2     0     0  6.324770766E+01  1.402912000E+02 -1.517080551E+02  2.496442015E+02  1.250000000E+02  0.00000E+00  9.000E+00
      25     1     1     2     0     0 -5.378892447E+01 -1.317190129E+02  6.326073493E+01  1.996749041E+02  1.250000000E+02  0.00000E+00  9.000E+00
      21     1     1     2   511   502 -9.458783193E+00 -8.572187156E+00  7.670819992E+00  1.489269792E+01  1.460009660E-07  0.00000E+00  9.000E+00
#rwgt            1           1   4.5506220746232340E-002           2      109165           0
</event>
<event>
      5   9999  3.79277E-02  1.08364E+02 -1.00000E+00  1.22279E-01
      21    -1     0     0   512   501  0.000000000E+00  0.000000000E+00  1.435617975E+03  1.435617975E+03  0.000000000E+00  0.00000E+00  9.000E+00
      21    -1     0     0   501   502  0.000000000E+00  0.000000000E+00 -5.974723094E+01  5.974723094E+01  0.000000000E+00  0.00000E+00  9.000E+00
      25     1     1     2     0     0 -5.223789153E+00  4.390307925E+01  6.612185970E+02  6.743810505E+02  1.250000000E+02  0.00000E+00  9.000E+00
      25     1     1     2     0     0  6.770365054E+01  4.463457897E+01  6.534917560E+01  1.627007827E+02  1.250000000E+02  0.00000E+00  9.000E+00
      21     1     1     2   512   502 -6.247986139E+01 -8.853765822E+01  6.493029715E+02  6.582833727E+02  0.000000000E+00  0.00000E+00  9.000E+00
#rwgt            1           1   3.5420749527250522E-002           2      109453           0
</event>
<event>
      5   9999  3.79277E-02  4.27243E+01 -1.00000E+00  1.43088E-01
      21    -1     0     0   502   501  0.000000000E+00  0.000000000E+00  1.085317603E+03  1.085317603E+03  0.000000000E+00  0.00000E+00  9.000E+00
      21    -1     0     0   511   502  0.000000000E+00  0.000000000E+00 -3.244853579E+02  3.244853579E+02  0.000000000E+00  0.00000E+00  9.000E+00
      25     1     1     2     0     0  6.448310376E+01 -1.054822916E+01  9.735905800E+02  9.837545188E+02  1.250000000E+02  0.00000E+00  9.000E+00
      25     1     1     2     0     0 -2.256383973E+01  2.293303432E+00  6.660152971E+01  1.434404053E+02  1.250000000E+02  0.00000E+00  9.000E+00
      21     1     1     2   511   501 -4.191926403E+01  8.254925731E+00 -2.793598646E+02  2.826080368E+02  6.607249480E-06  0.00000E+00  9.000E+00
#rwgt            1           1   3.6406171880593662E-002           2      109519           0
</event>
<event>
      5   9999  3.79277E-02  1.23108E+02 -1.00000E+00  1.19899E-01
      21    -1     0     0   502   501  0.000000000E+00  0.000000000E+00  8.027964392E+02  8.027964392E+02  0.000000000E+00  0.00000E+00  9.000E+00
      21    -1     0     0   501   512  0.000000000E+00  0.000000000E+00 -1.409115647E+02  1.409115647E+02  0.000000000E+00  0.00000E+00  9.000E+00
      25     1     1     2     0     0 -1.451833397E+02 -1.672849203E+02  1.486166349E+02  2.945748646E+02  1.250000000E+02  0.00000E+00  9.000E+00
      25     1     1     2     0     0  8.410976653E+01  6.039490196E+01  4.995553410E+02  5.252642533E+02  1.250000000E+02  0.00000E+00  9.000E+00
      21     1     1     2   502   512  6.107357314E+01  1.068900183E+02  1.371289862E+01  1.238688861E+02  2.419684306E-06  0.00000E+00  9.000E+00
#rwgt            1           1   2.6651892501787410E-002           2      109631           0
</event>
<event>
      5   9999  3.79277E-02  1.38849E+01 -1.00000E+00  1.80604E-01
      21    -1     0     0   502   501  0.000000000E+00  0.000000000E+00  9.219033684E+02  9.219033684E+02  0.000000000E+00  0.00000E+00  9.000E+00
      21    -1     0     0   511   502  0.000000000E+00  0.000000000E+00 -9.161411500E+01  9.161411500E+01  0.000000000E+00  0.00000E+00  9.000E+00
      25     1     1     2     0     0 -1.571161968E+01 -1.321465295E+02  7.824268501E+02  8.034465359E+02  1.250000000E+02  0.00000E+00  9.000E+00
      25     1     1     2     0     0  2.586366983E+01  1.416188984E+02  4.425811936E+01  1.957258872E+02  1.250000000E+02  0.00000E+00  9.000E+00
      21     1     1     2   511   501 -1.015205014E+01 -9.472368844E+00  3.604283962E+00  1.434506035E+01  1.192092896E-07  0.00000E+00  9.000E+00
#rwgt            1           1   4.0560157007480106E-002           2      109787           0
</event>
<event>
      5   9999  3.79277E-02  1.32662E+02 -1.00000E+00  1.18548E-01
      21    -1     0     0   512   501  0.000000000E+00  0.000000000E+00  2.446300507E+02  2.446300507E+02  0.000000000E+00  0.00000E+00  9.000E+00
      21    -1     0     0   501   502  0.000000000E+00  0.000000000E+00 -5.296623164E+02  5.296623164E+02  0.000000000E+00  0.00000E+00  9.000E+00
      25     1     1     2     0     0 -1.548683957E+02  2.469436702E+02 -2.872581004E+02  4.279107529E+02  1.250000000E+02  0.00000E+00  9.000E+00
      25     1     1     2     0     0  1.270888765E+02 -1.172229011E+02 -6.343071496E+00  2.134432609E+02  1.250000000E+02  0.00000E+00  9.000E+00
      21     1     1     2   512   502  2.777951911E+01 -1.297207691E+02  8.568906271E+00  1.329383533E+02  2.109027626E-06  0.00000E+00  9.000E+00
#rwgt            1           1   4.5694951954849503E-002           2      110016           0
</event>
<event>
      5   9999 -3.79277E-02  1.92144E+02 -1.00000E+00  1.12285E-01
      21    -1     0     0   511   501  0.000000000E+00  0.000000000E+00  8.955691998E+02  8.955691998E+02  0.000000000E+00  0.00000E+00  9.000E+00
      21    -1     0     0   501   502  0.000000000E+00  0.000000000E+00 -1.678300606E+02  1.678300606E+02  0.000000000E+00  0.00000E+00  9.000E+00
      25     1     1     2     0     0  1.597426256E+02 -1.567547433E+02  2.056462979E+02  3.286413788E+02  1.250000000E+02  0.00000E+00  9.000E+00
      25     1     1     2     0     0  2.614112385E+01  1.081079866E+02 -1.141114990E+01  1.677078098E+02  1.250000000E+02  0.00000E+00  9.000E+00
      21     1     1     2   511   502 -1.858837495E+02  4.864675670E+01  5.335039912E+02  5.670500718E+02  0.000000000E+00  0.00000E+00  9.000E+00
#rwgt            1           1 -0.11611837500872987                2      110054           0
</event>
<event>
      5   9999  3.79277E-02  2.08210E+01 -1.00000E+00  1.64940E-01
      21    -1     0     0   512   501  0.000000000E+00  0.000000000E+00  8.373390978E+02  8.373390978E+02  0.000000000E+00  0.00000E+00  9.000E+00
      21    -1     0     0   501   502  0.000000000E+00  0.000000000E+00 -3.686395417E+02  3.686395417E+02  0.000000000E+00  0.00000E+00  9.000E+00
      25     1     1     2     0     0  4.603578004E+02  1.412039027E+02  4.740223255E+01  4.997397505E+02  1.250000000E+02  0.00000E+00  9.000E+00
      25     1     1     2     0     0 -4.768042227E+02 -1.539722676E+02  3.305597408E+02  6.131431058E+02  1.250000000E+02  0.00000E+00  9.000E+00
      21     1     1     2   512   502  1.644642226E+01  1.276836483E+01  9.073758274E+01  9.309578330E+01  1.907348633E-06  0.00000E+00  9.000E+00
#rwgt            1           1   7.6020370418779890E-002           2      110098           0
</event>
<event>
      5   9999  3.79277E-02  1.83292E+01 -1.00000E+00  1.69557E-01
      21    -1     0     0   511   501  0.000000000E+00  0.000000000E+00  1.074038263E+03  1.074038263E+03  0.000000000E+00  0.00000E+00  9.000E+00
      21    -1     0     0   501   502  0.000000000E+00  0.000000000E+00 -1.390409815E+02  1.390409815E+02  0.000000000E+00  0.00000E+00  9.000E+00
      25     1     1     2     0     0 -8.831408454E+01  2.651264287E+02  1.107022717E+02  3.255324772E+02  1.250000000E+02  0.00000E+00  9.000E+00
      25     1     1     2     0     0  7.070103574E+01 -2.701998361E+02  7.308563649E+02  7.923273402E+02  1.250000000E+02  0.00000E+00  9.000E+00
      21     1     1     2   511   502  1.761304880E+01  5.073407411E+00  9.343864508E+01  9.521942736E+01  0.000000000E+00  0.00000E+00  9.000E+00
#rwgt            1           1   3.4366796424707011E-002           2      110359           0
</event>
<event>
      5   9999  3.79277E-02  1.58902E+01 -1.00000E+00  1.75057E-01
       2    -1     0     0   502     0  0.000000000E+00  0.000000000E+00  2.190775537E+03  2.190775537E+03  0.000000000E+00  0.00000E+00  9.000E+00
      21    -1     0     0   501   502  0.000000000E+00  0.000000000E+00 -1.652346962E+02  1.652346962E+02  0.000000000E+00  0.00000E+00  9.000E+00
      25     1     1     2     0     0 -6.567072216E+01 -1.482196552E+02  2.496938945E+02  3.228834943E+02  1.250000000E+02  0.00000E+00  9.000E+00
      25     1     1     2     0     0  5.074621834E+01  1.427644885E+02 -5.360488625E+01  2.036058979E+02  1.250000000E+02  0.00000E+00  9.000E+00
       2     1     1     2   501     0  1.492450382E+01  5.455166721E+00  1.829451833E+03  1.829520841E+03  3.051757812E-05  0.00000E+00  9.000E+00
#rwgt            1           1   4.1454586290957059E-002           2      110509           0
</event>
<event>
      5   9999  3.79277E-02  2.68548E+01 -1.00000E+00  1.56457E-01
      21    -1     0     0   502   501  0.000000000E+00  0.000000000E+00  1.094255614E+02  1.094255614E+02  0.000000000E+00  0.00000E+00  9.000E+00
      21    -1     0     0   501   511  0.000000000E+00  0.000000000E+00 -5.233900370E+02  5.233900370E+02  0.000000000E+00  0.00000E+00  9.000E+00
      25     1     1     2     0     0 -1.592373001E+02 -6.916359539E+01 -7.818135525E+01  2.277662068E+02  1.250000000E+02  0.00000E+00  9.000E+00
      25     1     1     2     0     0  1.341423971E+02  7.872519070E+01 -2.913450733E+02  3.531271585E+02  1.250000000E+02  0.00000E+00  9.000E+00
      21     1     1     2   502   511  2.509490295E+01 -9.561595306E+00 -4.443804702E+01  5.192223302E+01  1.066240300E-06  0.00000E+00  9.000E+00
#rwgt            1           1   4.0157912025486117E-002           2      110827           0
</event>
<event>
      5   9999  3.79277E-02  6.43776E+01 -1.00000E+00  1.33089E-01
      21    -1     0     0   502   501  0.000000000E+00  0.000000000E+00  1.969411186E+02  1.969411186E+02  0.000000000E+00  0.00000E+00  9.000E+00
      21    -1     0     0   501   512  0.000000000E+00  0.000000000E+00 -4.789821806E+02  4.789821806E+02  0.000000000E+00  0.00000E+00  9.000E+00
      25     1     1     2     0     0 -1.673202929E+02 -7.953873889E+01 -2.182133847E+02  3.123532818E+02  1.250000000E+02  0.00000E+00  9.000E+00
      25     1     1     2     0     0  2.287622513E+02  9.875764014E+01 -8.840735659E+00  2.789057147E+02  1.250000000E+02  0.00000E+00  9.000E+00
      21     1     1     2   502   512 -6.144195834E+01 -1.921890125E+01 -5.498694165E+01  8.466430276E+01  6.743495762E-07  0.00000E+00  9.000E+00
#rwgt            1           1   2.1797861774658488E-002           2      110933           0
</event>
<event>
      5   9999  3.79277E-02  3.51519E+01 -1.00000E+00  1.48408E-01
      21    -1     0     0   502   511  0.000000000E+00  0.000000000E+00  3.188538472E+02  3.188538472E+02  0.000000000E+00  0.00000E+00  9.000E+00
      21    -1     0     0   501   502  0.000000000E+00  0.000000000E+00 -2.001331222E+02  2.001331222E+02  0.000000000E+00  0.00000E+00  9.000E+00
      25     1     1     2     0     0  2.352234662E+00 -1.683111605E+02 -2.860969323E+01  2.116074061E+02  1.250000000E+02  0.00000E+00  9.000E+00
      25     1     1     2     0     0 -3.361931976E+01  1.522480199E+02  5.304873231E+01  2.067580379E+02  1.250000000E+02  0.00000E+00  9.000E+00
      21     1     1     2   501   511  3.126708509E+01  1.606314062E+01  9.428168589E+01  1.006215255E+02  0.000000000E+00  0.00000E+00  9.000E+00
#rwgt            1           1   3.7808038751138709E-002           2      111307           0
</event>
<event>
      5   9999  3.79277E-02  7.22246E+01 -1.00000E+00  1.30536E-01
      21    -1     0     0   502   501  0.000000000E+00  0.000000000E+00  3.472039946E+02  3.472039946E+02  0.000000000E+00  0.00000E+00  9.000E+00
      21    -1     0     0   512   502  0.000000000E+00  0.000000000E+00 -2.556641564E+02  2.556641564E+02  0.000000000E+00  0.00000E+00  9.000E+00
      25     1     1     2     0     0  1.589017107E+02 -2.559187664E+00 -1.088032230E+02  2.296071524E+02  1.250000000E+02  0.00000E+00  9.000E+00
      25     1     1     2     0     0 -1.756562890E+02 -6.769517182E+01  1.988747553E+02  3.010214884E+02  1.250000000E+02  0.00000E+00  9.000E+00
      21     1     1     2   512   501  1.675457829E+01  7.025435949E+01  1.468305834E+00  7.223951026E+01  1.873165462E-06  0.00000E+00  9.000E+00
#rwgt            1           1   3.3256482271032707E-002           2      111471           0
</event>
<event>
      5   9999  3.79277E-02  1.80785E+01 -1.00000E+00  1.70072E-01
      21    -1     0     0   511   501  0.000000000E+00  0.000000000E+00  4.475790946E+02  4.475790946E+02  0.000000000E+00  0.00000E+00  9.000E+00
      21    -1     0     0   501   502  0.000000000E+00  0.000000000E+00 -1.329341091E+02  1.329341091E+02  0.000000000E+00  0.00000E+00  9.000E+00
      25     1     1     2     0     0  1.397319450E+01 -9.086941694E+01 -5.168494508E+01  1.635507097E+02  1.250000000E+02  0.00000E+00  9.000E+00
      25     1     1     2     0     0 -2.794144509E+01  1.023462927E+02  2.482319856E+02  2.974888345E+02  1.250000000E+02  0.00000E+00  9.000E+00
      21     1     1     2   511   502  1.396825059E+01 -1.147687577E+01  1.180979450E+02  1.194736595E+02  1.907348633E-06  0.00000E+00  9.000E+00
#rwgt            1           1   4.2534321781304368E-002           2      111573           0
</event>
<event>
      5   9999  3.79277E-02  1.38635E+02 -1.00000E+00  1.17766E-01
      21    -1     0     0   502   501  0.000000000E+00  0.000000000E+00  1.973135702E+03  1.973135702E+03  0.000000000E+00  0.00000E+00  9.000E+00
      21    -1     0     0   512   502  0.000000000E+00  0.000000000E+00 -3.467302607E+01  3.467302607E+01  0.000000000E+00  0.00000E+00  9.000E+00
      25     1     1     2     0     0 -2.705009246E+01 -1.106745011E+02  1.273284681E+03  1.284468540E+03  1.250000000E+02  0.00000E+00  9.000E+00
      25     1     1     2     0     0  6.988541042E+01 -2.117733692E+01  3.665079135E+02  3.940628134E+02  1.250000000E+02  0.00000E+00  9.000E+00
      21     1     1     2   512   501 -4.283531796E+01  1.318518380E+02  2.986700816E+02  3.292773744E+02  0.000000000E+00  0.00000E+00  9.000E+00
#rwgt            2          11   1.9068956376462817E-003           2      111835           0
</event>
<event>
      5   9999 -3.79277E-02  2.43555E+01 -1.00000E+00  1.59605E-01
      21    -1     0     0   502   501  0.000000000E+00  0.000000000E+00  3.225772262E+03  3.225772262E+03  0.000000000E+00  0.00000E+00  9.000E+00
      21    -1     0     0   501   511  0.000000000E+00  0.000000000E+00 -2.646557674E+02  2.646557674E+02  0.000000000E+00  0.00000E+00  9.000E+00
      25     1     1     2     0     0 -6.421909045E+01  1.038604194E+02  1.329344771E+03  1.340780966E+03  1.250000000E+02  0.00000E+00  9.000E+00
      25     1     1     2     0     0  5.425404352E+01 -1.260840529E+02  1.885567765E+03  1.894685062E+03  1.250000000E+02  0.00000E+00  9.000E+00
      21     1     1     2   502   511  9.965046930E+00  2.222363354E+01 -2.537960407E+02  2.549620017E+02  3.814697266E-06  0.00000E+00  9.000E+00
#rwgt            1           1  -4.4102873849321426E-002           2      112110           0
</event>
<event>
      5   9999  3.79277E-02  3.72566E+01 -1.00000E+00  1.46780E-01
      21    -1     0     0   502   512  0.000000000E+00  0.000000000E+00  9.368782145E+02  9.368782145E+02  0.000000000E+00  0.00000E+00  9.000E+00
      21    -1     0     0   501   502  0.000000000E+00  0.000000000E+00 -1.424063458E+02  1.424063458E+02  0.000000000E+00  0.00000E+00  9.000E+00
      25     1     1     2     0     0  1.439288014E+02  4.267075469E+01 -8.569875409E+00  1.955370449E+02  1.250000000E+02  0.00000E+00  9.000E+00
      25     1     1     2     0     0 -1.789568707E+02 -2.997877552E+01  2.659602970E+02  3.453754017E+02  1.250000000E+02  0.00000E+00  9.000E+00
      21     1     1     2   501   512  3.502806936E+01 -1.269197917E+01  5.370814472E+02  5.383721137E+02  7.629394531E-06  0.00000E+00  9.000E+00
#rwgt            1           1   3.7634317909719092E-002           2      112232           0
</event>
<event>
      5   9999  3.79277E-02  2.93565E+01 -1.00000E+00  1.53697E-01
      21    -1     0     0   502   501  0.000000000E+00  0.000000000E+00  2.603432471E+02  2.603432471E+02  0.000000000E+00  0.00000E+00  9.000E+00
      21    -1     0     0   501   511  0.000000000E+00  0.000000000E+00 -2.337761450E+02  2.337761450E+02  0.000000000E+00  0.00000E+00  9.000E+00
      25     1     1     2     0     0 -5.078990450E+01  1.710976399E+02 -5.320640672E+01  2.242987706E+02  1.250000000E+02  0.00000E+00  9.000E+00
      25     1     1     2     0     0  7.931250482E+01 -1.641502653E+02  9.009791851E+01  2.387015248E+02  1.250000000E+02  0.00000E+00  9.000E+00
      21     1     1     2   502   511 -2.852260032E+01 -6.947374569E+00 -1.032440968E+01  3.111909668E+01  4.915124924E-07  0.00000E+00  9.000E+00
#rwgt            1           1   3.0516829145863626E-002           2      112352           0
</event>
<event>
      5   9999  3.79277E-02  1.31164E+02 -1.00000E+00  1.18751E-01
      21    -1     0     0   502   512  0.000000000E+00  0.000000000E+00  8.890372414E+02  8.890372414E+02  0.000000000E+00  0.00000E+00  9.000E+00
      21    -1     0     0   501   502  0.000000000E+00  0.000000000E+00 -1.342918399E+02  1.342918399E+02  0.000000000E+00  0.00000E+00  9.000E+00
      25     1     1     2     0     0  8.007737547E+01  6.672901890E+01  1.916401656E+02  2.514281231E+02  1.250000000E+02  0.00000E+00  9.000E+00
      25     1     1     2     0     0 -1.992602022E+02 -1.214967015E+02  8.794871790E+01  2.789732131E+02  1.250000000E+02  0.00000E+00  9.000E+00
      21     1     1     2   501   512  1.191828267E+02  5.476768261E+01  4.751565181E+02  4.929277451E+02  5.394796609E-06  0.00000E+00  9.000E+00
#rwgt            1           1   4.4782425628479131E-002           2      112502           0
</event>
<event>
      5   9999  3.79277E-02  1.12463E+01 -1.00000E+00  1.90040E-01
       2    -1     0     0   502     0  0.000000000E+00  0.000000000E+00  1.227468555E+03  1.227468555E+03  0.000000000E+00  0.00000E+00  9.000E+00
      21    -1     0     0   501   502  0.000000000E+00  0.000000000E+00 -1.299445624E+02  1.299445624E+02  0.000000000E+00  0.00000E+00  9.000E+00
      25     1     1     2     0     0  2.774685312E+01 -1.520294538E+01  9.319069999E+01  1.590928156E+02  1.250000000E+02  0.00000E+00  9.000E+00
      25     1     1     2     0     0 -2.481013482E+01  2.605903197E+01 -5.333998672E+01  1.405872331E+02  1.250000000E+02  0.00000E+00  9.000E+00
       2     1     1     2   501     0 -2.936718304E+00 -1.085608658E+01  1.057673280E+03  1.057733069E+03  3.051757812E-05  0.00000E+00  9.000E+00
#rwgt            1           1   7.6702648270625090E-002           2      112553           0
</event>
<event>
      5   9999  3.79277E-02  8.65658E+00 -1.00000E+00  2.03290E-01
      21    -1     0     0   502   511  0.000000000E+00  0.000000000E+00  2.084959528E+02  2.084959528E+02  0.000000000E+00  0.00000E+00  9.000E+00
      21    -1     0     0   501   502  0.000000000E+00  0.000000000E+00 -1.644971301E+02  1.644971301E+02  0.000000000E+00  0.00000E+00  9.000E+00
      25     1     1     2     0     0  6.723887358E+01  5.294364049E+01  1.209848282E+02  1.938721843E+02  1.250000000E+02  0.00000E+00  9.000E+00
      25     1     1     2     0     0 -6.977940547E+01 -4.466825572E+01 -7.998216350E+01  1.699604806E+02  1.250000000E+02  0.00000E+00  9.000E+00
      21     1     1     2   501   511  2.540531889E+00 -8.275384775E+00  2.996158059E+00  9.160418034E+00  2.230201594E-07  0.00000E+00  9.000E+00
#rwgt            1           1   3.4633558087840154E-002           2      112751           0
</event>
<event>
      5   9999  3.79277E-02  1.43037E+01 -1.00000E+00  1.79351E-01
      21    -1     0     0   502   501  0.000000000E+00  0.000000000E+00  1.986950765E+02  1.986950765E+02  0.000000000E+00  0.00000E+00  9.000E+00
      21    -1     0     0   501   512  0.000000000E+00  0.000000000E+00 -3.887293265E+02  3.887293265E+02  0.000000000E+00  0.00000E+00  9.000E+00
      25     1     1     2     0     0 -2.388053943E+01  7.205350482E+01  1.505851258E+02  2.099115715E+02  1.250000000E+02  0.00000E+00  9.000E+00
      25     1     1     2     0     0  3.753263732E+01 -6.778553934E+01 -3.223218955E+02  3.542879938E+02  1.250000000E+02  0.00000E+00  9.000E+00
      21     1     1     2   502   512 -1.365209789E+01 -4.267965484E+00 -1.829748027E+01  2.322483779E+01  4.129530925E-07  0.00000E+00  9.000E+00
#rwgt            1           1   6.0923746908034093E-002           2      112998           0
</event>
<event>
      5   9999  3.79277E-02  2.72406E+01 -1.00000E+00  1.56009E-01
      21    -1     0     0   502   501  0.000000000E+00  0.000000000E+00  1.126825137E+03  1.126825137E+03  0.000000000E+00  0.00000E+00  9.000E+00
      21    -1     0     0   501   511  0.000000000E+00  0.000000000E+00 -8.921304345E+01  8.921304345E+01  0.000000000E+00  0.00000E+00  9.000E+00
      25     1     1     2     0     0 -1.461046659E+02 -1.166458516E+01  2.780432458E+02  3.382538729E+02  1.250000000E+02  0.00000E+00  9.000E+00
      25     1     1     2     0     0  1.733360823E+02  1.237161176E+01  8.004941894E+02  8.286219895E+02  1.250000000E+02  0.00000E+00  9.000E+00
      21     1     1     2   502   511 -2.723141637E+01 -7.070265916E-01 -4.092534170E+01  4.916231807E+01  1.066240300E-06  0.00000E+00  9.000E+00
#rwgt            1           1   4.3057296692311439E-002           2      113321           0
</event>
<event>
      5   9999  3.79277E-02  2.60121E+02 -1.00000E+00  1.07645E-01
      21    -1     0     0   502   501  0.000000000E+00  0.000000000E+00  3.368612808E+02  3.368612808E+02  0.000000000E+00  0.00000E+00  9.000E+00
      21    -1     0     0   512   502  0.000000000E+00  0.000000000E+00 -5.600342099E+02  5.600342099E+02  0.000000000E+00  0.00000E+00  9.000E+00
      25     1     1     2     0     0 -1.610016722E+02  2.274874620E+01 -5.504468530E+01  2.123533878E+02  1.250000000E+02  0.00000E+00  9.000E+00
      25     1     1     2     0     0  1.257576859E+02  2.349738361E+02  1.000771671E+02  3.109150022E+02  1.250000000E+02  0.00000E+00  9.000E+00
      21     1     1     2   512   501  3.524398630E+01 -2.577225823E+02 -2.682054109E+02  3.736271008E+02  6.607249480E-06  0.00000E+00  9.000E+00
#rwgt            1           1   4.0053126736182165E-002           2      113475           0
</event>
<event>
      5   9999  3.79277E-02  2.79834E+02 -1.00000E+00  1.06583E-01
      21    -1     0     0   502   501  0.000000000E+00  0.000000000E+00  3.680013628E+02  3.680013628E+02  0.000000000E+00  0.00000E+00  9.000E+00
      -1    -1     0     0     0   502  0.000000000E+00  0.000000000E+00 -8.888293471E+02  8.888293471E+02  0.000000000E+00  0.00000E+00  9.000E+00
      25     1     1     2     0     0  3.584775681E+01  1.942857155E+02 -1.218986689E+02  2.636594137E+02  1.250000000E+02  0.00000E+00  9.000E+00
      25     1     1     2     0     0  2.377339199E+02 -2.531077560E+02  1.328621295E+02  3.922477511E+02  1.250000000E+02  0.00000E+00  9.000E+00
      -1     1     1     2     0   501 -2.735816767E+02  5.882204042E+01 -5.317914449E+02  6.009235452E+02  7.629394531E-06  0.00000E+00  9.000E+00
#rwgt            2          10   6.1248100773918636E-005           2      113575           0
</event>
<event>
      5   9999 -3.79277E-02  1.44698E+02 -1.00000E+00  1.17016E-01
      21    -1     0     0   502   511  0.000000000E+00  0.000000000E+00  6.343347600E+02  6.343347600E+02  0.000000000E+00  0.00000E+00  9.000E+00
      21    -1     0     0   501   502  0.000000000E+00  0.000000000E+00 -1.929410952E+02  1.929410952E+02  0.000000000E+00  0.00000E+00  9.000E+00
      25     1     1     2     0     0  8.390239018E+00  1.513173508E+02  1.466964746E+02  2.451778791E+02  1.250000000E+02  0.00000E+00  9.000E+00
      25     1     1     2     0     0 -1.451745645E+02 -1.985154777E+02  2.623502175E+01  2.771233036E+02  1.250000000E+02  0.00000E+00  9.000E+00
      21     1     1     2   501   511  1.367843255E+02  4.719812689E+01  2.684621685E+02  3.049746724E+02  0.000000000E+00  0.00000E+00  9.000E+00
#rwgt            1           1 -0.18084908375645073                2      113744           0
</event>
<event>
      5   9999  3.79277E-02  4.74889E+01 -1.00000E+00  1.40364E-01
      21    -1     0     0   502   501  0.000000000E+00  0.000000000E+00  5.558728123E+02  5.558728123E+02  0.000000000E+00  0.00000E+00  9.000E+00
      21    -1     0     0   512   502  0.000000000E+00  0.000000000E+00 -8.436681216E+02  8.436681216E+02  0.000000000E+00  0.00000E+00  9.000E+00
      25     1     1     2     0     0  7.077809822E+01 -1.316735751E+02  4.978525527E+01  2.011244421E+02  1.250000000E+02  0.00000E+00  9.000E+00
      25     1     1     2     0     0 -1.163408145E+02  1.182857352E+02  4.045509307E+02  4.547671446E+02  1.250000000E+02  0.00000E+00  9.000E+00
      21     1     1     2   512   501  4.556271629E+01  1.338783989E+01 -7.421314953E+02  7.436493472E+02  0.000000000E+00  0.00000E+00  9.000E+00
#rwgt            1           1   3.9005420886438311E-002           2      113794           0
</event>
<event>
      5   9999  3.79277E-02  5.62049E+01 -1.00000E+00  1.36238E-01
      21    -1     0     0   511   501  0.000000000E+00  0.000000000E+00  6.305272974E+02  6.305272974E+02  0.000000000E+00  0.00000E+00  9.000E+00
      21    -1     0     0   501   502  0.000000000E+00  0.000000000E+00 -6.892721599E+01  6.892721599E+01  0.000000000E+00  0.00000E+00  9.000E+00
      25     1     1     2     0     0  5.587183785E+01 -1.169855681E+02  3.066843026E+02  3.556508778E+02  1.250000000E+02  0.00000E+00  9.000E+00
      25     1     1     2     0     0 -8.298908663E+01  6.775505795E+01  1.409224529E+02  2.167073467E+02  1.250000000E+02  0.00000E+00  9.000E+00
      21     1     1     2   511   502  2.711724878E+01  4.923051012E+01  1.139933259E+02  1.270962889E+02  1.348699152E-06  0.00000E+00  9.000E+00
#rwgt            1           1   4.0500936023809948E-002           2      113947           0
</event>
<event>
      5   9999  3.79277E-02  1.60435E+02 -1.00000E+00  1.15248E-01
      21    -1     0     0   512   501  0.000000000E+00  0.000000000E+00  5.652889258E+02  5.652889258E+02  0.000000000E+00  0.00000E+00  9.000E+00
      21    -1     0     0   501   502  0.000000000E+00  0.000000000E+00 -1.984502762E+02  1.984502762E+02  0.000000000E+00  0.00000E+00  9.000E+00
      25     1     1     2     0     0 -6.161564592E+01  6.084963924E+01  9.567977692E+01  1.796629793E+02  1.250000000E+02  0.00000E+00  9.000E+00
      25     1     1     2     0     0 -6.346759469E+01 -1.613166867E+02 -5.492224865E+01  2.206641393E+02  1.250000000E+02  0.00000E+00  9.000E+00
      21     1     1     2   512   502  1.250832406E+02  1.004670474E+02  3.260811213E+02  3.634120834E+02  5.394796609E-06  0.00000E+00  9.000E+00
#rwgt            1           1   3.5508820257610291E-002           2      114047           0
</event>
<event>
      5   9999  3.79277E-02  4.37521E+01 -1.00000E+00  1.42466E-01
      21    -1     0     0   502   501  0.000000000E+00  0.000000000E+00  4.731858481E+02  4.731858481E+02  0.000000000E+00  0.00000E+00  9.000E+00
      21    -1     0     0   501   511  0.000000000E+00  0.000000000E+00 -1.695234301E+02  1.695234301E+02  0.000000000E+00  0.00000E+00  9.000E+00
      25     1     1     2     0     0 -5.455935722E+00 -1.081468276E+02  1.839415363E+02  2.473560032E+02  1.250000000E+02  0.00000E+00  9.000E+00
      25     1     1     2     0     0  4.823389374E+01  1.173277368E+02  2.217067975E+02  2.843786391E+02  1.250000000E+02  0.00000E+00  9.000E+00
      21     1     1     2   502   511 -4.277795801E+01 -9.180909206E+00 -1.019859158E+02  1.109746359E+02  2.336015456E-06  0.00000E+00  9.000E+00
#rwgt            1           1   4.9897495773298613E-002           2      114105           0
</event>
<event>
      5   9999  3.79277E-02  4.37783E+01 -1.00000E+00  1.42450E-01
      21    -1     0     0   512   501  0.000000000E+00  0.000000000E+00  1.118775963E+02  1.118775963E+02  0.000000000E+00  0.00000E+00  9.000E+00
      21    -1     0     0   501   502  0.000000000E+00  0.000000000E+00 -1.021169871E+03  1.021169871E+03  0.000000000E+00  0.00000E+00  9.000E+00
      25     1     1     2     0     0  9.375650156E+01  1.699843892E+02 -1.274035933E+02  2.637075079E+02  1.250000000E+02  0.00000E+00  9.000E+00
      25     1     1     2     0     0 -1.369930307E+02 -1.768502010E+02 -7.846886864E+02  8.254722398E+02  1.250000000E+02  0.00000E+00  9.000E+00
      21     1     1     2   512   502  4.323652913E+01  6.865811752E+00  2.800004642E+00  4.386771989E+01  6.549734168E-07  0.00000E+00  9.000E+00
#rwgt            1           1   3.4605262891929826E-002           2      114161           0
</event>
<event>
      5   9999  3.79277E-02  5.89406E+01 -1.00000E+00  1.35118E-01
      21    -1     0     0   502   511  0.000000000E+00  0.000000000E+00  2.321181306E+02  2.321181306E+02  0.000000000E+00  0.00000E+00  9.000E+00
      21    -1     0     0   501   502  0.000000000E+00  0.000000000E+00 -4.012823558E+02  4.012823558E+02  0.000000000E+00  0.00000E+00  9.000E+00
      25     1     1     2     0     0 -9.541841876E+01  4.593467391E+00 -1.645733120E+01  1.581822314E+02  1.250000000E+02  0.00000E+00  9.000E+00
      25     1     1     2     0     0  6.490281788E+01 -5.501961177E+01 -2.893095744E+02  3.264422817E+02  1.250000000E+02  0.00000E+00  9.000E+00
      21     1     1     2   501   511  3.051560088E+01  5.042614438E+01  1.366026804E+02  1.487759733E+02  1.907348633E-06  0.00000E+00  9.000E+00
#rwgt            2          11   1.6170206119711136E-003           2      114439           0
</event>
<event>
      5   9999  3.79277E-02  4.05489E+01 -1.00000E+00  1.44474E-01
      21    -1     0     0   502   501  0.000000000E+00  0.000000000E+00  4.920993139E+02  4.920993139E+02  0.000000000E+00  0.00000E+00  9.000E+00
      21    -1     0     0   512   502  0.000000000E+00  0.000000000E+00 -1.218872635E+02  1.218872635E+02  0.000000000E+00  0.00000E+00  9.000E+00
      25     1     1     2     0     0 -1.582687344E+02  2.823654788E+01  2.497794700E+02  3.222748494E+02  1.250000000E+02  0.00000E+00  9.000E+00
      25     1     1     2     0     0  1.816424691E+02  4.897742128E+00  1.201638395E+02  2.511619453E+02  1.250000000E+02  0.00000E+00  9.000E+00
      21     1     1     2   512   501 -2.337373472E+01 -3.313429001E+01  2.687408731E-01  4.054978262E+01  9.732565987E-07  0.00000E+00  9.000E+00
#rwgt            1           1   1.3190451098903976E-002           2      114489           0
</event>
<event>
      5   9999  3.79277E-02  7.44184E+01 -1.00000E+00  1.29888E-01
       1    -1     0     0   502     0  0.000000000E+00  0.000000000E+00  6.393677213E+02  6.393677213E+02  0.000000000E+00  0.00000E+00  9.000E+00
      21    -1     0     0   501   502  0.000000000E+00  0.000000000E+00 -1.474835214E+02  1.474835214E+02  0.000000000E+00  0.00000E+00  9.000E+00
      25     1     1     2     0     0 -4.266000525E+01 -4.429999618E+01  2.828633370E+01  1.421530245E+02  1.250000000E+02  0.00000E+00  9.000E+00
      25     1     1     2     0     0  8.345575873E+01 -1.793995768E+01 -2.241859788E+01  1.530173169E+02  1.250000000E+02  0.00000E+00  9.000E+00
       1     1     1     2   501     0 -4.079575348E+01  6.223995385E+01  4.860164641E+02  4.916809013E+02  5.394796609E-06  0.00000E+00  9.000E+00
#rwgt            1           1   4.8718783164939904E-002           2      114591           0
</event>
<event>
      5   9999  3.79277E-02  8.89669E+01 -1.00000E+00  1.26155E-01
      21    -1     0     0   502   501  0.000000000E+00  0.000000000E+00  2.418466149E+02  2.418466149E+02  0.000000000E+00  0.00000E+00  9.000E+00
      21    -1     0     0   511   502  0.000000000E+00  0.000000000E+00 -2.983429526E+02  2.983429526E+02  0.000000000E+00  0.00000E+00  9.000E+00
      25     1     1     2     0     0  4.164135376E+01  1.211669482E+02  8.515626479E+01  1.982221509E+02  1.250000000E+02  0.00000E+00  9.000E+00
      25     1     1     2     0     0  2.729025741E+01 -1.774122847E+02 -1.234179254E+02  2.511510725E+02  1.250000000E+02  0.00000E+00  9.000E+00
      21     1     1     2   511   501 -6.893161117E+01  5.624533649E+01 -1.823467717E+01  9.081634405E+01  1.581489940E-06  0.00000E+00  9.000E+00
#rwgt            1           1   4.6116029943676404E-002           2      114634           0
</event>
<event>
      5   9999  3.79277E-02  1.48702E+01 -1.00000E+00  1.77740E-01
      21    -1     0     0   512   501  0.000000000E+00  0.000000000E+00  1.587347293E+02  1.587347293E+02  0.000000000E+00  0.00000E+00  9.000E+00
      21    -1     0     0   501   502  0.000000000E+00  0.000000000E+00 -2.373726123E+02  2.373726123E+02  0.000000000E+00  0.00000E+00  9.000E+00
      25     1     1     2     0     0  1.177527263E+02  6.107168997E+01 -5.643113703E+01  1.908007576E+02  1.250000000E+02  0.00000E+00  9.000E+00
      25     1     1     2     0     0 -1.275479534E+02 -4.988348400E+01 -3.105056695E+01  1.880052662E+02  1.250000000E+02  0.00000E+00  9.000E+00
      21     1     1     2   512   502  9.795227122E+00 -1.118820597E+01  8.843821010E+00  1.730131779E+01  1.685873940E-07  0.00000E+00  9.000E+00
#rwgt            1           1   4.0779948795159789E-002           2      114745           0
</event>
<event>
      5   9999  3.79277E-02  1.56575E+01 -1.00000E+00  1.75646E-01
      21    -1     0     0   502   501  0.000000000E+00  0.000000000E+00  9.813506937E+02  9.813506937E+02  0.000000000E+00  0.00000E+00  9.000E+00
      21    -1     0     0   511   502  0.000000000E+00  0.000000000E+00 -4.740321485E+01  4.740321485E+01  0.000000000E+00  0.00000E+00  9.000E+00
      25     1     1     2     0     0  1.610210165E+02  5.465652217E+01  4.295747838E+02  4.786173817E+02  1.250000000E+02  0.00000E+00  9.000E+00
      25     1     1     2     0     0 -1.467562888E+02 -6.111205106E+01  4.831235513E+02  5.237417846E+02  1.250000000E+02  0.00000E+00  9.000E+00
      21     1     1     2   511   501 -1.426472770E+01  6.455528890E+00  2.124914373E+01  2.639474226E+01  2.384185791E-07  0.00000E+00  9.000E+00
#rwgt            1           1   3.1449400963840878E-002           2      115181           0
</event>
<event>
      5   9999  3.79277E-02  7.24543E+00 -1.00000E+00  2.13460E-01
      21    -1     0     0   502   501  0.000000000E+00  0.000000000E+00  7.905977498E+02  7.905977498E+02  0.000000000E+00  0.00000E+00  9.000E+00
      21    -1     0     0   512   502  0.000000000E+00  0.000000000E+00 -7.490871295E+01  7.490871295E+01  0.000000000E+00  0.00000E+00  9.000E+00
      25     1     1     2     0     0 -1.235712674E+02  1.633398658E+02  3.350923628E+02  4.121427683E+02  1.250000000E+02  0.00000E+00  9.000E+00
      25     1     1     2     0     0  1.267806125E+02 -1.568439883E+02  3.765324089E+02  4.450561934E+02  1.250000000E+02  0.00000E+00  9.000E+00
      21     1     1     2   512   501 -3.209345138E+00 -6.495877563E+00  4.064265200E+00  8.307501017E+00  8.429369702E-08  0.00000E+00  9.000E+00
#rwgt            1           1   4.6968241407503122E-002           2      115407           0
</event>
<event>
      5   9999  3.79277E-02  3.62436E+01 -1.00000E+00  1.47547E-01
      21    -1     0     0   502   511  0.000000000E+00  0.000000000E+00  6.837614667E+01  6.837614667E+01  0.000000000E+00  0.00000E+00  9.000E+00
      21    -1     0     0   501   502  0.000000000E+00  0.000000000E+00 -1.213841248E+03  1.213841248E+03  0.000000000E+00  0.00000E+00  9.000E+00
      25     1     1     2     0     0 -6.544564480E+01 -1.337126744E+02 -1.026707148E+03  1.044947262E+03  1.250000000E+02  0.00000E+00  9.000E+00
      25     1     1     2     0     0  5.196215163E+01  1.000704931E+02 -8.927816985E+01  1.905512015E+02  1.250000000E+02  0.00000E+00  9.000E+00
      21     1     1     2   501   511  1.348349316E+01  3.364218128E+01 -2.947978399E+01  4.671893206E+01  9.536743164E-07  0.00000E+00  9.000E+00
#rwgt            1           1   4.3399247916972312E-002           2      116183           0
</event>
<event>
      5   9999  3.79277E-02  4.71181E+01 -1.00000E+00  1.40563E-01
      21    -1     0     0   502   512  0.000000000E+00  0.000000000E+00  2.271102507E+02  2.271102507E+02  0.000000000E+00  0.00000E+00  9.000E+00
      21    -1     0     0   501   502  0.000000000E+00  0.000000000E+00 -4.084043327E+02  4.084043327E+02  0.000000000E+00  0.00000E+00  9.000E+00
      25     1     1     2     0     0 -2.446530449E+01  2.618631210E+02 -1.710494382E+02  3.377184561E+02  1.250000000E+02  0.00000E+00  9.000E+00
      25     1     1     2     0     0  2.244915234E+01 -2.147882250E+02 -1.742948659E+01  2.501334305E+02  1.250000000E+02  0.00000E+00  9.000E+00
      21     1     1     2   501   512  2.016152150E+00 -4.707489601E+01  7.184842745E+00  4.766269683E+01  5.462855929E-07  0.00000E+00  9.000E+00
#rwgt            1           1   3.2414364627402652E-002           2      116342           0
</event>
<event>
      5   9999  3.79277E-02  1.96440E+02 -1.00000E+00  1.11933E-01
       2    -1     0     0   502     0  0.000000000E+00  0.000000000E+00  2.133600811E+02  2.133600811E+02  0.000000000E+00  0.00000E+00  9.000E+00
      21    -1     0     0   501   502  0.000000000E+00  0.000000000E+00 -2.717676139E+03  2.717676139E+03  0.000000000E+00  0.00000E+00  9.000E+00
      25     1     1     2     0     0 -1.902149007E+02  2.617046741E+02 -2.198677457E+03  2.225865810E+03  1.250000000E+02  0.00000E+00  9.000E+00
      25     1     1     2     0     0  3.569695016E+01 -1.404075757E+02 -4.313934929E+02  4.719257412E+02  1.250000000E+02  0.00000E+00  9.000E+00
       2     1     1     2   501     0  1.545179505E+02 -1.212970985E+02  1.257548912E+02  2.332446694E+02  1.206313194E-05  0.00000E+00  9.000E+00
#rwgt            1           1   8.3982936123418117E-002           2      116440           0
</event>
<event>
      5   9999  3.79277E-02  3.21512E+01 -1.00000E+00  1.50980E-01
      21    -1     0     0   511   501  0.000000000E+00  0.000000000E+00  1.627200036E+02  1.627200036E+02  0.000000000E+00  0.00000E+00  9.000E+00
      21    -1     0     0   501   502  0.000000000E+00  0.000000000E+00 -2.675656461E+02  2.675656461E+02  0.000000000E+00  0.00000E+00  9.000E+00
      25     1     1     2     0     0  1.591172218E+01  5.211719307E+01  8.906810198E+01  1.628726850E+02  1.250000000E+02  0.00000E+00  9.000E+00
      25     1     1     2     0     0  1.623489468E+01 -5.265717880E+01 -1.914192107E+02  2.351651856E+02  1.250000000E+02  0.00000E+00  9.000E+00
      21     1     1     2   511   502 -3.214661686E+01  5.399857257E-01 -2.494533811E+00  3.224777913E+01  5.717076687E-07  0.00000E+00  9.000E+00
#rwgt            1           1   4.4647465754319438E-002           2      116484           0
</event>
<event>
      5   9999  3.79277E-02  9.05076E+01 -1.00000E+00  1.25808E-01
       1    -1     0     0   502     0  0.000000000E+00  0.000000000E+00  3.984966501E+02  3.984966501E+02  0.000000000E+00  0.00000E+00  9.000E+00
      21    -1     0     0   501   502  0.000000000E+00  0.000000000E+00 -6.008727775E+02  6.008727775E+02  0.000000000E+00  0.00000E+00  9.000E+00
      25     1     1     2     0     0 -1.654473629E+02  4.288016401E+01 -3.726053270E+02  4.285688604E+02  1.250000000E+02  0.00000E+00  9.000E+00
      25     1     1     2     0     0  7.502832726E+01 -4.688240161E+01 -1.640881860E+02  2.244485292E+02  1.250000000E+02  0.00000E+00  9.000E+00
       1     1     1     2   501     0  9.041903567E+01  4.002237596E+00  3.343173857E+02  3.463520381E+02  3.814697266E-06  0.00000E+00  9.000E+00
#rwgt            1           1   4.8785498746558749E-002           2      116636           0
</event>
<event>
      5   9999  3.79277E-02  3.39993E+01 -1.00000E+00  1.49358E-01
      21    -1     0     0   502   501  0.000000000E+00  0.000000000E+00  1.342809308E+03  1.342809308E+03  0.000000000E+00  0.00000E+00  9.000E+00
      -4    -1     0     0     0   502  0.000000000E+00  0.000000000E+00 -4.072988767E+02  4.072988767E+02  0.000000000E+00  0.00000E+00  9.000E+00
      25     1     1     2     0     0 -1.104643809E+02  2.601018551E+02  6.902632739E+02  7.562696224E+02  1.250000000E+02  0.00000E+00  9.000E+00
      25     1     1     2     0     0  7.991397747E+01 -2.451812837E+02  5.855108888E+02  6.518804388E+02  1.250000000E+02  0.00000E+00  9.000E+00
      -4     1     1     2     0   501  3.055040339E+01 -1.492057142E+01 -3.402637319E+02  3.419581229E+02  1.078959322E-05  0.00000E+00  9.000E+00
#rwgt            1           1   2.6943303995633508E-002           2      116710           0
</event>
<event>
      5   9999  3.79277E-02  5.80323E+01 -1.00000E+00  1.35482E-01
      21    -1     0     0   511   501  0.000000000E+00  0.000000000E+00  6.627741289E+01  6.627741289E+01  0.000000000E+00  0.00000E+00  9.000E+00
      21    -1     0     0   501   502  0.000000000E+00  0.000000000E+00 -9.881594588E+02  9.881594588E+02  0.000000000E+00  0.00000E+00  9.000E+00
      25     1     1     2     0     0 -4.814877601E+00 -1.974793773E+02 -2.992569237E+02  3.797380596E+02  1.250000000E+02  0.00000E+00  9.000E+00
      25     1     1     2     0     0  7.095682828E+00  1.394919518E+02 -5.538690280E+02  5.847257935E+02  1.250000000E+02  0.00000E+00  9.000E+00
      21     1     1     2   511   502 -2.280805226E+00  5.798742556E+01 -6.875609417E+01  8.997301863E+01  1.651812370E-06  0.00000E+00  9.000E+00
#rwgt            1           1   5.1259397090755283E-002           2      117007           0
</event>
<event>
      5   9999  3.79277E-02  2.17374E+01 -1.00000E+00  1.63438E-01
      -1    -1     0     0     0   501  0.000000000E+00  0.000000000E+00  9.308814057E+02  9.308814057E+02  0.000000000E+00  0.00000E+00  9.000E+00
      21    -1     0     0   501   502  0.000000000E+00  0.000000000E+00 -6.462105774E+02  6.462105774E+02  0.000000000E+00  0.00000E+00  9.000E+00
      25     1     1     2     0     0 -2.207986143E+02  2.087927105E+02 -3.047108500E+02  4.481295864E+02  1.250000000E+02  0.00000E+00  9.000E+00
      25     1     1     2     0     0  2.161624678E+02 -2.300299777E+02 -1.627613470E+02  3.765053243E+02  1.250000000E+02  0.00000E+00  9.000E+00
      -1     1     1     2     0   502  4.636146518E+00  2.123726715E+01  7.521430253E+02  7.524570725E+02  0.000000000E+00  0.00000E+00  9.000E+00
#rwgt            1           1   3.2803895755306130E-002           2      117111           0
</event>
<event>
      5   9999  3.79277E-02  5.30186E+01 -1.00000E+00  1.37638E-01
      21    -1     0     0   502   501  0.000000000E+00  0.000000000E+00  2.211150563E+02  2.211150563E+02  0.000000000E+00  0.00000E+00  9.000E+00
      -3    -1     0     0     0   502  0.000000000E+00  0.000000000E+00 -7.255841678E+02  7.255841678E+02  0.000000000E+00  0.00000E+00  9.000E+00
      25     1     1     2     0     0 -1.240405919E+02 -1.816383335E+02 -4.092337432E+01  2.562777306E+02  1.250000000E+02  0.00000E+00  9.000E+00
      25     1     1     2     0     0  9.042443674E+01  1.406391782E+02  1.467034900E+01  2.092753601E+02  1.250000000E+02  0.00000E+00  9.000E+00
      -3     1     1     2     0   501  3.361615519E+01  4.099915525E+01 -4.782160862E+02  4.811461334E+02  0.000000000E+00  0.00000E+00  9.000E+00
#rwgt            2           8   1.3280822577106807E-005           2      117275           0
</event>
<event>
      5   9999  3.79277E-02  3.31318E+01 -1.00000E+00  1.50104E-01
      21    -1     0     0   502   511  0.000000000E+00  0.000000000E+00  2.194616798E+02  2.194616798E+02  0.000000000E+00  0.00000E+00  9.000E+00
      21    -1     0     0   501   502  0.000000000E+00  0.000000000E+00 -1.188341135E+03  1.188341135E+03  0.000000000E+00  0.00000E+00  9.000E+00
      25     1     1     2     0     0  2.759945141E+02  1.174829891E+02 -9.650818875E+02  1.018323757E+03  1.250000000E+02  0.00000E+00  9.000E+00
      25     1     1     2     0     0 -2.429221851E+02 -1.194676515E+02 -7.800593323E+01  3.082103720E+02  1.250000000E+02  0.00000E+00  9.000E+00
      21     1     1     2   501   511 -3.307232903E+01  1.984662422E+00  7.420836533E+01  8.126868595E+01  1.907348633E-06  0.00000E+00  9.000E+00
#rwgt            1           1   6.9764635887147120E-003           2      117324           0
</event>
<event>
      5   9999  3.79277E-02  1.91320E+02 -1.00000E+00  1.12354E-01
      21    -1     0     0   502   501  0.000000000E+00  0.000000000E+00  2.507068046E+02  2.507068046E+02  0.000000000E+00  0.00000E+00  9.000E+00
      21    -1     0     0   501   512  0.000000000E+00  0.000000000E+00 -3.867767526E+02  3.867767526E+02  0.000000000E+00  0.00000E+00  9.000E+00
      25     1     1     2     0     0 -3.279519644E+00  7.787342042E+01 -3.715309675E+01  1.519222744E+02  1.250000000E+02  0.00000E+00  9.000E+00
      25     1     1     2     0     0 -1.192824238E+02 -2.247808857E+02 -4.762639951E+01  2.874856817E+02  1.250000000E+02  0.00000E+00  9.000E+00
      21     1     1     2   502   512  1.225619435E+02  1.469074653E+02 -5.129045176E+01  1.980756012E+02  1.784161275E-06  0.00000E+00  9.000E+00
#rwgt            1           1   5.7215628207113102E-002           2      117416           0
</event>
<event>
      5   9999  3.79277E-02  6.94801E+01 -1.00000E+00  1.31385E-01
      21    -1     0     0   502   501  0.000000000E+00  0.000000000E+00  2.199502100E+03  2.199502100E+03  0.000000000E+00  0.00000E+00  9.000E+00
      21    -1     0     0   511   502  0.000000000E+00  0.000000000E+00 -5.204908665E+01  5.204908665E+01  0.000000000E+00  0.00000E+00  9.000E+00
      25     1     1     2     0     0 -1.276678738E+02 -9.099054522E+01  1.296815879E+03  1.312225129E+03  1.250000000E+02  0.00000E+00  9.000E+00
      25     1     1     2     0     0  7.595501084E+01  1.373938727E+02  8.462379494E+02  8.697067937E+02  1.250000000E+02  0.00000E+00  9.000E+00
      21     1     1     2   511   501  5.171286297E+01 -4.640332744E+01  4.399184275E+00  6.961926326E+01  2.243701246E-06  0.00000E+00  9.000E+00
#rwgt            1           1   8.2359451260538410E-002           2      117523           0
</event>
<event>
      5   9999  3.79277E-02  9.03064E+01 -1.00000E+00  1.25853E-01
       1    -1     0     0   502     0  0.000000000E+00  0.000000000E+00  3.118227771E+02  3.118227771E+02  0.000000000E+00  0.00000E+00  9.000E+00
      21    -1     0     0   501   502  0.000000000E+00  0.000000000E+00 -2.536807227E+03  2.536807227E+03  0.000000000E+00  0.00000E+00  9.000E+00
      25     1     1     2     0     0  1.363450865E+02 -2.951373529E+02 -1.239376055E+03  1.287390401E+03  1.250000000E+02  0.00000E+00  9.000E+00
      25     1     1     2     0     0 -1.904344610E+02  2.228214971E+02 -1.245755416E+03  1.285864013E+03  1.250000000E+02  0.00000E+00  9.000E+00
       1     1     1     2   501     0  5.408937457E+01  7.231585584E+01  2.601470206E+02  2.753755904E+02  1.009274029E-05  0.00000E+00  9.000E+00
#rwgt            1           1  0.23398545630877576                2      117657           0
</event>
<event>
      5   9999  3.79277E-02  3.07483E+02 -1.00000E+00  1.05246E-01
      21    -1     0     0   502   501  0.000000000E+00  0.000000000E+00  1.551943166E+02  1.551943166E+02  0.000000000E+00  0.00000E+00  9.000E+00
       2    -1     0     0   501     0  0.000000000E+00  0.000000000E+00 -1.808701152E+03  1.808701152E+03  0.000000000E+00  0.00000E+00  9.000E+00
      25     1     1     2     0     0 -4.667378563E+01  9.542072748E+01  5.438849644E+00  1.641284210E+02  1.250000000E+02  0.00000E+00  9.000E+00
      25     1     1     2     0     0 -1.727020236E+02  1.200319039E+02 -1.318552211E+03  1.341058753E+03  1.250000000E+02  0.00000E+00  9.000E+00
       2     1     1     2   502     0  2.193758092E+02 -2.154526314E+02 -3.403934745E+02  4.587082946E+02  5.394796609E-06  0.00000E+00  9.000E+00
#rwgt            1           1   2.4091751208487611E-002           2      117828           0
</event>
<event>
      5   9999  3.79277E-02  1.49226E+02 -1.00000E+00  1.16483E-01
      21    -1     0     0   511   501  0.000000000E+00  0.000000000E+00  1.537045400E+03  1.537045400E+03  0.000000000E+00  0.00000E+00  9.000E+00
      21    -1     0     0   501   502  0.000000000E+00  0.000000000E+00 -1.012148334E+02  1.012148334E+02  0.000000000E+00  0.00000E+00  9.000E+00
      25     1     1     2     0     0 -4.867437845E+01 -1.015957887E+02  6.939554294E+00  1.684163199E+02  1.250000000E+02  0.00000E+00  9.000E+00
      25     1     1     2     0     0  1.096773659E+02 -3.459134478E+01  4.772720935E+02  5.065958320E+02  1.250000000E+02  0.00000E+00  9.000E+00
      21     1     1     2   511   502 -6.100298749E+01  1.361871334E+02  9.516189188E+02  9.632480815E+02  0.000000000E+00  0.00000E+00  9.000E+00
#rwgt            1           1   3.7672131186976349E-002           2      117918           0
</event>
<event>
      5   9999  3.79277E-02  3.44213E+01 -1.00000E+00  1.49005E-01
      21    -1     0     0   502   512  0.000000000E+00  0.000000000E+00  3.434246523E+02  3.434246523E+02  0.000000000E+00  0.00000E+00  9.000E+00
      21    -1     0     0   501   502  0.000000000E+00  0.000000000E+00 -5.101561700E+02  5.101561700E+02  0.000000000E+00  0.00000E+00  9.000E+00
      25     1     1     2     0     0 -5.929316613E+01 -1.856595162E+01 -4.564529040E+01  1.468634285E+02  1.250000000E+02  0.00000E+00  9.000E+00
      25     1     1     2     0     0  7.754013950E+01 -1.062093062E+01 -3.996715377E+02  4.260136329E+02  1.250000000E+02  0.00000E+00  9.000E+00
      21     1     1     2   501   512 -1.824697337E+01  2.918688224E+01  2.785853104E+02  2.807037608E+02  3.814697266E-06  0.00000E+00  9.000E+00
#rwgt            1           1   4.2017608074114789E-002           2      117991           0
</event>
<event>
      5   9999  3.79277E-02  4.14166E+01 -1.00000E+00  1.43909E-01
      21    -1     0     0   502   501  0.000000000E+00  0.000000000E+00  1.019380279E+03  1.019380279E+03  0.000000000E+00  0.00000E+00  9.000E+00
      21    -1     0     0   511   502  0.000000000E+00  0.000000000E+00 -4.638492926E+01  4.638492926E+01  0.000000000E+00  0.00000E+00  9.000E+00
      25     1     1     2     0     0  9.907041150E+01  6.345623614E+01  7.097437482E+02  7.302073873E+02  1.250000000E+02  0.00000E+00  9.000E+00
      25     1     1     2     0     0 -6.291619698E+01 -8.366044723E+01  2.325147922E+02  2.839817721E+02  1.250000000E+02  0.00000E+00  9.000E+00
      21     1     1     2   511   501 -3.615421452E+01  2.020421109E+01  3.073680935E+01  5.157604892E+01  1.390207266E-06  0.00000E+00  9.000E+00
#rwgt            1           1  0.31895321647783748                2      118187           0
</event>
<event>
      5   9999  3.79277E-02  1.06278E+01 -1.00000E+00  1.92749E-01
      21    -1     0     0   502   501  0.000000000E+00  0.000000000E+00  2.477402574E+01  2.477402574E+01  0.000000000E+00  0.00000E+00  9.000E+00
      21    -1     0     0   501   512  0.000000000E+00  0.000000000E+00 -2.182816950E+03  2.182816950E+03  0.000000000E+00  0.00000E+00  9.000E+00
      25     1     1     2     0     0 -1.323162186E+02 -7.710911136E+01 -9.637357901E+02  9.838013366E+02  1.250000000E+02  0.00000E+00  9.000E+00
      25     1     1     2     0     0  1.274051083E+02  8.653417918E+01 -6.549531076E+02  6.843309134E+02  1.250000000E+02  0.00000E+00  9.000E+00
      21     1     1     2   502   512  4.911110299E+00 -9.425067823E+00 -5.393540263E+02  5.394587255E+02  0.000000000E+00  0.00000E+00  9.000E+00
#rwgt            1           1   4.1748769669537805E-002           2      118281           0
</event>
<event>
      5   9999  3.79277E-02  7.77184E+01 -1.00000E+00  1.28961E-01
      21    -1     0     0   502   511  0.000000000E+00  0.000000000E+00  5.526846805E+01  5.526846805E+01  0.000000000E+00  0.00000E+00  9.000E+00
      21    -1     0     0   501   502  0.000000000E+00  0.000000000E+00 -1.008228003E+03  1.008228003E+03  0.000000000E+00  0.00000E+00  9.000E+00
      25     1     1     2     0     0 -3.458092541E+01  7.840152003E+01 -5.865957888E+02  6.058566317E+02  1.250000000E+02  0.00000E+00  9.000E+00
      25     1     1     2     0     0 -6.148071538E+00 -1.445929545E+02 -2.167982215E+02  2.890871670E+02  1.250000000E+02  0.00000E+00  9.000E+00
      21     1     1     2   501   511  4.072899695E+01  6.619143449E+01 -1.495655247E+02  1.685526724E+02  1.907348633E-06  0.00000E+00  9.000E+00
#rwgt            1           1   2.9254667529884024E-002           2      118580           0
</event>
<event>
      5   9999  3.79277E-02  7.09263E+01 -1.00000E+00  1.30932E-01
      21    -1     0     0   502   512  0.000000000E+00  0.000000000E+00  2.716232738E+02  2.716232738E+02  0.000000000E+00  0.00000E+00  9.000E+00
      21    -1     0     0   501   502  0.000000000E+00  0.000000000E+00 -8.084515521E+02  8.084515521E+02  0.000000000E+00  0.00000E+00  9.000E+00
      25     1     1     2     0     0 -2.577651361E+02  2.968096257E+02 -2.308522447E+02  4.727119399E+02  1.250000000E+02  0.00000E+00  9.000E+00
      25     1     1     2     0     0  2.294222777E+02 -3.618267660E+02 -2.964955176E+02  5.358057316E+02  1.250000000E+02  0.00000E+00  9.000E+00
      21     1     1     2   501   512  2.834285841E+01  6.501714028E+01 -9.480516074E+00  7.155715435E+01  7.251217997E-07  0.00000E+00  9.000E+00
#rwgt            1           1   2.7209159195247745E-002           2      118717           0
</event>
<event>
      5   9999  3.79277E-02  1.13877E+02 -1.00000E+00  1.21342E-01
       1    -1     0     0   502     0  0.000000000E+00  0.000000000E+00  1.109782007E+03  1.109782007E+03  0.000000000E+00  0.00000E+00  9.000E+00
      21    -1     0     0   501   502  0.000000000E+00  0.000000000E+00 -2.255114847E+02  2.255114847E+02  0.000000000E+00  0.00000E+00  9.000E+00
      25     1     1     2     0     0 -1.007781093E+02 -1.913040984E+01 -1.276439107E+02  2.060101159E+02  1.250000000E+02  0.00000E+00  9.000E+00
      25     1     1     2     0     0  2.782076115E+01  1.065671234E+02  7.032808300E+01  1.808357979E+02  1.250000000E+02  0.00000E+00  9.000E+00
       1     1     1     2   501     0  7.295734812E+01 -8.743671360E+01  9.415863504E+02  9.484475783E+02  1.078959322E-05  0.00000E+00  9.000E+00
#rwgt            1           1   4.2946736495059791E-002           2      118816           0
</event>
<event>
      5   9999  3.79277E-02  2.84703E+01 -1.00000E+00  1.54635E-01
      21    -1     0     0   502   501  0.000000000E+00  0.000000000E+00  1.962739833E+02  1.962739833E+02  0.000000000E+00  0.00000E+00  9.000E+00
      21    -1     0     0   511   502  0.000000000E+00  0.000000000E+00 -3.578366214E+02  3.578366214E+02  0.000000000E+00  0.00000E+00  9.000E+00
      25     1     1     2     0     0 -1.469020464E+02  1.252210260E+00 -2.183713460E+02  2.913637315E+02  1.250000000E+02  0.00000E+00  9.000E+00
      25     1     1     2     0     0  1.698622835E+02  1.558188843E+01  7.992571326E+01  2.260732409E+02  1.250000000E+02  0.00000E+00  9.000E+00
      21     1     1     2   511   501 -2.296023706E+01 -1.683409869E+01 -2.311700536E+01  3.667363224E+01  3.371747881E-07  0.00000E+00  9.000E+00
#rwgt            1           1   3.8001510249552714E-002           2      119005           0
</event>
<event>
      5   9999  3.79277E-02  3.40927E+01 -1.00000E+00  1.49280E-01
      21    -1     0     0   502   501  0.000000000E+00  0.000000000E+00  3.928309620E+02  3.928309620E+02  0.000000000E+00  0.00000E+00  9.000E+00
      21    -1     0     0   512   502  0.000000000E+00  0.000000000E+00 -4.644332552E+02  4.644332552E+02  0.000000000E+00  0.00000E+00  9.000E+00
      25     1     1     2     0     0  3.514289912E+01 -2.162443367E+02 -2.063952356E+02  3.259150653E+02  1.250000000E+02  0.00000E+00  9.000E+00
      25     1     1     2     0     0 -3.044418367E+00  2.277335019E+02  2.801342375E+02  3.820628317E+02  1.250000000E+02  0.00000E+00  9.000E+00
      21     1     1     2   512   501 -3.209848076E+01 -1.148916523E+01 -1.453412950E+02  1.492863202E+02  1.907348633E-06  0.00000E+00  9.000E+00
#rwgt            1           1   4.0178587578367474E-002           2      119177           0
</event>
<event>
      5   9999  3.79277E-02  4.62542E+01 -1.00000E+00  1.41033E-01
      21    -1     0     0   511   501  0.000000000E+00  0.000000000E+00  7.245192058E+01  7.245192058E+01  0.000000000E+00  0.00000E+00  9.000E+00
      21    -1     0     0   501   502  0.000000000E+00  0.000000000E+00 -1.705373792E+03  1.705373792E+03  0.000000000E+00  0.00000E+00  9.000E+00
      25     1     1     2     0     0 -2.291741851E+02 -6.696827037E+01 -4.418195517E+02  5.175278472E+02  1.250000000E+02  0.00000E+00  9.000E+00
      25     1     1     2     0     0  2.442201373E+02  2.322963405E+01 -1.181370413E+03  1.213030974E+03  1.250000000E+02  0.00000E+00  9.000E+00
      21     1     1     2   511   502 -1.504595221E+01  4.373863632E+01 -9.731906459E+00  4.726689104E+01  1.831327855E-06  0.00000E+00  9.000E+00
#rwgt            1           1   4.6424337049621532E-002           2      119372           0
</event>
<event>
      5   9999  3.79277E-02  3.62320E+01 -1.00000E+00  1.47556E-01
      21    -1     0     0   502   501  0.000000000E+00  0.000000000E+00  2.476374959E+01  2.476374959E+01  0.000000000E+00  0.00000E+00  9.000E+00
       2    -1     0     0   501     0  0.000000000E+00  0.000000000E+00 -1.373127266E+03  1.373127266E+03  0.000000000E+00  0.00000E+00  9.000E+00
      25     1     1     2     0     0 -9.038156971E+01  1.806232970E+01 -5.520223417E+02  5.734533474E+02  1.250000000E+02  0.00000E+00  9.000E+00
      25     1     1     2     0     0  1.252096493E+02 -8.074376599E+00 -6.538856167E+02  6.774467150E+02  1.250000000E+02  0.00000E+00  9.000E+00
       2     1     1     2   502     0 -3.482807959E+01 -9.987953099E+00 -1.424555575E+02  1.469909528E+02  1.907348633E-06  0.00000E+00  9.000E+00
#rwgt            1           1   3.9817721204053323E-002           2      119620           0
</event>
<event>
      5   9999  3.79277E-02  1.30493E+02 -1.00000E+00  1.18843E-01
      21    -1     0     0   511   501  0.000000000E+00  0.000000000E+00  1.252047318E+03  1.252047318E+03  0.000000000E+00  0.00000E+00  9.000E+00
      21    -1     0     0   501   502  0.000000000E+00  0.000000000E+00 -2.272107316E+02  2.272107316E+02  0.000000000E+00  0.00000E+00  9.000E+00
      25     1     1     2     0     0  2.040201160E+02 -3.715050382E+02  6.485462303E+02  7.847785763E+02  1.250000000E+02  0.00000E+00  9.000E+00
      25     1     1     2     0     0 -2.347975637E+02  2.446937524E+02  7.921396391E+01  3.700064600E+02  1.250000000E+02  0.00000E+00  9.000E+00
      21     1     1     2   511   502  3.077744769E+01  1.268112857E+02  2.970763922E+02  3.244730131E+02  5.394796609E-06  0.00000E+00  9.000E+00
#rwgt            1           1   2.4687372366643739E-002           2      119759           0
</event>
<event>
      5   9999  3.79277E-02  8.29247E+01 -1.00000E+00  1.27599E-01
       2    -1     0     0   502     0  0.000000000E+00  0.000000000E+00  1.812851098E+03  1.812851098E+03  0.000000000E+00  0.00000E+00  9.000E+00
      21    -1     0     0   501   502  0.000000000E+00  0.000000000E+00 -1.235146812E+02  1.235146812E+02  0.000000000E+00  0.00000E+00  9.000E+00
      25     1     1     2     0     0 -2.243254776E+02  2.225851568E+02  1.957512228E+02  3.921856871E+02  1.250000000E+02  0.00000E+00  9.000E+00
      25     1     1     2     0     0  1.414048450E+02 -2.217632326E+02  9.299504249E+02  9.744778368E+02  1.250000000E+02  0.00000E+00  9.000E+00
       2     1     1     2   501     0  8.292063258E+01 -8.219242432E-01  5.636347690E+02  5.697022553E+02  0.000000000E+00  0.00000E+00  9.000E+00
#rwgt            1           1   5.1347087328733478E-002           2      120018           0
</event>
<event>
      5   9999  3.79277E-02  2.85546E+01 -1.00000E+00  1.54544E-01
      21    -1     0     0   502   501  0.000000000E+00  0.000000000E+00  3.620733710E+02  3.620733710E+02  0.000000000E+00  0.00000E+00  9.000E+00
      21    -1     0     0   511   502  0.000000000E+00  0.000000000E+00 -1.528818821E+02  1.528818821E+02  0.000000000E+00  0.00000E+00  9.000E+00
      25     1     1     2     0     0 -1.516608481E+02 -6.113983121E+01  6.677526096E-01  2.058264747E+02  1.250000000E+02  0.00000E+00  9.000E+00
      25     1     1     2     0     0  1.238906448E+02  5.449286746E+01  2.114155924E+02  2.804280963E+02  1.250000000E+02  0.00000E+00  9.000E+00
      21     1     1     2   511   501  2.777020329E+01  6.646963748E+00 -2.891856176E+00  2.870068205E+01  5.331201500E-07  0.00000E+00  9.000E+00
#rwgt            1           1   4.0257822499745390E-002           2      120267           0
</event>
<event>
      5   9999 -3.79277E-02  1.92480E+01 -1.00000E+00  1.67754E-01
      21    -1     0     0   502   501  0.000000000E+00  0.000000000E+00  6.242376383E+01  6.242376383E+01  0.000000000E+00  0.00000E+00  9.000E+00
      21    -1     0     0   501   512  0.000000000E+00  0.000000000E+00 -7.309631895E+02  7.309631895E+02  0.000000000E+00  0.00000E+00  9.000E+00
      25     1     1     2     0     0  5.551838634E+01  2.467748017E+00 -4.142833960E+02  4.362844407E+02  1.250000000E+02  0.00000E+00  9.000E+00
      25     1     1     2     0     0 -5.062301947E+01  1.614734797E+01 -3.945312881E+01  1.414389491E+02  1.250000000E+02  0.00000E+00  9.000E+00
      21     1     1     2   502   512 -4.895366872E+00 -1.861509599E+01 -2.148029008E+02  2.156635635E+02  0.000000000E+00  0.00000E+00  9.000E+00
#rwgt            1           1  -8.4072389031091557E-002           2      120357           0
</event>
<event>
      5   9999  3.79277E-02  3.09592E+01 -1.00000E+00  1.52097E-01
      21    -1     0     0   502   501  0.000000000E+00  0.000000000E+00  1.021552326E+02  1.021552326E+02  0.000000000E+00  0.00000E+00  9.000E+00
       2    -1     0     0   501     0  0.000000000E+00  0.000000000E+00 -1.034103806E+03  1.034103806E+03  0.000000000E+00  0.00000E+00  9.000E+00
      25     1     1     2     0     0  7.863599937E+00  6.228971116E+01 -1.329879941E+02  1.930094580E+02  1.250000000E+02  0.00000E+00  9.000E+00
      25     1     1     2     0     0 -3.701420659E+01 -7.271621294E+01 -5.697497962E+00  1.493825980E+02  1.250000000E+02  0.00000E+00  9.000E+00
       2     1     1     2   502     0  2.915060665E+01  1.042650178E+01 -7.932630812E+02  7.938669825E+02  1.078959322E-05  0.00000E+00  9.000E+00
#rwgt            1           1   1.9134472873261362E-002           2      120547           0
</event>
<event>
      5   9999  3.79277E-02  1.22047E+02 -1.00000E+00  1.20057E-01
      21    -1     0     0   502   501  0.000000000E+00  0.000000000E+00  4.747644358E+01  4.747644358E+01  0.000000000E+00  0.00000E+00  9.000E+00
       2    -1     0     0   501     0  0.000000000E+00  0.000000000E+00 -1.860329011E+03  1.860329011E+03  0.000000000E+00  0.00000E+00  9.000E+00
      25     1     1     2     0     0 -3.667622955E+01 -1.035469320E+02 -7.496154293E+02  7.678641838E+02  1.250000000E+02  0.00000E+00  9.000E+00
      25     1     1     2     0     0 -7.540719278E+01  5.524904976E+01 -1.431391707E+02  2.117841458E+02  1.250000000E+02  0.00000E+00  9.000E+00
       2     1     1     2   502     0  1.120834223E+02  4.829788222E+01 -9.200979670E+02  9.281571246E+02  1.078959322E-05  0.00000E+00  9.000E+00
#rwgt            1           1   5.2621563327385976E-002           2      120790           0
</event>
<event>
      5   9999  3.79277E-02  1.19264E+02 -1.00000E+00  1.20482E-01
      21    -1     0     0   502   501  0.000000000E+00  0.000000000E+00  4.778481705E+01  4.778481705E+01  0.000000000E+00  0.00000E+00  9.000E+00
       2    -1     0     0   501     0  0.000000000E+00  0.000000000E+00 -2.676333975E+03  2.676333975E+03  0.000000000E+00  0.00000E+00  9.000E+00
      25     1     1     2     0     0  6.280229484E+01 -8.654034117E+01 -5.974720354E+02  6.197025027E+02  1.250000000E+02  0.00000E+00  9.000E+00
      25     1     1     2     0     0 -1.305959091E+01  1.949355391E+02 -3.546948726E+02  4.237969678E+02  1.250000000E+02  0.00000E+00  9.000E+00
       2     1     1     2   502     0 -4.974270393E+01 -1.083951979E+02 -1.676382250E+03  1.680619322E+03  0.000000000E+00  0.00000E+00  9.000E+00
#rwgt            1           1   3.5828296636150947E-002           2      120863           0
</event>
<event>
      5   9999  3.79277E-02  4.30444E+01 -1.00000E+00  1.42892E-01
      21    -1     0     0   502   511  0.000000000E+00  0.000000000E+00  1.183095585E+03  1.183095585E+03  0.000000000E+00  0.00000E+00  9.000E+00
      21    -1     0     0   501   502  0.000000000E+00  0.000000000E+00 -4.335706599E+01  4.335706599E+01  0.000000000E+00  0.00000E+00  9.000E+00
      25     1     1     2     0     0 -1.769566924E+02  4.545759972E+00  5.025320110E+02  5.472638824E+02  1.250000000E+02  0.00000E+00  9.000E+00
      25     1     1     2     0     0  1.435438747E+02  2.259092890E+01  5.050936469E+02  5.402404892E+02  1.250000000E+02  0.00000E+00  9.000E+00
      21     1     1     2   501   511  3.341281774E+01 -2.713668887E+01  1.321128614E+02  1.389482796E+02  0.000000000E+00  0.00000E+00  9.000E+00
#rwgt            1           1   4.2736732957205786E-002           2      120928           0
</event>
<event>
      5   9999  3.79277E-02  8.05265E+01 -1.00000E+00  1.28212E-01
      21    -1     0     0   502   501  0.000000000E+00  0.000000000E+00  2.176648671E+02  2.176648671E+02  0.000000000E+00  0.00000E+00  9.000E+00
      -2    -1     0     0     0   502  0.000000000E+00  0.000000000E+00 -6.996719306E+02  6.996719306E+02  0.000000000E+00  0.00000E+00  9.000E+00
      25     1     1     2     0     0  1.499408114E+02 -1.180520101E+02  8.888544287E+01  2.448349362E+02  1.250000000E+02  0.00000E+00  9.000E+00
      25     1     1     2     0     0 -1.061457349E+02  1.856279597E+02 -2.954989649E+02  3.855765744E+02  1.250000000E+02  0.00000E+00  9.000E+00
      -2     1     1     2     0   501 -4.379507654E+01 -6.757594956E+01 -2.753935415E+02  2.869252871E+02  3.814697266E-06  0.00000E+00  9.000E+00
#rwgt            1           1   3.2515399668678661E-002           2      121176           0
</event>
<event>
      5   9999 -3.79277E-02  3.33030E+01 -1.00000E+00  1.49955E-01
      21    -1     0     0   502   501  0.000000000E+00  0.000000000E+00  1.111656305E+02  1.111656305E+02  0.000000000E+00  0.00000E+00  9.000E+00
      21    -1     0     0   511   502  0.000000000E+00  0.000000000E+00 -4.275153011E+02  4.275153011E+02  0.000000000E+00  0.00000E+00  9.000E+00
      25     1     1     2     0     0 -5.003822278E+01  7.855282225E+01 -2.654538502E+02  3.078394325E+02  1.250000000E+02  0.00000E+00  9.000E+00
      25     1     1     2     0     0  8.156440812E+01 -8.928553036E+01 -4.821133197E+00  1.739910973E+02  1.250000000E+02  0.00000E+00  9.000E+00
      21     1     1     2   511   501 -3.152618534E+01  1.073270811E+01 -4.607468714E+01  5.685040176E+01  6.743495762E-07  0.00000E+00  9.000E+00
#rwgt            1           1 -0.14682613350390850                2      121278           0
</event>
<event>
      5   9999  3.79277E-02  4.01127E+01 -1.00000E+00  1.44764E-01
       2    -1     0     0   502     0  0.000000000E+00  0.000000000E+00  2.652489876E+03  2.652489876E+03  0.000000000E+00  0.00000E+00  9.000E+00
      21    -1     0     0   501   502  0.000000000E+00  0.000000000E+00 -7.953250312E+01  7.953250312E+01  0.000000000E+00  0.00000E+00  9.000E+00
      25     1     1     2     0     0  9.902086447E+01 -1.536996010E+02  1.234869744E+02  2.535798332E+02  1.250000000E+02  0.00000E+00  9.000E+00
      25     1     1     2     0     0 -6.742330570E+01  1.289888049E+02  6.308320753E+02  6.593619045E+02  1.250000000E+02  0.00000E+00  9.000E+00
       2     1     1     2   501     0 -3.159755877E+01  2.471079613E+01  1.818638323E+03  1.819080641E+03  2.157918644E-05  0.00000E+00  9.000E+00
#rwgt            1           1   3.7547796960291424E-002           2      121400           0
</event>
<event>
      5   9999  3.79277E-02  4.89351E+01 -1.00000E+00  1.39611E-01
      21    -1     0     0   502   501  0.000000000E+00  0.000000000E+00  1.204006055E+02  1.204006055E+02  0.000000000E+00  0.00000E+00  9.000E+00
      21    -1     0     0   501   511  0.000000000E+00  0.000000000E+00 -6.768054565E+02  6.768054565E+02  0.000000000E+00  0.00000E+00  9.000E+00
      25     1     1     2     0     0 -1.166502207E+02  5.386866482E+01 -3.856699255E+02  4.252944844E+02  1.250000000E+02  0.00000E+00  9.000E+00
      25     1     1     2     0     0  9.232164580E+01 -9.632760713E+01  1.152737403E+01  1.831943627E+02  1.250000000E+02  0.00000E+00  9.000E+00
      21     1     1     2   502   511  2.432857494E+01  4.245894231E+01 -1.822622996E+02  1.887172149E+02  2.697398305E-06  0.00000E+00  9.000E+00
#rwgt            1           1   4.4527724854738007E-002           2      121619           0
</event>
<event>
      5   9999  3.79277E-02  2.28703E+01 -1.00000E+00  1.61703E-01
      21    -1     0     0   502   501  0.000000000E+00  0.000000000E+00  5.517203004E+01  5.517203004E+01  0.000000000E+00  0.00000E+00  9.000E+00
      21    -1     0     0   512   502  0.000000000E+00  0.000000000E+00 -9.886323544E+02  9.886323544E+02  0.000000000E+00  0.00000E+00  9.000E+00
      25     1     1     2     0     0 -9.717915166E+01  1.508027138E+01 -1.199282529E+02  1.991958533E+02  1.250000000E+02  0.00000E+00  9.000E+00
      25     1     1     2     0     0  7.558168588E+01 -2.260368580E+01 -3.426608631E+02  3.731822409E+02  1.250000000E+02  0.00000E+00  9.000E+00
      21     1     1     2   512   501  2.159746578E+01  7.523414416E+00 -4.708712084E+02  4.714262903E+02  5.394796609E-06  0.00000E+00  9.000E+00
#rwgt            1           1   4.1561976250472192E-002           2      121851           0
</event>
<event>
      5   9999  3.79277E-02  7.27905E+01 -1.00000E+00  1.30367E-01
      21    -1     0     0   502   501  0.000000000E+00  0.000000000E+00  4.378250727E+01  4.378250727E+01  0.000000000E+00  0.00000E+00  9.000E+00
      21    -1     0     0   501   511  0.000000000E+00  0.000000000E+00 -9.801445179E+02  9.801445179E+02  0.000000000E+00  0.00000E+00  9.000E+00
      25     1     1     2     0     0 -1.259540108E+02 -4.218931870E+01 -3.150170315E+02  3.640124745E+02  1.250000000E+02  0.00000E+00  9.000E+00
      25     1     1     2     0     0  7.016152841E+01 -4.561744920E+00 -3.339216651E+02  3.634172918E+02  1.250000000E+02  0.00000E+00  9.000E+00
      21     1     1     2   502   511  5.579248243E+01  4.675106362E+01 -2.874233140E+02  2.964972588E+02  5.394796609E-06  0.00000E+00  9.000E+00
#rwgt            1           1   3.9714441845604534E-002           2      122160           0
</event>
<event>
      5   9999  3.79277E-02  3.18827E+01 -1.00000E+00  1.51226E-01
      21    -1     0     0   502   501  0.000000000E+00  0.000000000E+00  1.790572125E+03  1.790572125E+03  0.000000000E+00  0.00000E+00  9.000E+00
       1    -1     0     0   501     0  0.000000000E+00  0.000000000E+00 -8.073722973E+01  8.073722973E+01  0.000000000E+00  0.00000E+00  9.000E+00
      25     1     1     2     0     0 -9.071526891E+01  1.219628888E+02  1.634985568E+03  1.646786875E+03  1.250000000E+02  0.00000E+00  9.000E+00
      25     1     1     2     0     0  9.179624884E+01 -9.009854856E+01  6.862295865E+01  1.920375229E+02  1.250000000E+02  0.00000E+00  9.000E+00
       1     1     1     2   502     0 -1.080979935E+00 -3.186434027E+01  6.226368404E+00  3.248495594E+01  6.364034565E-07  0.00000E+00  9.000E+00
#rwgt            1           1   4.7376427517161070E-002           2      122250           0
</event>
<event>
      5   9999  3.79277E-02  1.42042E+01 -1.00000E+00  1.79643E-01
      21    -1     0     0   502   501  0.000000000E+00  0.000000000E+00  6.989229509E+02  6.989229509E+02  0.000000000E+00  0.00000E+00  9.000E+00
      21    -1     0     0   501   511  0.000000000E+00  0.000000000E+00 -7.756074393E+01  7.756074393E+01  0.000000000E+00  0.00000E+00  9.000E+00
      25     1     1     2     0     0  7.923855232E+01 -1.249794877E+02  4.742447664E+02  5.122808985E+02  1.250000000E+02  0.00000E+00  9.000E+00
      25     1     1     2     0     0 -7.982770738E+01  1.107874819E+02  1.602561400E+02  2.448537510E+02  1.250000000E+02  0.00000E+00  9.000E+00
      21     1     1     2   502   511  5.891550630E-01  1.419200582E+01 -1.313869937E+01  1.934904530E+01  2.384185791E-07  0.00000E+00  9.000E+00
#rwgt            1           1   4.4979114146800107E-002           2      122462           0
</event>
<event>
      5   9999  3.79277E-02  6.27817E+01 -1.00000E+00  1.33660E-01
      21    -1     0     0   502   501  0.000000000E+00  0.000000000E+00  1.016324566E+02  1.016324566E+02  0.000000000E+00  0.00000E+00  9.000E+00
      21    -1     0     0   501   512  0.000000000E+00  0.000000000E+00 -8.475965655E+02  8.475965655E+02  0.000000000E+00  0.00000E+00  9.000E+00
      25     1     1     2     0     0  4.334821292E+01 -1.776294827E+02 -4.086748551E+02  4.648348501E+02  1.250000000E+02  0.00000E+00  9.000E+00
      25     1     1     2     0     0 -1.037378489E+02  1.947943547E+02 -1.690179579E+02  3.047924737E+02  1.250000000E+02  0.00000E+00  9.000E+00
      21     1     1     2   502   512  6.038963602E+01 -1.716487198E+01 -1.682712960E+02  1.796016983E+02  2.697398305E-06  0.00000E+00  9.000E+00
#rwgt            1           1   2.8398092763196350E-002           2      122730           0
</event>
<event>
      5   9999  3.79277E-02  2.30290E+01 -1.00000E+00  1.61469E-01
      21    -1     0     0   502   501  0.000000000E+00  0.000000000E+00  5.462768904E+02  5.462768904E+02  0.000000000E+00  0.00000E+00  9.000E+00
      21    -1     0     0   511   502  0.000000000E+00  0.000000000E+00 -1.408462388E+02  1.408462388E+02  0.000000000E+00  0.00000E+00  9.000E+00
      25     1     1     2     0     0  7.797132742E+01 -1.189718994E+01  4.706033125E+02  4.932682321E+02  1.250000000E+02  0.00000E+00  9.000E+00
      25     1     1     2     0     0 -6.648297475E+01 -8.061621396E+00 -2.008290501E+01  1.432246443E+02  1.250000000E+02  0.00000E+00  9.000E+00
      21     1     1     2   511   501 -1.148835267E+01  1.995881134E+01 -4.508975594E+01  5.063025270E+01  1.168007728E-06  0.00000E+00  9.000E+00
#rwgt            1           1   2.4517793670469201E-002           2      122899           0
</event>
<event>
      5   9999  3.79277E-02  2.67983E+01 -1.00000E+00  1.56524E-01
      21    -1     0     0   502   501  0.000000000E+00  0.000000000E+00  3.137646979E+02  3.137646979E+02  0.000000000E+00  0.00000E+00  9.000E+00
      21    -1     0     0   501   512  0.000000000E+00  0.000000000E+00 -4.439913258E+02  4.439913258E+02  0.000000000E+00  0.00000E+00  9.000E+00
      25     1     1     2     0     0 -1.801611645E+02 -1.285167632E+02  2.218438272E+01  2.551308497E+02  1.250000000E+02  0.00000E+00  9.000E+00
      25     1     1     2     0     0  2.053800478E+02  1.194527036E+02  7.093203194E+01  2.776801498E+02  1.250000000E+02  0.00000E+00  9.000E+00
      21     1     1     2   502   512 -2.521888335E+01  9.064059667E+00 -2.233430426E+02  2.249450242E+02  2.697398305E-06  0.00000E+00  9.000E+00
#rwgt            1           1   3.4477266495299246E-002           2      123022           0
</event>
<event>
      5   9999  3.79277E-02  1.84546E+02 -1.00000E+00  1.12934E-01
      21    -1     0     0   502   511  0.000000000E+00  0.000000000E+00  1.099156938E+03  1.099156938E+03  0.000000000E+00  0.00000E+00  9.000E+00
      21    -1     0     0   501   502  0.000000000E+00  0.000000000E+00 -8.255757238E+01  8.255757238E+01  0.000000000E+00  0.00000E+00  9.000E+00
      25     1     1     2     0     0  8.330922116E+01  2.246598913E+01  4.798631670E+02  5.033277322E+02  1.250000000E+02  0.00000E+00  9.000E+00
      25     1     1     2     0     0  1.012361912E+02 -2.199994124E+01  7.057868702E+01  1.770285708E+02  1.250000000E+02  0.00000E+00  9.000E+00
      21     1     1     2   501   511 -1.845454124E+02 -4.660478936E-01  4.661575117E+02  5.013582074E+02  7.629394531E-06  0.00000E+00  9.000E+00
#rwgt            1           1   3.8252002356652624E-002           2      123220           0
</event>
<event>
      5   9999  3.79277E-02  3.68207E+01 -1.00000E+00  1.47107E-01
      21    -1     0     0   512   501  0.000000000E+00  0.000000000E+00  3.615569457E+02  3.615569457E+02  0.000000000E+00  0.00000E+00  9.000E+00
      21    -1     0     0   501   502  0.000000000E+00  0.000000000E+00 -1.227947462E+02  1.227947462E+02  0.000000000E+00  0.00000E+00  9.000E+00
      25     1     1     2     0     0 -8.576390355E+01 -1.108592565E+02  4.582196287E+01  1.933128919E+02  1.250000000E+02  0.00000E+00  9.000E+00
      25     1     1     2     0     0  7.359014271E+01  7.610925268E+01  1.021056624E+02  1.930251117E+02  1.250000000E+02  0.00000E+00  9.000E+00
      21     1     1     2   512   502  1.217376083E+01  3.475000380E+01  9.083457423E+01  9.801368829E+01  0.000000000E+00  0.00000E+00  9.000E+00
#rwgt            1           1   3.6178990470515607E-002           2      123328           0
</event>
<event>
      5   9999  3.79277E-02  1.44516E+01 -1.00000E+00  1.78921E-01
      21    -1     0     0   502   511  0.000000000E+00  0.000000000E+00  1.612344264E+02  1.612344264E+02  0.000000000E+00  0.00000E+00  9.000E+00
      21    -1     0     0   501   502  0.000000000E+00  0.000000000E+00 -7.098216502E+02  7.098216502E+02  0.000000000E+00  0.00000E+00  9.000E+00
      25     1     1     2     0     0 -8.625244644E+01  9.181740565E+01 -4.785955654E+02  5.104396495E+02  1.250000000E+02  0.00000E+00  9.000E+00
      25     1     1     2     0     0  1.006577425E+02 -9.066106390E+01 -1.752680784E+02  2.543527255E+02  1.250000000E+02  0.00000E+00  9.000E+00
      21     1     1     2   501   511 -1.440529610E+01 -1.156341742E+00  1.052764200E+02  1.062637017E+02  0.000000000E+00  0.00000E+00  9.000E+00
#rwgt            1           1   4.4334117431557525E-002           2      123464           0
</event>
<event>
      5   9999  3.79277E-02  4.55796E+01 -1.00000E+00  1.41409E-01
      21    -1     0     0   502   501  0.000000000E+00  0.000000000E+00  2.849022487E+02  2.849022487E+02  0.000000000E+00  0.00000E+00  9.000E+00
      21    -1     0     0   512   502  0.000000000E+00  0.000000000E+00 -1.858276322E+02  1.858276322E+02  0.000000000E+00  0.00000E+00  9.000E+00
      25     1     1     2     0     0  2.501773234E+01 -1.384080820E+02 -2.372367361E+01  1.896588959E+02  1.250000000E+02  0.00000E+00  9.000E+00
      25     1     1     2     0     0  2.055248126E+01  1.393349308E+02  1.375109071E+02  2.331756355E+02  1.250000000E+02  0.00000E+00  9.000E+00
      21     1     1     2   512   501 -4.557021360E+01 -9.268488424E-01 -1.471261694E+01  4.789534960E+01  9.233911863E-07  0.00000E+00  9.000E+00
#rwgt            1           1   2.3061517288564308E-002           2      123750           0
</event>
<event>
      5   9999  3.79277E-02  1.91047E+01 -1.00000E+00  1.68027E-01
      21    -1     0     0   511   501  0.000000000E+00  0.000000000E+00  5.971107181E+02  5.971107181E+02  0.000000000E+00  0.00000E+00  9.000E+00
      21    -1     0     0   501   502  0.000000000E+00  0.000000000E+00 -7.868132719E+01  7.868132719E+01  0.000000000E+00  0.00000E+00  9.000E+00
      25     1     1     2     0     0  1.385854273E+02 -1.354555439E+01  3.528766974E+02  3.994200374E+02  1.250000000E+02  0.00000E+00  9.000E+00
      25     1     1     2     0     0 -1.571779755E+02  9.151716977E+00  1.424080658E+02  2.463609692E+02  1.250000000E+02  0.00000E+00  9.000E+00
      21     1     1     2   511   502  1.859254820E+01  4.393837411E+00  2.314462772E+01  3.001103877E+01  3.371747881E-07  0.00000E+00  9.000E+00
#rwgt            1           1  0.13845787810318050                2      123867           0
</event>
<event>
      5   9999  3.79277E-02  1.26006E+01 -1.00000E+00  1.84825E-01
      21    -1     0     0   502   501  0.000000000E+00  0.000000000E+00  2.213368514E+02  2.213368514E+02  0.000000000E+00  0.00000E+00  9.000E+00
      21    -1     0     0   512   502  0.000000000E+00  0.000000000E+00 -1.772598162E+02  1.772598162E+02  0.000000000E+00  0.00000E+00  9.000E+00
      25     1     1     2     0     0  1.125984685E+02 -9.149458840E+01  3.798018752E+01  1.952361889E+02  1.250000000E+02  0.00000E+00  9.000E+00
      25     1     1     2     0     0 -1.007682658E+02  8.715627736E+01  2.094509671E+01  1.838862615E+02  1.250000000E+02  0.00000E+00  9.000E+00
      21     1     1     2   512   501 -1.183020270E+01  4.338311044E+00 -1.484824903E+01  1.947421726E+01  2.920019320E-07  0.00000E+00  9.000E+00
#rwgt            1           1   4.0663000777397339E-002           2      123979           0
</event>
<event>
      5   9999  3.79277E-02  1.37283E+02 -1.00000E+00  1.17939E-01
      21    -1     0     0   511   501  0.000000000E+00  0.000000000E+00  1.179656223E+03  1.179656223E+03  0.000000000E+00  0.00000E+00  9.000E+00
      21    -1     0     0   501   502  0.000000000E+00  0.000000000E+00 -3.206933845E+02  3.206933845E+02  0.000000000E+00  0.00000E+00  9.000E+00
      25     1     1     2     0     0 -3.232692816E+02 -2.396266206E+02  6.039847479E+02  7.364417977E+02  1.250000000E+02  0.00000E+00  9.000E+00
      25     1     1     2     0     0  1.864104329E+02  2.504067583E+02 -1.258831943E+02  3.590598456E+02  1.250000000E+02  0.00000E+00  9.000E+00
      21     1     1     2   511   502  1.368588487E+02 -1.078013771E+01  3.808612852E+02  4.048479645E+02  0.000000000E+00  0.00000E+00  9.000E+00
#rwgt            1           1  0.10032152222686365                2      124125           0
</event>
<event>
      5   9999  3.79277E-02  6.07520E+01 -1.00000E+00  1.34415E-01
      21    -1     0     0   502   501  0.000000000E+00  0.000000000E+00  7.039281116E+02  7.039281116E+02  0.000000000E+00  0.00000E+00  9.000E+00
      21    -1     0     0   501   512  0.000000000E+00  0.000000000E+00 -2.151795133E+02  2.151795133E+02  0.000000000E+00  0.00000E+00  9.000E+00
      25     1     1     2     0     0  2.827828560E+02 -6.333206527E+01  3.004245123E+02  4.357258103E+02  1.250000000E+02  0.00000E+00  9.000E+00
      25     1     1     2     0     0 -2.454333484E+02  1.112467365E+02  2.562124710E+02  3.922794861E+02  1.250000000E+02  0.00000E+00  9.000E+00
      21     1     1     2   502   512 -3.734950756E+01 -4.791467126E+01 -6.788838502E+01  9.110232850E+01  1.348699152E-06  0.00000E+00  9.000E+00
#rwgt            1           1   3.0840577012292661E-002           2      124267           0
</event>
<event>
      5   9999  3.79277E-02  1.25251E+01 -1.00000E+00  1.85093E-01
      21    -1     0     0   502   501  0.000000000E+00  0.000000000E+00  6.480768649E+02  6.480768649E+02  0.000000000E+00  0.00000E+00  9.000E+00
      21    -1     0     0   501   511  0.000000000E+00  0.000000000E+00 -7.109075004E+01  7.109075004E+01  0.000000000E+00  0.00000E+00  9.000E+00
      25     1     1     2     0     0 -9.098405888E+01  9.929323585E+01  4.194476563E+02  4.579285775E+02  1.250000000E+02  0.00000E+00  9.000E+00
      25     1     1     2     0     0  1.033573703E+02 -1.012373722E+02  1.589428447E+02  2.486354347E+02  1.250000000E+02  0.00000E+00  9.000E+00
      21     1     1     2   502   511 -1.237331139E+01  1.944136327E+00 -1.404386219E+00  1.260360272E+01  2.759733674E-07  0.00000E+00  9.000E+00
#rwgt            1           1   4.3182501590833006E-002           2      124404           0
</event>
<event>
      5   9999  3.79277E-02  1.75776E+02 -1.00000E+00  1.13728E-01
      21    -1     0     0   502   512  0.000000000E+00  0.000000000E+00  1.091260002E+03  1.091260002E+03  0.000000000E+00  0.00000E+00  9.000E+00
      21    -1     0     0   501   502  0.000000000E+00  0.000000000E+00 -3.354719878E+02  3.354719878E+02  0.000000000E+00  0.00000E+00  9.000E+00
      25     1     1     2     0     0 -1.223232200E+02  1.179272061E+02 -2.602985304E+02  3.350374919E+02  1.250000000E+02  0.00000E+00  9.000E+00
      25     1     1     2     0     0  8.916543987E+01  5.469315419E+01  2.056219468E+02  2.623875031E+02  1.250000000E+02  0.00000E+00  9.000E+00
      21     1     1     2   501   512  3.315778008E+01 -1.726203603E+02  8.104645981E+02  8.293069950E+02  1.525878906E-05  0.00000E+00  9.000E+00
#rwgt            2          11   1.6962023961210489E-003           2      124590           0
</event>
<event>
      5   9999  3.79277E-02  1.79655E+01 -1.00000E+00  1.70307E-01
       2    -1     0     0   502     0  0.000000000E+00  0.000000000E+00  7.855386561E+02  7.855386561E+02  0.000000000E+00  0.00000E+00  9.000E+00
      21    -1     0     0   501   502  0.000000000E+00  0.000000000E+00 -5.661260429E+01  5.661260429E+01  0.000000000E+00  0.00000E+00  9.000E+00
      25     1     1     2     0     0 -5.527993942E+01 -1.329118406E+02  4.663639954E+02  5.038271581E+02  1.250000000E+02  0.00000E+00  9.000E+00
      25     1     1     2     0     0  3.734741304E+01  1.339998649E+02  2.025702518E+02  2.757000181E+02  1.250000000E+02  0.00000E+00  9.000E+00
       2     1     1     2   501     0  1.793252638E+01 -1.088024339E+00  5.999180456E+01  6.262408414E+01  6.743495762E-07  0.00000E+00  9.000E+00
#rwgt            1           1   3.9309126913183709E-002           2      124610           0
</event>
<event>
      5   9999 -3.79277E-02  2.57157E+01 -1.00000E+00  1.57838E-01
      21    -1     0     0   502   501  0.000000000E+00  0.000000000E+00  3.829620648E+02  3.829620648E+02  0.000000000E+00  0.00000E+00  9.000E+00
       2    -1     0     0   501     0  0.000000000E+00  0.000000000E+00 -3.081204674E+02  3.081204674E+02  0.000000000E+00  0.00000E+00  9.000E+00
      25     1     1     2     0     0 -2.143114367E+02 -1.838091391E+02  7.282234952E+01  3.172432601E+02  1.250000000E+02  0.00000E+00  9.000E+00
      25     1     1     2     0     0  2.361930681E+02  1.973181294E+02  3.271907798E+01  3.337920725E+02  1.250000000E+02  0.00000E+00  9.000E+00
       2     1     1     2   502     0 -2.188163139E+01 -1.350899035E+01 -3.069983010E+01  4.004719942E+01  4.768371582E-07  0.00000E+00  9.000E+00
#rwgt            1           1 -0.19196088658480676                2      124882           0
</event>
<event>
      5   9999  3.79277E-02  1.16015E+02 -1.00000E+00  1.20994E-01
       2    -1     0     0   502     0  0.000000000E+00  0.000000000E+00  1.832059183E+03  1.832059183E+03  0.000000000E+00  0.00000E+00  9.000E+00
      21    -1     0     0   501   502  0.000000000E+00  0.000000000E+00 -1.631670478E+02  1.631670478E+02  0.000000000E+00  0.00000E+00  9.000E+00
      25     1     1     2     0     0  8.844664371E+01 -1.523472690E+02  1.541714172E+02  2.653795867E+02  1.250000000E+02  0.00000E+00  9.000E+00
      25     1     1     2     0     0 -1.133027499E+02  3.902662399E+01 -3.426614974E+01  1.765212722E+02  1.250000000E+02  0.00000E+00  9.000E+00
       2     1     1     2   501     0  2.485610616E+01  1.133206450E+02  1.548986868E+03  1.553325372E+03  2.157918644E-05  0.00000E+00  9.000E+00
#rwgt            1           1   4.4290983830775080E-002           2      125133           0
</event>
<event>
      5   9999 -3.79277E-02  4.80126E+01 -1.00000E+00  1.40088E-01
       2    -1     0     0   502     0  0.000000000E+00  0.000000000E+00  2.063787451E+03  2.063787451E+03  0.000000000E+00  0.00000E+00  9.000E+00
      21    -1     0     0   501   502  0.000000000E+00  0.000000000E+00 -3.684178831E+01  3.684178831E+01  0.000000000E+00  0.00000E+00  9.000E+00
      25     1     1     2     0     0  2.326469124E+01  2.061641813E+02  6.142482634E+02  6.602808831E+02  1.250000000E+02  0.00000E+00  9.000E+00
      25     1     1     2     0     0 -5.970755501E+01 -1.749051464E+02  9.844252831E+02  1.009393353E+03  1.250000000E+02  0.00000E+00  9.000E+00
       2     1     1     2   501     0  3.644286377E+01 -3.125903490E+01  4.282721164E+02  4.309550037E+02  0.000000000E+00  0.00000E+00  9.000E+00
#rwgt            1           1 -0.26220681596282019                2      125268           0
</event>
<event>
      5   9999  3.79277E-02  1.38735E+01 -1.00000E+00  1.80638E-01
      21    -1     0     0   511   501  0.000000000E+00  0.000000000E+00  3.390926378E+01  3.390926378E+01  0.000000000E+00  0.00000E+00  9.000E+00
      21    -1     0     0   501   502  0.000000000E+00  0.000000000E+00 -1.024586985E+03  1.024586985E+03  0.000000000E+00  0.00000E+00  9.000E+00
      25     1     1     2     0     0 -1.846158302E+01 -1.302880245E+02 -5.667844015E+02  5.951347387E+02  1.250000000E+02  0.00000E+00  9.000E+00
      25     1     1     2     0     0  1.237102008E+01  1.178228718E+02 -4.032769621E+02  4.385117779E+02  1.250000000E+02  0.00000E+00  9.000E+00
      21     1     1     2   511   502  6.090562940E+00  1.246515277E+01 -2.061635811E+01  2.484973264E+01  2.384185791E-07  0.00000E+00  9.000E+00
#rwgt            1           1   3.2906241095534812E-002           2      125378           0
</event>
<event>
      5   9999 -4.64949E-02  9.28747E+01 -1.00000E+00  1.25289E-01
      21    -1     0     0   502   501  0.000000000E+00  0.000000000E+00  3.847174243E+02  3.847174243E+02  0.000000000E+00  0.00000E+00  9.000E+00
      21    -1     0     0   501   512  0.000000000E+00  0.000000000E+00 -4.530599461E+02  4.530599461E+02  0.000000000E+00  0.00000E+00  9.000E+00
      25     1     1     2     0     0 -2.527032933E+02  1.786118191E+02 -2.349154197E+02  4.081315851E+02  1.250000000E+02  0.00000E+00  9.000E+00
      25     1     1     2     0     0  1.618025343E+02 -1.976582273E+02  1.788725715E+02  3.359601640E+02  1.250000000E+02  0.00000E+00  9.000E+00
      21     1     1     2   502   512  9.090075901E+01  1.904640822E+01 -1.229967356E+01  9.368562123E+01  4.460403188E-07  0.00000E+00  9.000E+00
#rwgt            1           1 -0.56504505282856887                2      125710           0
</event>
<event>
      5   9999  3.79277E-02  8.84396E+00 -1.00000E+00  2.02134E-01
      21    -1     0     0   502   511  0.000000000E+00  0.000000000E+00  1.631051840E+02  1.631051840E+02  0.000000000E+00  0.00000E+00  9.000E+00
      21    -1     0     0   501   502  0.000000000E+00  0.000000000E+00 -1.270302118E+02  1.270302118E+02  0.000000000E+00  0.00000E+00  9.000E+00
      25     1     1     2     0     0 -3.953812053E+01 -3.981000221E+01 -3.441149077E-01  1.370153921E+02  1.250000000E+02  0.00000E+00  9.000E+00
      25     1     1     2     0     0  4.837394683E+01  3.943083224E+01  3.248355099E+01  1.434399190E+02  1.250000000E+02  0.00000E+00  9.000E+00
      21     1     1     2   501   511 -8.835826301E+00  3.791699686E-01  3.935536100E+00  9.680084745E+00  9.424321831E-08  0.00000E+00  9.000E+00
#rwgt            1           1   3.5320800183710310E-002           2      125811           0
</event>
<event>
      5   9999  3.79277E-02  3.79540E+01 -1.00000E+00  1.46269E-01
      21    -1     0     0   502   501  0.000000000E+00  0.000000000E+00  1.534790941E+02  1.534790941E+02  0.000000000E+00  0.00000E+00  9.000E+00
      21    -1     0     0   512   502  0.000000000E+00  0.000000000E+00 -3.457657644E+02  3.457657644E+02  0.000000000E+00  0.00000E+00  9.000E+00
      25     1     1     2     0     0  1.144373755E+02 -1.054787105E+02 -1.387957564E+02  2.431274013E+02  1.250000000E+02  0.00000E+00  9.000E+00
      25     1     1     2     0     0 -8.762607033E+01  1.323424977E+02 -1.583690293E+01  2.026540707E+02  1.250000000E+02  0.00000E+00  9.000E+00
      21     1     1     2   512   501 -2.681130519E+01 -2.686378717E+01 -3.765401095E+01  5.346338642E+01  6.743495762E-07  0.00000E+00  9.000E+00
#rwgt            1           1   3.3471440176985140E-002           2      126076           0
</event>
<event>
      5   9999  3.79277E-02  1.88203E+01 -1.00000E+00  1.68577E-01
      21    -1     0     0   502   511  0.000000000E+00  0.000000000E+00  1.291726562E+02  1.291726562E+02  0.000000000E+00  0.00000E+00  9.000E+00
      21    -1     0     0   501   502  0.000000000E+00  0.000000000E+00 -4.704693436E+02  4.704693436E+02  0.000000000E+00  0.00000E+00  9.000E+00
      25     1     1     2     0     0  3.913131847E+01 -1.514627121E+02 -2.444673745E+02  3.160087189E+02  1.250000000E+02  0.00000E+00  9.000E+00
      25     1     1     2     0     0 -2.458325643E+01  1.634024553E+02 -1.306368859E+02  2.449401863E+02  1.250000000E+02  0.00000E+00  9.000E+00
      21     1     1     2   501   511 -1.454806204E+01 -1.193974321E+01  3.380757304E+01  3.869309462E+01  9.536743164E-07  0.00000E+00  9.000E+00
#rwgt            1           1   4.6214455392682298E-002           2      126229           0
</event>
<event>
      5   9999  3.79277E-02  6.66422E+01 -1.00000E+00  1.32311E-01
      21    -1     0     0   502   512  0.000000000E+00  0.000000000E+00  6.273080481E+02  6.273080481E+02  0.000000000E+00  0.00000E+00  9.000E+00
      21    -1     0     0   501   502  0.000000000E+00  0.000000000E+00 -9.334209161E+01  9.334209161E+01  0.000000000E+00  0.00000E+00  9.000E+00
      25     1     1     2     0     0  1.567644782E+02  1.006309450E+02  1.610038153E+02  2.761320649E+02  1.250000000E+02  0.00000E+00  9.000E+00
      25     1     1     2     0     0 -1.009275959E+02 -6.425205858E+01  2.945412529E+02  3.416054102E+02  1.250000000E+02  0.00000E+00  9.000E+00
      21     1     1     2   501   512 -5.583688234E+01 -3.637888645E+01  7.842088819E+01  1.029126645E+02  2.336015456E-06  0.00000E+00  9.000E+00
#rwgt            1           1  0.15987196552233199                2      126375           0
</event>
<event>
      5   9999  3.79277E-02  4.99556E+01 -1.00000E+00  1.39098E-01
      21    -1     0     0   502   501  0.000000000E+00  0.000000000E+00  3.629063164E+01  3.629063164E+01  0.000000000E+00  0.00000E+00  9.000E+00
      -2    -1     0     0     0   502  0.000000000E+00  0.000000000E+00 -1.355576864E+03  1.355576864E+03  0.000000000E+00  0.00000E+00  9.000E+00
      25     1     1     2     0     0  1.011167101E+02  1.984314557E+01 -3.096539432E+02  3.494694608E+02  1.250000000E+02  0.00000E+00  9.000E+00
      25     1     1     2     0     0 -1.497509240E+02 -8.429339356E+00 -6.318966364E+02  6.613733833E+02  1.250000000E+02  0.00000E+00  9.000E+00
      -2     1     1     2     0   501  4.863421394E+01 -1.141380621E+01 -3.777356522E+02  3.810246511E+02  0.000000000E+00  0.00000E+00  9.000E+00
#rwgt            1           1   2.2035697175401069E-002           2      126492           0
</event>
<event>
      5   9999  3.79277E-02  9.17153E+00 -1.00000E+00  2.00201E-01
      21    -1     0     0   502   511  0.000000000E+00  0.000000000E+00  8.710648515E+01  8.710648515E+01  0.000000000E+00  0.00000E+00  9.000E+00
      21    -1     0     0   501   502  0.000000000E+00  0.000000000E+00 -5.511744781E+02  5.511744781E+02  0.000000000E+00  0.00000E+00  9.000E+00
      25     1     1     2     0     0 -3.935303105E+01 -5.780155181E+01 -4.611567958E+02  4.828874307E+02  1.250000000E+02  0.00000E+00  9.000E+00
      25     1     1     2     0     0  4.739967738E+01  5.340059874E+01  3.836526217E+00  1.440071953E+02  1.250000000E+02  0.00000E+00  9.000E+00
      21     1     1     2   501   511 -8.046646330E+00  4.400953071E+00 -6.747723374E+00  1.138633724E+01  2.064765462E-07  0.00000E+00  9.000E+00
#rwgt            1           1   3.6733105397629487E-002           2      126615           0
</event>
<event>
      5   9999  3.79277E-02  5.35022E+01 -1.00000E+00  1.37419E-01
       2    -1     0     0   502     0  0.000000000E+00  0.000000000E+00  1.190410879E+03  1.190410879E+03  0.000000000E+00  0.00000E+00  9.000E+00
      21    -1     0     0   501   502  0.000000000E+00  0.000000000E+00 -4.735650312E+01  4.735650312E+01  0.000000000E+00  0.00000E+00  9.000E+00
      25     1     1     2     0     0  3.535085960E+01  2.861229856E+01  9.060704436E+02  9.157821769E+02  1.250000000E+02  0.00000E+00  9.000E+00
      25     1     1     2     0     0 -9.475275433E+00  1.821648293E+01  6.602365958E+01  1.428486777E+02  1.250000000E+02  0.00000E+00  9.000E+00
       2     1     1     2   501     0 -2.587558417E+01 -4.682878149E+01  1.709602731E+02  1.791365279E+02  0.000000000E+00  0.00000E+00  9.000E+00
#rwgt            1           1   4.3454965819163860E-002           2      126903           0
</event>
<event>
      5   9999  3.79277E-02  4.55933E+01 -1.00000E+00  1.41401E-01
      21    -1     0     0   502   501  0.000000000E+00  0.000000000E+00  1.044660038E+02  1.044660038E+02  0.000000000E+00  0.00000E+00  9.000E+00
      21    -1     0     0   501   511  0.000000000E+00  0.000000000E+00 -5.659537720E+02  5.659537720E+02  0.000000000E+00  0.00000E+00  9.000E+00
      25     1     1     2     0     0 -1.029848573E+02  1.484293529E+02 -3.129794165E+02  3.823849746E+02  1.250000000E+02  0.00000E+00  9.000E+00
      25     1     1     2     0     0  9.689788926E+01 -1.032442023E+02 -7.860834103E+01  2.045796606E+02  1.250000000E+02  0.00000E+00  9.000E+00
      21     1     1     2   502   511  6.086968041E+00 -4.518515066E+01 -6.990001064E+01  8.345514069E+01  1.348699152E-06  0.00000E+00  9.000E+00
#rwgt            1           1   2.4145518171389921E-002           2      127064           0
</event>
<event>
      5   9999  3.79277E-02  9.21052E+01 -1.00000E+00  1.25456E-01
      21    -1     0     0   502   512  0.000000000E+00  0.000000000E+00  6.921643780E+02  6.921643780E+02  0.000000000E+00  0.00000E+00  9.000E+00
      21    -1     0     0   501   502  0.000000000E+00  0.000000000E+00 -2.170057310E+02  2.170057310E+02  0.000000000E+00  0.00000E+00  9.000E+00
      25     1     1     2     0     0  1.048357746E+01  2.203929641E+02  2.253234266E+02  3.392323843E+02  1.250000000E+02  0.00000E+00  9.000E+00
      25     1     1     2     0     0 -5.739241525E+01 -1.411280703E+02 -9.086437722E+01  2.170077339E+02  1.250000000E+02  0.00000E+00  9.000E+00
      21     1     1     2   501   512  4.690883779E+01 -7.926489380E+01  3.406995977E+02  3.529299907E+02  6.607249480E-06  0.00000E+00  9.000E+00
#rwgt            2          11   1.3161754422893524E-003           2      127224           0
</event>
<event>
      5   9999  3.79277E-02  2.92101E+01 -1.00000E+00  1.53849E-01
      21    -1     0     0   502   501  0.000000000E+00  0.000000000E+00  1.499689068E+03  1.499689068E+03  0.000000000E+00  0.00000E+00  9.000E+00
      21    -1     0     0   511   502  0.000000000E+00  0.000000000E+00 -7.014105557E+02  7.014105557E+02  0.000000000E+00  0.00000E+00  9.000E+00
      25     1     1     2     0     0 -8.921286866E+01 -2.272497502E+02  6.439146391E+02  6.998945973E+02  1.250000000E+02  0.00000E+00  9.000E+00
      25     1     1     2     0     0  6.064671811E+01  2.211503565E+02  8.068492428E+02  8.480661561E+02  1.250000000E+02  0.00000E+00  9.000E+00
      21     1     1     2   511   501  2.856615055E+01  6.099393740E+00 -6.524853691E+02  6.531388707E+02  0.000000000E+00  0.00000E+00  9.000E+00
#rwgt            1           1   3.3036971421570277E-002           2      127244           0
</event>
<event>
      5   9999 -3.79277E-02  1.33459E+01 -1.00000E+00  1.82301E-01
       2    -1     0     0   502     0  0.000000000E+00  0.000000000E+00  4.670319955E+03  4.670319955E+03  0.000000000E+00  0.00000E+00  9.000E+00
      21    -1     0     0   501   502  0.000000000E+00  0.000000000E+00 -1.624436832E+02  1.624436832E+02  0.000000000E+00  0.00000E+00  9.000E+00
      25     1     1     2     0     0 -1.350678192E+02  3.009052522E+01  1.486093909E+02  2.384502182E+02  1.250000000E+02  0.00000E+00  9.000E+00
      25     1     1     2     0     0  1.236663047E+02 -2.315385161E+01 -5.059629984E+01  1.844300445E+02  1.250000000E+02  0.00000E+00  9.000E+00
       2     1     1     2   501     0  1.140151446E+01 -6.936673610E+00  4.409863181E+03  4.409883375E+03  0.000000000E+00  0.00000E+00  9.000E+00
#rwgt            1           1  -3.2139015654977017E-002           2      127421           0
</event>
<event>
      5   9999  3.79277E-02  1.43990E+01 -1.00000E+00  1.79073E-01
      21    -1     0     0   502   501  0.000000000E+00  0.000000000E+00  3.464653384E+02  3.464653384E+02  0.000000000E+00  0.00000E+00  9.000E+00
      21    -1     0     0   511   502  0.000000000E+00  0.000000000E+00 -4.307860118E+02  4.307860118E+02  0.000000000E+00  0.00000E+00  9.000E+00
      25     1     1     2     0     0  1.017617079E+02  7.113848306E+01 -2.608372314E+01  1.781052767E+02  1.250000000E+02  0.00000E+00  9.000E+00
      25     1     1     2     0     0 -9.560691235E+01 -8.415574927E+01  2.408232689E+02  2.997394179E+02  1.250000000E+02  0.00000E+00  9.000E+00
      21     1     1     2   511   501 -6.154795590E+00  1.301726621E+01 -2.990602191E+02  2.994066556E+02  3.814697266E-06  0.00000E+00  9.000E+00
#rwgt            1           1   6.3157011583542012E-003           2      127620           0
</event>
<event>
      5   9999  3.79277E-02  1.39266E+01 -1.00000E+00  1.80476E-01
      21    -1     0     0   502   512  0.000000000E+00  0.000000000E+00  5.430332950E+01  5.430332950E+01  0.000000000E+00  0.00000E+00  9.000E+00
      21    -1     0     0   501   502  0.000000000E+00  0.000000000E+00 -3.326502295E+03  3.326502295E+03  0.000000000E+00  0.00000E+00  9.000E+00
      25     1     1     2     0     0  2.078028946E+02 -8.129774806E+01 -5.549894512E+02  6.110889115E+02  1.250000000E+02  0.00000E+00  9.000E+00
      25     1     1     2     0     0 -2.093822970E+02  6.746102074E+01 -2.735249380E+03  2.746926666E+03  1.250000000E+02  0.00000E+00  9.000E+00
      21     1     1     2   501   512  1.579402366E+00  1.383672732E+01  1.803986530E+01  2.279004771E+01  2.185142372E-06  0.00000E+00  9.000E+00
#rwgt            1           1   2.7164807851741312E-002           2      127796           0
</event>
<event>
      5   9999  3.79277E-02  5.72167E+01 -1.00000E+00  1.35815E-01
      -3    -1     0     0     0   501  0.000000000E+00  0.000000000E+00  2.578392314E+02  2.578392314E+02  0.000000000E+00  0.00000E+00  9.000E+00
      21    -1     0     0   501   502  0.000000000E+00  0.000000000E+00 -2.076818895E+03  2.076818895E+03  0.000000000E+00  0.00000E+00  9.000E+00
      25     1     1     2     0     0  1.573022024E+02  1.205911290E+02 -1.216182390E+03  1.238551900E+03  1.250000000E+02  0.00000E+00  9.000E+00
      25     1     1     2     0     0 -1.260065633E+02 -7.269198227E+01 -8.351095670E+02  8.568516600E+02  1.250000000E+02  0.00000E+00  9.000E+00
      -3     1     1     2     0   502 -3.129563902E+01 -4.789914670E+01  2.323122941E+02  2.392545658E+02  6.607249480E-06  0.00000E+00  9.000E+00
#rwgt            1           1   8.0734523022015503E-002           2      128040           0
</event>
<event>
      5   9999  3.79277E-02  1.92474E+01 -1.00000E+00  1.67755E-01
      21    -1     0     0   502   501  0.000000000E+00  0.000000000E+00  4.067979616E+02  4.067979616E+02  0.000000000E+00  0.00000E+00  9.000E+00
      21    -1     0     0   511   502  0.000000000E+00  0.000000000E+00 -1.145814104E+02  1.145814104E+02  0.000000000E+00  0.00000E+00  9.000E+00
      25     1     1     2     0     0 -2.352800585E+01  1.124383021E+02  2.834412304E+02  3.303935077E+02  1.250000000E+02  0.00000E+00  9.000E+00
      25     1     1     2     0     0  4.156612047E+01 -1.057234170E+02  1.757806324E+01  1.698209987E+02  1.250000000E+02  0.00000E+00  9.000E+00
      21     1     1     2   511   501 -1.803811462E+01 -6.714885024E+00 -8.802742487E+00  2.116486558E+01  5.591411304E-07  0.00000E+00  9.000E+00
#rwgt            1           1   3.0847781874422744E-002           2      128225           0
</event>
<event>
      5   9999  3.79277E-02  4.90591E+01 -1.00000E+00  1.39548E-01
      21    -1     0     0   502   512  0.000000000E+00  0.000000000E+00  2.703383157E+02  2.703383157E+02  0.000000000E+00  0.00000E+00  9.000E+00
      21    -1     0     0   501   502  0.000000000E+00  0.000000000E+00 -6.604019428E+02  6.604019428E+02  0.000000000E+00  0.00000E+00  9.000E+00
      25     1     1     2     0     0  2.891272682E+02  1.156141188E+02  3.948885213E+01  3.378543637E+02  1.250000000E+02  0.00000E+00  9.000E+00
      25     1     1     2     0     0 -2.615331872E+02 -1.561771629E+02 -4.326921901E+02  5.437264437E+02  1.250000000E+02  0.00000E+00  9.000E+00
      21     1     1     2   501   512 -2.759408100E+01  4.056304413E+01  3.139710838E+00  4.915945117E+01  8.658074764E-07  0.00000E+00  9.000E+00
#rwgt            1           1   5.1082201712321917E-002           2      128374           0
</event>
<event>
      5   9999  3.79277E-02  4.95112E+01 -1.00000E+00  1.39319E-01
      21    -1     0     0   502   501  0.000000000E+00  0.000000000E+00  1.161750993E+02  1.161750993E+02  0.000000000E+00  0.00000E+00  9.000E+00
       2    -1     0     0   501     0  0.000000000E+00  0.000000000E+00 -6.659489374E+02  6.659489374E+02  0.000000000E+00  0.00000E+00  9.000E+00
      25     1     1     2     0     0 -7.086641810E+00  9.750436902E+01  1.282923192E+01  1.592071345E+02  1.250000000E+02  0.00000E+00  9.000E+00
      25     1     1     2     0     0  5.284739284E+01 -7.860174011E+01 -1.869774658E+02  2.440423185E+02  1.250000000E+02  0.00000E+00  9.000E+00
       2     1     1     2   502     0 -4.576075103E+01 -1.890262891E+01 -3.756256042E+02  3.788745838E+02  5.394796609E-06  0.00000E+00  9.000E+00
#rwgt            1           1   3.3627056849881279E-002           2      128533           0
</event>
<event>
      5   9999  3.79277E-02  9.82274E+01 -1.00000E+00  1.24178E-01
      21    -1     0     0   511   501  0.000000000E+00  0.000000000E+00  3.619413223E+02  3.619413223E+02  0.000000000E+00  0.00000E+00  9.000E+00
      21    -1     0     0   501   502  0.000000000E+00  0.000000000E+00 -1.655023667E+02  1.655023667E+02  0.000000000E+00  0.00000E+00  9.000E+00
      25     1     1     2     0     0 -1.502416385E+00  5.140119305E+01  1.628322631E+02  2.116215628E+02  1.250000000E+02  0.00000E+00  9.000E+00
      25     1     1     2     0     0 -9.571809426E+01 -6.542927375E+01 -5.940431349E+01  1.805458831E+02  1.250000000E+02  0.00000E+00  9.000E+00
      21     1     1     2   511   502  9.722051065E+01  1.402808070E+01  9.301100597E+01  1.352762432E+02  2.697398305E-06  0.00000E+00  9.000E+00
#rwgt            1           1   4.3475469330965293E-002           2      128662           0
</event>
<event>
      5   9999  3.79277E-02  2.99554E+02 -1.00000E+00  1.05613E-01
      21    -1     0     0   512   501  0.000000000E+00  0.000000000E+00  4.434852724E+02  4.434852724E+02  0.000000000E+00  0.00000E+00  9.000E+00
      21    -1     0     0   501   502  0.000000000E+00  0.000000000E+00 -1.064843366E+03  1.064843366E+03  0.000000000E+00  0.00000E+00  9.000E+00
      25     1     1     2     0     0 -1.328673769E+02  3.861156092E+02 -2.953836531E+02  5.192451310E+02  1.250000000E+02  0.00000E+00  9.000E+00
      25     1     1     2     0     0 -1.664249467E+02 -3.986225338E+02 -4.753476224E+02  6.543527715E+02  1.250000000E+02  0.00000E+00  9.000E+00
      21     1     1     2   512   502  2.992923237E+02  1.250692461E+01  1.493731818E+02  3.347307360E+02  7.387129490E-06  0.00000E+00  9.000E+00
#rwgt            1           1   3.6633773045519534E-002           2      128753           0
</event>
<event>
      5   9999  3.79277E-02  2.13768E+01 -1.00000E+00  1.64018E-01
      21    -1     0     0   502   501  0.000000000E+00  0.000000000E+00  6.460962338E+01  6.460962338E+01  0.000000000E+00  0.00000E+00  9.000E+00
       2    -1     0     0   501     0  0.000000000E+00  0.000000000E+00 -1.654548879E+03  1.654548879E+03  0.000000000E+00  0.00000E+00  9.000E+00
      25     1     1     2     0     0 -1.350648510E+01 -1.146402176E+02 -2.370309450E+02  2.917764102E+02  1.250000000E+02  0.00000E+00  9.000E+00
      25     1     1     2     0     0  3.348249979E+01  1.222512864E+02 -1.761855356E+02  2.504651628E+02  1.250000000E+02  0.00000E+00  9.000E+00
       2     1     1     2   502     0 -1.997601469E+01 -7.611068722E+00 -1.176722775E+03  1.176916929E+03  1.525878906E-05  0.00000E+00  9.000E+00
#rwgt            1           1   2.4859652793833537E-002           2      128823           0
</event>
<event>
      5   9999  3.79277E-02  1.21581E+01 -1.00000E+00  1.86432E-01
      21    -1     0     0   511   501  0.000000000E+00  0.000000000E+00  4.834597863E+02  4.834597863E+02  0.000000000E+00  0.00000E+00  9.000E+00
      21    -1     0     0   501   502  0.000000000E+00  0.000000000E+00 -7.466825055E+01  7.466825055E+01  0.000000000E+00  0.00000E+00  9.000E+00
      25     1     1     2     0     0  4.191713136E+01  1.405102173E+01  1.165695533E+01  1.330990673E+02  1.250000000E+02  0.00000E+00  9.000E+00
      25     1     1     2     0     0 -5.353713937E+01 -1.762810019E+01  3.802862253E+02  4.042518873E+02  1.250000000E+02  0.00000E+00  9.000E+00
      21     1     1     2   511   502  1.162000801E+01  3.577078465E+00  1.684835505E+01  2.077708219E+01  2.384185791E-07  0.00000E+00  9.000E+00
#rwgt            1           1   5.0846518040151049E-002           2      129028           0
</event>
<event>
      5   9999  3.79277E-02  3.80550E+01 -1.00000E+00  1.46196E-01
      21    -1     0     0   512   501  0.000000000E+00  0.000000000E+00  1.258887311E+02  1.258887311E+02  0.000000000E+00  0.00000E+00  9.000E+00
      21    -1     0     0   501   502  0.000000000E+00  0.000000000E+00 -6.880734178E+02  6.880734178E+02  0.000000000E+00  0.00000E+00  9.000E+00
      25     1     1     2     0     0  1.579257486E+01  7.065966983E+01 -6.192205862E+02  6.358469381E+02  1.250000000E+02  0.00000E+00  9.000E+00
      25     1     1     2     0     0 -3.836320765E+00 -3.453165404E+01  3.603581661E+01  1.346504087E+02  1.250000000E+02  0.00000E+00  9.000E+00
      21     1     1     2   512   502 -1.195625409E+01 -3.612801579E+01  2.100008292E+01  4.346480208E+01  1.283923342E-06  0.00000E+00  9.000E+00
#rwgt            1           1   3.9117405039248432E-002           2      129316           0
</event>
<event>
      5   9999  3.79277E-02  2.42595E+01 -1.00000E+00  1.59735E-01
      21    -1     0     0   502   501  0.000000000E+00  0.000000000E+00  8.720553675E+02  8.720553675E+02  0.000000000E+00  0.00000E+00  9.000E+00
      21    -1     0     0   511   502  0.000000000E+00  0.000000000E+00 -1.242405935E+02  1.242405935E+02  0.000000000E+00  0.00000E+00  9.000E+00
      25     1     1     2     0     0  5.719365955E+01  1.044521526E+02  6.888799835E+02  7.101844820E+02  1.250000000E+02  0.00000E+00  9.000E+00
      25     1     1     2     0     0 -3.533404803E+01 -1.149725811E+02  1.262561050E+02  2.145525423E+02  1.250000000E+02  0.00000E+00  9.000E+00
      21     1     1     2   511   501 -2.185961152E+01  1.052042845E+01 -6.732131455E+01  7.155893671E+01  0.000000000E+00  0.00000E+00  9.000E+00
#rwgt            1           1   4.5080249967636689E-002           2      129480           0
</event>
<event>
      5   9999  3.79277E-02  4.10435E+01 -1.00000E+00  1.44150E-01
      -1    -1     0     0     0   501  0.000000000E+00  0.000000000E+00  6.175200608E+02  6.175200608E+02  0.000000000E+00  0.00000E+00  9.000E+00
      21    -1     0     0   501   502  0.000000000E+00  0.000000000E+00 -3.669248178E+02  3.669248178E+02  0.000000000E+00  0.00000E+00  9.000E+00
      25     1     1     2     0     0  1.734309408E+02  1.595490295E+02 -1.712790950E+02  3.170105873E+02  1.250000000E+02  0.00000E+00  9.000E+00
      25     1     1     2     0     0 -1.782891284E+02 -1.187940522E+02  4.535276720E+00  2.480818592E+02  1.250000000E+02  0.00000E+00  9.000E+00
      -1     1     1     2     0   502  4.858187665E+00 -4.075497736E+01  4.173390613E+02  4.193524320E+02  5.394796609E-06  0.00000E+00  9.000E+00
#rwgt            1           1   6.3813221153472127E-002           2      129667           0
</event>
<event>
      5   9999  3.79277E-02  6.30685E+00 -1.00000E+00  2.22160E-01
      21    -1     0     0   511   501  0.000000000E+00  0.000000000E+00  4.249865126E+02  4.249865126E+02  0.000000000E+00  0.00000E+00  9.000E+00
      21    -1     0     0   501   502  0.000000000E+00  0.000000000E+00 -2.004790835E+02  2.004790835E+02  0.000000000E+00  0.00000E+00  9.000E+00
      25     1     1     2     0     0  1.128910208E+02  1.046463155E+02 -2.925062596E+01  2.004391006E+02  1.250000000E+02  0.00000E+00  9.000E+00
      25     1     1     2     0     0 -1.073141252E+02 -1.075915774E+02  2.749870019E+01  1.986792578E+02  1.250000000E+02  0.00000E+00  9.000E+00
      21     1     1     2   511   502 -5.576895629E+00  2.945261809E+00  2.262593548E+02  2.263472376E+02  0.000000000E+00  0.00000E+00  9.000E+00
#rwgt            1           1   8.8447810851953523E-002           2      129834           0
</event>
<event>
      5   9999  3.79277E-02  6.48862E+01 -1.00000E+00  1.32911E-01
      21    -1     0     0   502   512  0.000000000E+00  0.000000000E+00  6.889822758E+02  6.889822758E+02  0.000000000E+00  0.00000E+00  9.000E+00
      21    -1     0     0   501   502  0.000000000E+00  0.000000000E+00 -1.393322512E+02  1.393322512E+02  0.000000000E+00  0.00000E+00  9.000E+00
      25     1     1     2     0     0  5.340035655E+00 -4.344014455E+00  4.474025828E+02  4.645874057E+02  1.250000000E+02  0.00000E+00  9.000E+00
      25     1     1     2     0     0 -4.942788283E+01  5.195153212E+01 -8.379137190E+01  1.666975444E+02  1.250000000E+02  0.00000E+00  9.000E+00
      21     1     1     2   501   512  4.408784718E+01 -4.760751767E+01  1.860388137E+02  1.970295770E+02  0.000000000E+00  0.00000E+00  9.000E+00
#rwgt            1           1   4.1849315657911015E-002           2      130111           0
</event>
<event>
      5   9999  3.79277E-02  4.76819E+02 -1.00000E+00  9.94413E-02
      21    -1     0     0   502   501  0.000000000E+00  0.000000000E+00  3.066477862E+02  3.066477862E+02  0.000000000E+00  0.00000E+00  9.000E+00
      21    -1     0     0   511   502  0.000000000E+00  0.000000000E+00 -2.280460420E+03  2.280460420E+03  0.000000000E+00  0.00000E+00  9.000E+00
      25     1     1     2     0     0 -6.173989003E+02 -1.576318909E+02 -6.355741663E+02  9.086301425E+02  1.250000000E+02  0.00000E+00  9.000E+00
      25     1     1     2     0     0  1.828417945E+02 -3.862332057E+01  3.250900508E+01  2.271667187E+02  1.250000000E+02  0.00000E+00  9.000E+00
      21     1     1     2   511   501  4.345571058E+02  1.962552114E+02 -1.370747473E+03  1.451311345E+03  2.642899792E-05  0.00000E+00  9.000E+00
#rwgt            1           1   4.0464946131461434E-002           2      130204           0
</event>
<event>
      5   9999  3.79277E-02  3.62111E+01 -1.00000E+00  1.47572E-01
      21    -1     0     0   502   501  0.000000000E+00  0.000000000E+00  4.839657508E+02  4.839657508E+02  0.000000000E+00  0.00000E+00  9.000E+00
       4    -1     0     0   501     0  0.000000000E+00  0.000000000E+00 -3.630841771E+02  3.630841771E+02  0.000000000E+00  0.00000E+00  9.000E+00
      25     1     1     2     0     0 -8.422437397E+01 -2.039406540E+02  1.113512663E+02  2.769650520E+02  1.250000000E+02  0.00000E+00  9.000E+00
      25     1     1     2     0     0  4.936547193E+01  2.137436274E+02  2.330809535E+02  3.436204577E+02  1.250000000E+02  0.00000E+00  9.000E+00
       4     1     1     2   502     0  3.485890204E+01 -9.802973410E+00 -2.235506461E+02  2.264644182E+02  0.000000000E+00  0.00000E+00  9.000E+00
#rwgt            1           1   3.2855815432650315E-002           2      130253           0
</event>
<event>
      5   9999  3.79277E-02  3.86438E+01 -1.00000E+00  1.45775E-01
      21    -1     0     0   502   501  0.000000000E+00  0.000000000E+00  6.986233515E+02  6.986233515E+02  0.000000000E+00  0.00000E+00  9.000E+00
      21    -1     0     0   511   502  0.000000000E+00  0.000000000E+00 -1.100630684E+02  1.100630684E+02  0.000000000E+00  0.00000E+00  9.000E+00
      25     1     1     2     0     0  9.392279457E+01 -5.361047793E+01  5.991399055E+02  6.215216819E+02  1.250000000E+02  0.00000E+00  9.000E+00
      25     1     1     2     0     0 -7.513435248E+01  1.984159485E+01 -1.635267332E+01  1.480920988E+02  1.250000000E+02  0.00000E+00  9.000E+00
      21     1     1     2   511   501 -1.878844209E+01  3.376888308E+01  5.773050867E+00  3.907263924E+01  5.397430145E-07  0.00000E+00  9.000E+00
#rwgt            1           1   4.2863298125946636E-002           2      130455           0
</event>
<event>
      5   9999  3.79277E-02  7.59341E+00 -1.00000E+00  2.10677E-01
      21    -1     0     0   502   501  0.000000000E+00  0.000000000E+00  2.035107105E+02  2.035107105E+02  0.000000000E+00  0.00000E+00  9.000E+00
       2    -1     0     0   501     0  0.000000000E+00  0.000000000E+00 -7.707046556E+02  7.707046556E+02  0.000000000E+00  0.00000E+00  9.000E+00
      25     1     1     2     0     0 -6.892986527E+01 -1.738663550E+02  4.394008822E+01  2.292085667E+02  1.250000000E+02  0.00000E+00  9.000E+00
      25     1     1     2     0     0  6.171381015E+01  1.715023731E+02 -1.156088974E+02  2.494234862E+02  1.250000000E+02  0.00000E+00  9.000E+00
       2     1     1     2   502     0  7.216055122E+00  2.363981906E+00 -4.955251360E+02  4.955833132E+02  7.629394531E-06  0.00000E+00  9.000E+00
#rwgt            1           1   3.6339954859199580E-002           2      130531           0
</event>
<event>
      5   9999  3.79277E-02  7.38224E+01 -1.00000E+00  1.30062E-01
      21    -1     0     0   502   501  0.000000000E+00  0.000000000E+00  5.191055990E+02  5.191055990E+02  0.000000000E+00  0.00000E+00  9.000E+00
      21    -1     0     0   501   511  0.000000000E+00  0.000000000E+00 -2.571666098E+02  2.571666098E+02  0.000000000E+00  0.00000E+00  9.000E+00
      25     1     1     2     0     0 -5.747822273E+01  8.624914138E+00 -8.814193416E+01  1.636219294E+02  1.250000000E+02  0.00000E+00  9.000E+00
      25     1     1     2     0     0  1.279927068E+02 -3.047570239E+01  4.518454009E+02  4.869293252E+02  1.250000000E+02  0.00000E+00  9.000E+00
      21     1     1     2   502   511 -7.051448409E+01  2.185078825E+01 -1.017644775E+02  1.257209541E+02  1.348699152E-06  0.00000E+00  9.000E+00
#rwgt            1           1   4.3655773357881046E-002           2      130854           0
</event>
<event>
      5   9999  3.79277E-02  1.63325E+01 -1.00000E+00  1.73971E-01
      21    -1     0     0   502   501  0.000000000E+00  0.000000000E+00  1.755741567E+02  1.755741567E+02  0.000000000E+00  0.00000E+00  9.000E+00
      21    -1     0     0   501   512  0.000000000E+00  0.000000000E+00 -7.983310744E+02  7.983310744E+02  0.000000000E+00  0.00000E+00  9.000E+00
      25     1     1     2     0     0 -1.392744179E+02  2.055702168E+02 -1.797349533E+02  3.310379600E+02  1.250000000E+02  0.00000E+00  9.000E+00
      25     1     1     2     0     0  1.229433856E+02 -2.053494823E+02 -8.301341067E+01  2.824884286E+02  1.250000000E+02  0.00000E+00  9.000E+00
      21     1     1     2   502   512  1.633103227E+01 -2.207345005E-01 -3.600085538E+02  3.603788425E+02  6.607249480E-06  0.00000E+00  9.000E+00
#rwgt            1           1   3.2693854218798363E-002           2      130972           0
</event>
<event>
      5   9999  3.79277E-02  4.91240E+00 -1.00000E+00  2.44075E-01
      21    -1     0     0   502   501  0.000000000E+00  0.000000000E+00  1.004085741E+02  1.004085741E+02  0.000000000E+00  0.00000E+00  9.000E+00
      21    -1     0     0   501   511  0.000000000E+00  0.000000000E+00 -3.953420433E+02  3.953420433E+02  0.000000000E+00  0.00000E+00  9.000E+00
      25     1     1     2     0     0 -1.010771701E+02 -1.010967924E+02 -2.074312819E+02  2.812292525E+02  1.250000000E+02  0.00000E+00  9.000E+00
      25     1     1     2     0     0  9.775077916E+01  1.047115906E+02 -8.172746921E+01  2.069398735E+02  1.250000000E+02  0.00000E+00  9.000E+00
      21     1     1     2   502   511  3.326390929E+00 -3.614798113E+00 -5.774718164E+00  7.581491403E+00  1.460009660E-07  0.00000E+00  9.000E+00
#rwgt            1           1  0.16760889092651662                2      131187           0
</event>
<event>
      5   9999  3.79277E-02  1.10635E+02 -1.00000E+00  1.21885E-01
       1    -1     0     0   502     0  0.000000000E+00  0.000000000E+00  4.657232558E+02  4.657232558E+02  0.000000000E+00  0.00000E+00  9.000E+00
      21    -1     0     0   501   502  0.000000000E+00  0.000000000E+00 -5.360957216E+02  5.360957216E+02  0.000000000E+00  0.00000E+00  9.000E+00
      25     1     1     2     0     0  1.681731078E+02  1.056996426E+02 -1.801076590E+02  2.958350511E+02  1.250000000E+02  0.00000E+00  9.000E+00
      25     1     1     2     0     0 -1.025535293E+02 -1.947737682E+02 -2.340970198E+02  3.447904607E+02  1.250000000E+02  0.00000E+00  9.000E+00
       1     1     1     2   501     0 -6.561957842E+01  8.907412554E+01  3.438322129E+02  3.611934656E+02  5.394796609E-06  0.00000E+00  9.000E+00
#rwgt            1           1   4.0844855510500239E-002           2      131513           0
</event>
<event>
      5   9999  3.79277E-02  3.88787E+01 -1.00000E+00  1.45610E-01
      21    -1     0     0   502   501  0.000000000E+00  0.000000000E+00  5.569201994E+02  5.569201994E+02  0.000000000E+00  0.00000E+00  9.000E+00
      21    -1     0     0   501   511  0.000000000E+00  0.000000000E+00 -7.150892165E+02  7.150892165E+02  0.000000000E+00  0.00000E+00  9.000E+00
      25     1     1     2     0     0 -1.574396906E+01  5.561235583E+01  4.088392598E+02  4.314106478E+02  1.250000000E+02  0.00000E+00  9.000E+00
      25     1     1     2     0     0  3.368119849E+01 -2.111879705E+01  1.046596002E+02  1.678066108E+02  1.250000000E+02  0.00000E+00  9.000E+00
      21     1     1     2   502   511 -1.793722944E+01 -3.449355878E+01 -6.716678771E+02  6.727921573E+02  0.000000000E+00  0.00000E+00  9.000E+00
#rwgt            1           1   3.6069471777078622E-002           2      131590           0
</event>
<event>
      5   9999  3.79277E-02  7.23356E+01 -1.00000E+00  1.30503E-01
      21    -1     0     0   512   501  0.000000000E+00  0.000000000E+00  4.409853415E+02  4.409853415E+02  0.000000000E+00  0.00000E+00  9.000E+00
      21    -1     0     0   501   502  0.000000000E+00  0.000000000E+00 -3.744640678E+02  3.744640678E+02  0.000000000E+00  0.00000E+00  9.000E+00
      25     1     1     2     0     0  2.681539623E+02  8.916677541E+01 -1.671908949E+02  3.513332559E+02  1.250000000E+02  0.00000E+00  9.000E+00
      25     1     1     2     0     0 -3.022750264E+02 -2.538436108E+01  1.818718795E+02  3.751225639E+02  1.250000000E+02  0.00000E+00  9.000E+00
      21     1     1     2   512   502  3.412106413E+01 -6.378241434E+01  5.184028912E+01  8.899358950E+01  9.536743164E-07  0.00000E+00  9.000E+00
#rwgt            1           1   3.5635622125202063E-002           2      131768           0
</event>
<event>
      5   9999  3.79277E-02  1.73957E+01 -1.00000E+00  1.71528E-01
      21    -1     0     0   511   501  0.000000000E+00  0.000000000E+00  1.365069537E+02  1.365069537E+02  0.000000000E+00  0.00000E+00  9.000E+00
      21    -1     0     0   501   502  0.000000000E+00  0.000000000E+00 -4.233206140E+02  4.233206140E+02  0.000000000E+00  0.00000E+00  9.000E+00
      25     1     1     2     0     0 -2.977904674E+01  2.466613273E+01 -2.987792972E+02  3.261736932E+02  1.250000000E+02  0.00000E+00  9.000E+00
      25     1     1     2     0     0  4.607673805E+01 -3.074861009E+01 -6.737855944E+01  1.524251065E+02  1.250000000E+02  0.00000E+00  9.000E+00
      21     1     1     2   511   502 -1.629769131E+01  6.082477356E+00  7.934419626E+01  8.122876801E+01  1.348699152E-06  0.00000E+00  9.000E+00
#rwgt            1           1   3.5693743837919664E-002           2      131901           0
</event>
<event>
      5   9999  3.79277E-02  5.28277E+01 -1.00000E+00  1.37726E-01
      21    -1     0     0   502   501  0.000000000E+00  0.000000000E+00  1.497656598E+02  1.497656598E+02  0.000000000E+00  0.00000E+00  9.000E+00
      21    -1     0     0   512   502  0.000000000E+00  0.000000000E+00 -3.303880439E+02  3.303880439E+02  0.000000000E+00  0.00000E+00  9.000E+00
      25     1     1     2     0     0 -2.001148234E+01 -4.595433437E+00  7.628848942E+01  1.478732939E+02  1.250000000E+02  0.00000E+00  9.000E+00
      25     1     1     2     0     0  2.698131246E+01  5.696134429E+01 -1.160471228E+02  1.818365218E+02  1.250000000E+02  0.00000E+00  9.000E+00
      21     1     1     2   512   501 -6.969830125E+00 -5.236591086E+01 -1.408637507E+02  1.504438879E+02  0.000000000E+00  0.00000E+00  9.000E+00
#rwgt            1           1   3.1702983214734137E-002           2      132130           0
</event>
<event>
      5   9999  3.79277E-02  5.36830E+01 -1.00000E+00  1.37337E-01
      21    -1     0     0   511   501  0.000000000E+00  0.000000000E+00  3.023581348E+02  3.023581348E+02  0.000000000E+00  0.00000E+00  9.000E+00
      21    -1     0     0   501   502  0.000000000E+00  0.000000000E+00 -6.401857381E+02  6.401857381E+02  0.000000000E+00  0.00000E+00  9.000E+00
      25     1     1     2     0     0 -1.021076394E+02 -8.084913478E+00 -1.176132823E+02  1.998730098E+02  1.250000000E+02  0.00000E+00  9.000E+00
      25     1     1     2     0     0  8.125825298E+01  5.755376473E+01 -4.651931909E+02  4.918790953E+02  1.250000000E+02  0.00000E+00  9.000E+00
      21     1     1     2   511   502  2.084938647E+01 -4.946885126E+01  2.449788699E+02  2.507917679E+02  0.000000000E+00  0.00000E+00  9.000E+00
#rwgt            1           1   4.1467102179026417E-002           2      132283           0
</event>
<event>
      5   9999  3.79277E-02  1.27825E+02 -1.00000E+00  1.19215E-01
       2    -1     0     0   502     0  0.000000000E+00  0.000000000E+00  4.676541916E+02  4.676541916E+02  0.000000000E+00  0.00000E+00  9.000E+00
      21    -1     0     0   501   502  0.000000000E+00  0.000000000E+00 -6.115378056E+02  6.115378056E+02  0.000000000E+00  0.00000E+00  9.000E+00
      25     1     1     2     0     0 -1.913887315E+02 -6.995612120E+01 -1.815357383E+02  3.001728331E+02  1.250000000E+02  0.00000E+00  9.000E+00
      25     1     1     2     0     0  1.784040862E+02 -5.720792473E+01 -3.244824941E+02  3.949869031E+02  1.250000000E+02  0.00000E+00  9.000E+00
       2     1     1     2   501     0  1.298464525E+01  1.271640459E+02  3.621346184E+02  3.840322610E+02  7.629394531E-06  0.00000E+00  9.000E+00
#rwgt            1           1   3.0693759949394325E-002           2      132363           0
</event>
<event>
      5   9999  3.79277E-02  6.34653E+01 -1.00000E+00  1.33413E-01
      21    -1     0     0   502   511  0.000000000E+00  0.000000000E+00  1.895863221E+03  1.895863221E+03  0.000000000E+00  0.00000E+00  9.000E+00
      21    -1     0     0   501   502  0.000000000E+00  0.000000000E+00 -8.279377725E+01  8.279377725E+01  0.000000000E+00  0.00000E+00  9.000E+00
      25     1     1     2     0     0  1.999887440E+02 -4.639298371E+01  1.330196232E+03  1.351737705E+03  1.250000000E+02  0.00000E+00  9.000E+00
      25     1     1     2     0     0 -1.559247808E+02  9.206810003E+01  1.050860358E+02  2.438383629E+02  1.250000000E+02  0.00000E+00  9.000E+00
      21     1     1     2   501   511 -4.406396318E+01 -4.567511632E+01  3.777871752E+02  3.830809299E+02  5.394796609E-06  0.00000E+00  9.000E+00
#rwgt            1           1   4.4868275313998493E-002           2      132400           0
</event>
<event>
      5   9999  3.79277E-02  3.27089E+01 -1.00000E+00  1.50477E-01
      21    -1     0     0   512   501  0.000000000E+00  0.000000000E+00  1.907242343E+02  1.907242343E+02  0.000000000E+00  0.00000E+00  9.000E+00
      21    -1     0     0   501   502  0.000000000E+00  0.000000000E+00 -2.320407602E+02  2.320407602E+02  0.000000000E+00  0.00000E+00  9.000E+00
      25     1     1     2     0     0 -9.530451033E+01 -1.976931217E+01 -1.210885703E+02  1.994021496E+02  1.250000000E+02  0.00000E+00  9.000E+00
      25     1     1     2     0     0  1.145725462E+02  4.620064972E+01  7.056663032E+01  1.893832561E+02  1.250000000E+02  0.00000E+00  9.000E+00
      21     1     1     2   512   502 -1.926803589E+01 -2.643133756E+01  9.205414113E+00  3.397958889E+01  2.665600750E-07  0.00000E+00  9.000E+00
#rwgt            1           1   4.5174045454849848E-002           2      132485           0
</event>
<event>
      5   9999  3.79277E-02  5.01654E+01 -1.00000E+00  1.38994E-01
      21    -1     0     0   502   511  0.000000000E+00  0.000000000E+00  2.888095034E+02  2.888095034E+02  0.000000000E+00  0.00000E+00  9.000E+00
      21    -1     0     0   501   502  0.000000000E+00  0.000000000E+00 -2.519881071E+02  2.519881071E+02  0.000000000E+00  0.00000E+00  9.000E+00
      25     1     1     2     0     0 -6.176994897E+01 -8.045799345E+01  4.954200985E+01  1.684292909E+02  1.250000000E+02  0.00000E+00  9.000E+00
      25     1     1     2     0     0  2.696649456E+01  4.432921658E+01 -1.642057737E+02  2.127928744E+02  1.250000000E+02  0.00000E+00  9.000E+00
      21     1     1     2   501   511  3.480345441E+01  3.612877687E+01  1.514851601E+02  1.595754452E+02  2.697398305E-06  0.00000E+00  9.000E+00
#rwgt            1           1   4.2409934365051714E-002           2      132736           0
</event>
<event>
      5   9999  3.79277E-02  6.51940E+01 -1.00000E+00  1.32804E-01
      21    -1     0     0   502   501  0.000000000E+00  0.000000000E+00  5.053561044E+02  5.053561044E+02  0.000000000E+00  0.00000E+00  9.000E+00
      21    -1     0     0   501   512  0.000000000E+00  0.000000000E+00 -1.335985346E+02  1.335985346E+02  0.000000000E+00  0.00000E+00  9.000E+00
      25     1     1     2     0     0 -1.562144501E+02 -8.003844438E+01  2.731100168E+02  3.478838719E+02  1.250000000E+02  0.00000E+00  9.000E+00
      25     1     1     2     0     0  1.074825660E+02  3.673185616E+01  1.351843250E+02  2.163366196E+02  1.250000000E+02  0.00000E+00  9.000E+00
      21     1     1     2   502   512  4.873188412E+01  4.330658822E+01 -3.653677191E+01  7.473414758E+01  1.066240300E-06  0.00000E+00  9.000E+00
#rwgt            1           1   8.9873371958287596E-002           2      132809           0
</event>
<event>
      5   9999  3.79277E-02  4.00352E+01 -1.00000E+00  1.44816E-01
      21    -1     0     0   511   501  0.000000000E+00  0.000000000E+00  9.939170922E+01  9.939170922E+01  0.000000000E+00  0.00000E+00  9.000E+00
      21    -1     0     0   501   502  0.000000000E+00  0.000000000E+00 -5.664526500E+02  5.664526500E+02  0.000000000E+00  0.00000E+00  9.000E+00
      25     1     1     2     0     0  1.256301302E+02 -7.342181584E+01 -2.318793857E+02  3.009430880E+02  1.250000000E+02  0.00000E+00  9.000E+00
      25     1     1     2     0     0 -1.495694611E+02  4.133246404E+01 -2.521842492E+02  3.214051832E+02  1.250000000E+02  0.00000E+00  9.000E+00
      21     1     1     2   511   502  2.393933088E+01  3.208935180E+01  1.700269417E+01  4.349608800E+01  4.768371582E-07  0.00000E+00  9.000E+00
#rwgt            1           1   4.1868656108063187E-002           2      132954           0
</event>
<event>
      5   9999  3.79277E-02  1.28730E+01 -1.00000E+00  1.83877E-01
      21    -1     0     0   502   501  0.000000000E+00  0.000000000E+00  8.323554150E+01  8.323554150E+01  0.000000000E+00  0.00000E+00  9.000E+00
       1    -1     0     0   501     0  0.000000000E+00  0.000000000E+00 -3.947300677E+03  3.947300677E+03  0.000000000E+00  0.00000E+00  9.000E+00
      25     1     1     2     0     0 -4.580452905E+01  1.664075357E+02 -1.740034141E+02  2.751212659E+02  1.250000000E+02  0.00000E+00  9.000E+00
      25     1     1     2     0     0  3.339016465E+01 -1.698132271E+02 -3.161597952E+02  3.814884681E+02  1.250000000E+02  0.00000E+00  9.000E+00
       1     1     1     2   502     0  1.241436440E+01  3.405691374E+00 -3.373901927E+03  3.373926485E+03  4.315837288E-05  0.00000E+00  9.000E+00
#rwgt            1           1   3.8507286252187717E-002           2      133129           0
</event>
<event>
      5   9999  3.79277E-02  6.65610E+01 -1.00000E+00  1.32338E-01
      21    -1     0     0   511   501  0.000000000E+00  0.000000000E+00  7.749190766E+01  7.749190766E+01  0.000000000E+00  0.00000E+00  9.000E+00
      21    -1     0     0   501   502  0.000000000E+00  0.000000000E+00 -7.223589646E+02  7.223589646E+02  0.000000000E+00  0.00000E+00  9.000E+00
      25     1     1     2     0     0 -5.633048808E+01  1.412154023E+02 -1.920172094E+02  2.749736759E+02  1.250000000E+02  0.00000E+00  9.000E+00
      25     1     1     2     0     0  1.113613440E+02 -1.037725387E+02 -3.638407593E+02  4.137332316E+02  1.250000000E+02  0.00000E+00  9.000E+00
      21     1     1     2   511   502 -5.503085592E+01 -3.744286353E+01 -8.900908823E+01  1.111439648E+02  2.132480600E-06  0.00000E+00  9.000E+00
#rwgt            1           1   3.5253706869872496E-002           2      133369           0
</event>
<event>
      5   9999  3.79277E-02  3.64879E+01 -1.00000E+00  1.47360E-01
      21    -1     0     0   502   512  0.000000000E+00  0.000000000E+00  7.832246234E+01  7.832246234E+01  0.000000000E+00  0.00000E+00  9.000E+00
      21    -1     0     0   501   502  0.000000000E+00  0.000000000E+00 -5.550206366E+02  5.550206366E+02  0.000000000E+00  0.00000E+00  9.000E+00
      25     1     1     2     0     0 -4.165705463E+01  4.284716328E+01 -4.222107070E+01  1.448406311E+02  1.250000000E+02  0.00000E+00  9.000E+00
      25     1     1     2     0     0  7.702689680E+01 -5.181064659E+01 -4.222155733E+02  4.500094179E+02  1.250000000E+02  0.00000E+00  9.000E+00
      21     1     1     2   501   512 -3.536984217E+01  8.963483312E+00 -1.226153033E+01  3.849304995E+01  3.769728732E-07  0.00000E+00  9.000E+00
#rwgt            1           1   3.7423372644351915E-002           2      133461           0
</event>
<event>
      5   9999  3.79277E-02  1.71553E+01 -1.00000E+00  1.72061E-01
      21    -1     0     0   502   511  0.000000000E+00  0.000000000E+00  1.100530926E+03  1.100530926E+03  0.000000000E+00  0.00000E+00  9.000E+00
      21    -1     0     0   501   502  0.000000000E+00  0.000000000E+00 -6.649758565E+02  6.649758565E+02  0.000000000E+00  0.00000E+00  9.000E+00
      25     1     1     2     0     0  3.894097932E+01 -1.107004398E+02 -4.911780716E+02  5.202421410E+02  1.250000000E+02  0.00000E+00  9.000E+00
      25     1     1     2     0     0 -4.434191817E+01  1.269834092E+02 -1.062467407E+02  2.121423150E+02  1.250000000E+02  0.00000E+00  9.000E+00
      21     1     1     2   501   511  5.400938851E+00 -1.628296941E+01  1.032979882E+03  1.033122327E+03  0.000000000E+00  0.00000E+00  9.000E+00
#rwgt            1           1   5.0130589072372334E-002           2      133602           0
</event>
<event>
      5   9999  3.79277E-02  1.80865E+01 -1.00000E+00  1.70055E-01
      21    -1     0     0   502   501  0.000000000E+00  0.000000000E+00  8.798303610E+01  8.798303610E+01  0.000000000E+00  0.00000E+00  9.000E+00
       1    -1     0     0   501     0  0.000000000E+00  0.000000000E+00 -1.717656443E+03  1.717656443E+03  0.000000000E+00  0.00000E+00  9.000E+00
      25     1     1     2     0     0  1.550134662E+02  2.514422074E+01 -2.454631558E+02  3.170781724E+02  1.250000000E+02  0.00000E+00  9.000E+00
      25     1     1     2     0     0 -1.418997676E+02 -3.760025935E+01 -1.262331332E+02  2.304541765E+02  1.250000000E+02  0.00000E+00  9.000E+00
       1     1     1     2   502     0 -1.311369862E+01  1.245603861E+01 -1.257977117E+03  1.258107130E+03  2.157918644E-05  0.00000E+00  9.000E+00
#rwgt            1           1   4.6748435087291582E-002           2      133825           0
</event>
<event>
      5   9999  3.79277E-02  1.72755E+01 -1.00000E+00  1.71793E-01
      21    -1     0     0   502   501  0.000000000E+00  0.000000000E+00  1.800342766E+02  1.800342766E+02  0.000000000E+00  0.00000E+00  9.000E+00
      21    -1     0     0   511   502  0.000000000E+00  0.000000000E+00 -2.287528144E+02  2.287528144E+02  0.000000000E+00  0.00000E+00  9.000E+00
      25     1     1     2     0     0 -1.487636494E+01 -3.981479088E+01 -1.621447052E+02  2.090990895E+02  1.250000000E+02  0.00000E+00  9.000E+00
      25     1     1     2     0     0  1.407255606E+01  5.707154144E+01  1.181612637E+02  1.817753611E+02  1.250000000E+02  0.00000E+00  9.000E+00
      21     1     1     2   511   501  8.038088713E-01 -1.725675056E+01 -4.735096392E+00  1.791264040E+01  2.665600750E-07  0.00000E+00  9.000E+00
#rwgt            1           1   4.6076750048144655E-002           2      134024           0
</event>
<event>
      5   9999  3.79277E-02  1.94623E+01 -1.00000E+00  1.67352E-01
       4    -1     0     0   502     0  0.000000000E+00  0.000000000E+00  1.349757542E+02  1.349757542E+02  0.000000000E+00  0.00000E+00  9.000E+00
      21    -1     0     0   501   502  0.000000000E+00  0.000000000E+00 -8.890454127E+02  8.890454127E+02  0.000000000E+00  0.00000E+00  9.000E+00
      25     1     1     2     0     0 -9.829001342E+01  9.732949953E+01 -2.124634973E+02  2.826653426E+02  1.250000000E+02  0.00000E+00  9.000E+00
      25     1     1     2     0     0  1.158632759E+02 -1.056939037E+02 -6.246535734E+02  6.560583714E+02  1.250000000E+02  0.00000E+00  9.000E+00
       4     1     1     2   501     0 -1.757326248E+01  8.364404139E+00  8.304741215E+01  8.529745293E+01  2.523185073E-06  0.00000E+00  9.000E+00
#rwgt            1           1   4.3258674702989573E-002           2      134371           0
</event>
<event>
      5   9999 -3.79277E-02  1.03559E+01 -1.00000E+00  1.94018E-01
      21    -1     0     0   502   501  0.000000000E+00  0.000000000E+00  4.760186036E+02  4.760186036E+02  0.000000000E+00  0.00000E+00  9.000E+00
      21    -1     0     0   511   502  0.000000000E+00  0.000000000E+00 -7.911719165E+02  7.911719165E+02  0.000000000E+00  0.00000E+00  9.000E+00
      25     1     1     2     0     0 -1.077390823E+02  8.066884230E+01  2.642268393E+02  3.218011725E+02  1.250000000E+02  0.00000E+00  9.000E+00
      25     1     1     2     0     0  9.754235008E+01 -7.885997546E+01  1.401203357E+02  2.258143358E+02  1.250000000E+02  0.00000E+00  9.000E+00
      21     1     1     2   511   501  1.019673222E+01 -1.808866835E+00 -7.195004880E+02  7.195750117E+02  1.321449896E-05  0.00000E+00  9.000E+00
#rwgt            1           1  -1.9367126379902143E-002           2      134529           0
</event>
<event>
      5   9999  3.79277E-02  2.02334E+01 -1.00000E+00  1.65954E-01
      21    -1     0     0   502   501  0.000000000E+00  0.000000000E+00  4.841056730E+01  4.841056730E+01  0.000000000E+00  0.00000E+00  9.000E+00
      21    -1     0     0   501   512  0.000000000E+00  0.000000000E+00 -1.269280468E+03  1.269280468E+03  0.000000000E+00  0.00000E+00  9.000E+00
      25     1     1     2     0     0  7.066934903E+01 -1.540960016E+02 -2.830243302E+02  3.527995268E+02  1.250000000E+02  0.00000E+00  9.000E+00
      25     1     1     2     0     0 -8.156667170E+01  1.370478161E+02 -7.858156962E+02  8.115211238E+02  1.250000000E+02  0.00000E+00  9.000E+00
      21     1     1     2   502   512  1.089732267E+01  1.704818548E+01 -1.520298744E+02  1.533703849E+02  2.697398305E-06  0.00000E+00  9.000E+00
#rwgt            1           1   3.6504472685109896E-002           2      134857           0
</event>
<event>
      5   9999  3.79277E-02  3.07642E+02 -1.00000E+00  1.05238E-01
      21    -1     0     0   502   501  0.000000000E+00  0.000000000E+00  3.560435228E+02  3.560435228E+02  0.000000000E+00  0.00000E+00  9.000E+00
       2    -1     0     0   501     0  0.000000000E+00  0.000000000E+00 -1.218491583E+03  1.218491583E+03  0.000000000E+00  0.00000E+00  9.000E+00
      25     1     1     2     0     0  1.559979509E+02 -2.958696989E+02 -8.188036464E+00  3.571642246E+02  1.250000000E+02  0.00000E+00  9.000E+00
      25     1     1     2     0     0 -2.659863858E+01  1.676485001E+01  1.318506834E+02  1.843858739E+02  1.250000000E+02  0.00000E+00  9.000E+00
       2     1     1     2   502     0 -1.293993123E+02  2.791048489E+02 -9.861107074E+02  1.032985008E+03  0.000000000E+00  0.00000E+00  9.000E+00
#rwgt            2          13   6.3453125639576901E-004           2      135068           0
</event>
<event>
      5   9999  3.79277E-02  1.57576E+02 -1.00000E+00  1.15552E-01
      21    -1     0     0   502   501  0.000000000E+00  0.000000000E+00  2.373712489E+02  2.373712489E+02  0.000000000E+00  0.00000E+00  9.000E+00
      21    -1     0     0   511   502  0.000000000E+00  0.000000000E+00 -4.609795091E+02  4.609795091E+02  0.000000000E+00  0.00000E+00  9.000E+00
      25     1     1     2     0     0 -2.396848267E+01 -3.455894420E+01 -2.383054475E+02  2.723661049E+02  1.250000000E+02  0.00000E+00  9.000E+00
      25     1     1     2     0     0  4.085532239E+00  1.908756992E+02  9.729154073E+01  2.480743195E+02  1.250000000E+02  0.00000E+00  9.000E+00
      21     1     1     2   511   501  1.988295043E+01 -1.563167550E+02 -8.259435336E+01  1.779103336E+02  2.697398305E-06  0.00000E+00  9.000E+00
#rwgt            1           1   3.7653649163478582E-002           2      135087           0
</event>
<event>
      5   9999  3.79277E-02  4.18009E+01 -1.00000E+00  1.43664E-01
      21    -1     0     0   502   501  0.000000000E+00  0.000000000E+00  2.645497241E+01  2.645497241E+01  0.000000000E+00  0.00000E+00  9.000E+00
      21    -1     0     0   512   502  0.000000000E+00  0.000000000E+00 -1.103622558E+03  1.103622558E+03  0.000000000E+00  0.00000E+00  9.000E+00
      25     1     1     2     0     0 -5.996060894E+01  1.056061223E+01 -4.241951501E+02  4.464004105E+02  1.250000000E+02  0.00000E+00  9.000E+00
      25     1     1     2     0     0  3.040574665E+01 -4.012120169E+01 -3.081031520E+02  3.362837679E+02  1.250000000E+02  0.00000E+00  9.000E+00
      21     1     1     2   512   501  2.955486229E+01  2.956058945E+01 -3.448692839E+02  3.473933524E+02  5.394796609E-06  0.00000E+00  9.000E+00
#rwgt            1           1   2.8171497892951845E-002           2      135131           0
</event>
<event>
      5   9999  3.79277E-02  3.05257E+01 -1.00000E+00  1.52518E-01
      21    -1     0     0   502   501  0.000000000E+00  0.000000000E+00  6.089071724E+01  6.089071724E+01  0.000000000E+00  0.00000E+00  9.000E+00
      21    -1     0     0   501   511  0.000000000E+00  0.000000000E+00 -1.266678156E+03  1.266678156E+03  0.000000000E+00  0.00000E+00  9.000E+00
      25     1     1     2     0     0 -4.073101170E+01 -1.257784090E+02 -1.137447918E+02  2.145742323E+02  1.250000000E+02  0.00000E+00  9.000E+00
      25     1     1     2     0     0  6.809860667E+01  1.122568364E+02 -8.559538809E+02  8.749406058E+02  1.250000000E+02  0.00000E+00  9.000E+00
      21     1     1     2   502   511 -2.736759496E+01  1.352157268E+01 -2.360887665E+02  2.380540356E+02  2.697398305E-06  0.00000E+00  9.000E+00
#rwgt            1           1   4.2926764696092995E-002           2      135427           0
</event>
<event>
      5   9999  3.79277E-02  2.07533E+01 -1.00000E+00  1.65055E-01
      21    -1     0     0   502   501  0.000000000E+00  0.000000000E+00  6.825528837E+01  6.825528837E+01  0.000000000E+00  0.00000E+00  9.000E+00
      21    -1     0     0   512   502  0.000000000E+00  0.000000000E+00 -8.290389719E+02  8.290389719E+02  0.000000000E+00  0.00000E+00  9.000E+00
      25     1     1     2     0     0 -1.763907773E+02 -2.109942507E+00 -2.758319897E+02  3.504660393E+02  1.250000000E+02  0.00000E+00  9.000E+00
      25     1     1     2     0     0  1.913496305E+02 -1.227516259E+01 -4.158881895E+02  4.747139632E+02  1.250000000E+02  0.00000E+00  9.000E+00
      21     1     1     2   512   501 -1.495885324E+01  1.438510509E+01 -6.906350433E+01  7.211425774E+01  9.536743164E-07  0.00000E+00  9.000E+00
#rwgt            1           1   3.4144196263772707E-002           2      135603           0
</event>
<event>
      5   9999  3.79277E-02  1.50409E+01 -1.00000E+00  1.77272E-01
      21    -1     0     0   502   501  0.000000000E+00  0.000000000E+00  5.509882328E+02  5.509882328E+02  0.000000000E+00  0.00000E+00  9.000E+00
      21    -1     0     0   501   511  0.000000000E+00  0.000000000E+00 -2.398847299E+02  2.398847299E+02  0.000000000E+00  0.00000E+00  9.000E+00
      25     1     1     2     0     0  1.325973432E+02 -1.172598527E+01  8.132990149E+01  1.998977414E+02  1.250000000E+02  0.00000E+00  9.000E+00
      25     1     1     2     0     0 -1.363430514E+02 -2.840996804E+00  3.891540015E+02  4.308866856E+02  1.250000000E+02  0.00000E+00  9.000E+00
      21     1     1     2   502   511  3.745708279E+00  1.456698207E+01 -1.593804001E+02  1.600885356E+02  1.907348633E-06  0.00000E+00  9.000E+00
#rwgt            1           1   2.8435143734790121E-002           2      135897           0
</event>
<event>
      5   9999  3.79277E-02  1.98851E+02 -1.00000E+00  1.11739E-01
      21    -1     0     0   502   501  0.000000000E+00  0.000000000E+00  3.893748366E+02  3.893748366E+02  0.000000000E+00  0.00000E+00  9.000E+00
      21    -1     0     0   501   512  0.000000000E+00  0.000000000E+00 -2.818376549E+02  2.818376549E+02  0.000000000E+00  0.00000E+00  9.000E+00
      25     1     1     2     0     0  4.869147307E+01 -7.745793557E+00 -2.642808602E+01  1.369463420E+02  1.250000000E+02  0.00000E+00  9.000E+00
      25     1     1     2     0     0 -1.454407354E+02  1.814734821E+02  1.927599665E+02  3.269052415E+02  1.250000000E+02  0.00000E+00  9.000E+00
      21     1     1     2   502   512  9.674926238E+01 -1.737276885E+02 -5.879469878E+01  2.073609079E+02  3.932099939E-06  0.00000E+00  9.000E+00
#rwgt            1           1   3.7483656579271107E-002           2      136204           0
</event>
<event>
      5   9999  3.79277E-02  1.06098E+02 -1.00000E+00  1.22683E-01
      21    -1     0     0   502   511  0.000000000E+00  0.000000000E+00  6.852816285E+02  6.852816285E+02  0.000000000E+00  0.00000E+00  9.000E+00
      21    -1     0     0   501   502  0.000000000E+00  0.000000000E+00 -1.505892635E+02  1.505892635E+02  0.000000000E+00  0.00000E+00  9.000E+00
      25     1     1     2     0     0 -7.963556958E+01 -4.057824659E+01 -6.172512874E+01  1.656001496E+02  1.250000000E+02  0.00000E+00  9.000E+00
      25     1     1     2     0     0  5.038085382E+01  1.425634783E+02  4.338520301E+02  4.761461538E+02  1.250000000E+02  0.00000E+00  9.000E+00
      21     1     1     2   501   511  2.925471576E+01 -1.019852318E+02  1.625654637E+02  1.941245886E+02  2.697398305E-06  0.00000E+00  9.000E+00
#rwgt            1           1   4.1707108442778522E-002           2      136338           0
</event>
<event>
      5   9999  3.79277E-02  5.78805E+01 -1.00000E+00  1.35543E-01
      21    -1     0     0   502   501  0.000000000E+00  0.000000000E+00  1.223804947E+03  1.223804947E+03  0.000000000E+00  0.00000E+00  9.000E+00
      21    -1     0     0   512   502  0.000000000E+00  0.000000000E+00 -6.733848520E+02  6.733848520E+02  0.000000000E+00  0.00000E+00  9.000E+00
      25     1     1     2     0     0  3.216064865E+01  2.889033784E+02  3.929856342E+02  5.045415523E+02  1.250000000E+02  0.00000E+00  9.000E+00
      25     1     1     2     0     0  2.461048172E+01 -3.001812154E+02  7.392404643E+02  8.079702358E+02  1.250000000E+02  0.00000E+00  9.000E+00
      21     1     1     2   512   501 -5.677113037E+01  1.127783701E+01 -5.818060034E+02  5.846780109E+02  1.078959322E-05  0.00000E+00  9.000E+00
#rwgt            1           1   4.0365857227164667E-002           2      136492           0
</event>
<event>
      5   9999  3.79277E-02  1.61305E+01 -1.00000E+00  1.74461E-01
      21    -1     0     0   511   501  0.000000000E+00  0.000000000E+00  1.079491883E+03  1.079491883E+03  0.000000000E+00  0.00000E+00  9.000E+00
      21    -1     0     0   501   502  0.000000000E+00  0.000000000E+00 -5.131769919E+01  5.131769919E+01  0.000000000E+00  0.00000E+00  9.000E+00
      25     1     1     2     0     0 -6.760541448E+01 -1.425057787E+02  2.599117963E+02  3.287210533E+02  1.250000000E+02  0.00000E+00  9.000E+00
      25     1     1     2     0     0  7.001704330E+01  1.584549700E+02  6.959286568E+02  7.279780623E+02  1.250000000E+02  0.00000E+00  9.000E+00
      21     1     1     2   511   502 -2.411628815E+00 -1.594919134E+01  7.233373115E+01  7.411046701E+01  9.536743164E-07  0.00000E+00  9.000E+00
#rwgt            1           1   3.3142167969726008E-002           2      136710           0
</event>
<event>
      5   9999  3.79277E-02  5.38759E+01 -1.00000E+00  1.37250E-01
      21    -1     0     0   512   501  0.000000000E+00  0.000000000E+00  2.390129021E+02  2.390129021E+02  0.000000000E+00  0.00000E+00  9.000E+00
      21    -1     0     0   501   502  0.000000000E+00  0.000000000E+00 -2.011429855E+02  2.011429855E+02  0.000000000E+00  0.00000E+00  9.000E+00
      25     1     1     2     0     0 -7.246146848E+01 -7.536707206E+01  5.763861878E+01  1.728527418E+02  1.250000000E+02  0.00000E+00  9.000E+00
      25     1     1     2     0     0  7.418051095E+01  1.292155537E+02 -5.598905552E+01  2.023837490E+02  1.250000000E+02  0.00000E+00  9.000E+00
      21     1     1     2   512   502 -1.719042467E+00 -5.384848165E+01  3.622035335E+01  6.491939679E+01  1.507891493E-06  0.00000E+00  9.000E+00
#rwgt            1           1   3.7147455700191581E-002           2      136917           0
</event>
<event>
      5   9999  3.79277E-02  3.47183E+02 -1.00000E+00  1.03571E-01
      21    -1     0     0   511   501  0.000000000E+00  0.000000000E+00  1.328908365E+03  1.328908365E+03  0.000000000E+00  0.00000E+00  9.000E+00
      21    -1     0     0   501   502  0.000000000E+00  0.000000000E+00 -3.284122568E+02  3.284122568E+02  0.000000000E+00  0.00000E+00  9.000E+00
      25     1     1     2     0     0  1.387045141E+02  1.537604855E+02  2.355580155E+02  3.376296904E+02  1.250000000E+02  0.00000E+00  9.000E+00
      25     1     1     2     0     0 -1.452298406E+02  1.933616633E+02 -1.709719631E+02  3.214604978E+02  1.250000000E+02  0.00000E+00  9.000E+00
      21     1     1     2   511   502  6.525326494E+00 -3.471221489E+02  9.359100555E+02  9.982304334E+02  0.000000000E+00  0.00000E+00  9.000E+00
#rwgt            1           1   3.5343170316342855E-002           2      137081           0
</event>
<event>
      5   9999  3.79277E-02  4.08619E+01 -1.00000E+00  1.44268E-01
      21    -1     0     0   502   512  0.000000000E+00  0.000000000E+00  7.312697354E+02  7.312697354E+02  0.000000000E+00  0.00000E+00  9.000E+00
      21    -1     0     0   501   502  0.000000000E+00  0.000000000E+00 -6.580938102E+01  6.580938102E+01  0.000000000E+00  0.00000E+00  9.000E+00
      25     1     1     2     0     0 -1.400727096E+02 -8.344977993E+01  2.669321746E+02  3.368412320E+02  1.250000000E+02  0.00000E+00  9.000E+00
      25     1     1     2     0     0  1.012126584E+02  7.081694342E+01  2.459556812E+02  3.022883372E+02  1.250000000E+02  0.00000E+00  9.000E+00
      21     1     1     2   501   512  3.886005117E+01  1.263283651E+01  1.525724985E+02  1.579495471E+02  0.000000000E+00  0.00000E+00  9.000E+00
#rwgt            1           1   3.7470841645099388E-002           2      137200           0
</event>
<event>
      5   9999  3.79277E-02  5.18492E+01 -1.00000E+00  1.38182E-01
      21    -1     0     0   502   501  0.000000000E+00  0.000000000E+00  1.677001585E+02  1.677001585E+02  0.000000000E+00  0.00000E+00  9.000E+00
       2    -1     0     0   501     0  0.000000000E+00  0.000000000E+00 -4.776397815E+02  4.776397815E+02  0.000000000E+00  0.00000E+00  9.000E+00
      25     1     1     2     0     0 -3.903772857E+01  2.420928146E+01 -1.849422660E+02  2.279005821E+02  1.250000000E+02  0.00000E+00  9.000E+00
      25     1     1     2     0     0  6.377197299E+01 -6.977853237E+01  1.004225919E+02  1.861332992E+02  1.250000000E+02  0.00000E+00  9.000E+00
       2     1     1     2   502     0 -2.473424441E+01  4.556925091E+01 -2.254199488E+02  2.313060587E+02  0.000000000E+00  0.00000E+00  9.000E+00
#rwgt            1           1   5.3462525876800837E-002           2      137566           0
</event>
<event>
      5   9999  3.79277E-02  1.66080E+01 -1.00000E+00  1.73316E-01
      21    -1     0     0   511   501  0.000000000E+00  0.000000000E+00  1.323062836E+03  1.323062836E+03  0.000000000E+00  0.00000E+00  9.000E+00
      21    -1     0     0   501   502  0.000000000E+00  0.000000000E+00 -5.635065924E+01  5.635065924E+01  0.000000000E+00  0.00000E+00  9.000E+00
      25     1     1     2     0     0 -1.910833008E+02 -1.152008474E+02  4.958027598E+02  5.578794133E+02  1.250000000E+02  0.00000E+00  9.000E+00
      25     1     1     2     0     0  1.772086713E+02  1.060729089E+02  5.580649490E+02  6.080426485E+02  1.250000000E+02  0.00000E+00  9.000E+00
      21     1     1     2   511   502  1.387462953E+01  9.127938533E+00  2.128444676E+02  2.134914331E+02  0.000000000E+00  0.00000E+00  9.000E+00
#rwgt            1           1   4.0216086028635321E-002           2      137813           0
</event>
<event>
      5   9999  3.79277E-02  1.19616E+02 -1.00000E+00  1.20427E-01
      21    -1     0     0   502   512  0.000000000E+00  0.000000000E+00  5.828081736E+02  5.828081736E+02  0.000000000E+00  0.00000E+00  9.000E+00
      21    -1     0     0   501   502  0.000000000E+00  0.000000000E+00 -2.066180013E+03  2.066180013E+03  0.000000000E+00  0.00000E+00  9.000E+00
      25     1     1     2     0     0 -3.562435252E+02  2.704519273E+02 -1.655967362E+03  1.719856563E+03  1.250000000E+02  0.00000E+00  9.000E+00
      25     1     1     2     0     0  2.391550656E+02 -2.949117299E+02 -2.622805830E+02  4.781047773E+02  1.250000000E+02  0.00000E+00  9.000E+00
      21     1     1     2   501   512  1.170884596E+02  2.445980268E+01  4.348761052E+02  4.510268464E+02  7.629394531E-06  0.00000E+00  9.000E+00
#rwgt            2          11   1.4975650177792210E-002           2      138069           0
</event>
<event>
      5   9999  3.79277E-02  1.12645E+01 -1.00000E+00  1.89963E-01
      21    -1     0     0   511   501  0.000000000E+00  0.000000000E+00  9.212416022E+01  9.212416022E+01  0.000000000E+00  0.00000E+00  9.000E+00
      21    -1     0     0   501   502  0.000000000E+00  0.000000000E+00 -6.682298285E+02  6.682298285E+02  0.000000000E+00  0.00000E+00  9.000E+00
      25     1     1     2     0     0  1.231905906E+02 -1.406268293E+02 -3.927060346E+02  4.525426570E+02  1.250000000E+02  0.00000E+00  9.000E+00
      25     1     1     2     0     0 -1.328782423E+02  1.463746913E+02 -1.821941698E+02  2.964825341E+02  1.250000000E+02  0.00000E+00  9.000E+00
      21     1     1     2   511   502  9.687651697E+00 -5.747861993E+00 -1.205463863E+00  1.132879764E+01  2.998800844E-07  0.00000E+00  9.000E+00
#rwgt            1           1   4.2411860415413102E-002           2      138269           0
</event>
<event>
      5   9999  3.79277E-02  2.17228E+01 -1.00000E+00  1.63462E-01
      21    -1     0     0   502   512  0.000000000E+00  0.000000000E+00  2.438874133E+02  2.438874133E+02  0.000000000E+00  0.00000E+00  9.000E+00
      21    -1     0     0   501   502  0.000000000E+00  0.000000000E+00 -6.936991660E+02  6.936991660E+02  0.000000000E+00  0.00000E+00  9.000E+00
      25     1     1     2     0     0  1.423668782E+02  8.946147183E+01 -2.837321130E+02  3.527046851E+02  1.250000000E+02  0.00000E+00  9.000E+00
      25     1     1     2     0     0 -1.207055878E+02 -8.782762074E+01 -3.495568969E+02  4.001231736E+02  1.250000000E+02  0.00000E+00  9.000E+00
      21     1     1     2   501   512 -2.166129036E+01 -1.633851085E+00  1.834772572E+02  1.847587207E+02  2.697398305E-06  0.00000E+00  9.000E+00
#rwgt            1           1   4.3011935747460650E-002           2      138527           0
</event>
<event>
      5   9999  3.79277E-02  4.23543E+01 -1.00000E+00  1.43316E-01
       2    -1     0     0   502     0  0.000000000E+00  0.000000000E+00  2.562156738E+03  2.562156738E+03  0.000000000E+00  0.00000E+00  9.000E+00
      21    -1     0     0   501   502  0.000000000E+00  0.000000000E+00 -1.954120712E+01  1.954120712E+01  0.000000000E+00  0.00000E+00  9.000E+00
      25     1     1     2     0     0  7.738444350E+01 -7.248749816E+01  9.177935639E+02  9.323158346E+02  1.250000000E+02  0.00000E+00  9.000E+00
      25     1     1     2     0     0 -1.176436915E+02  8.564340473E+01  7.708721138E+02  7.943825570E+02  1.250000000E+02  0.00000E+00  9.000E+00
       2     1     1     2   501     0  4.025924798E+01 -1.315590657E+01  8.539498536E+02  8.549995540E+02  0.000000000E+00  0.00000E+00  9.000E+00
#rwgt            2          18   6.2822062822509301E-004           2      138785           0
</event>
<event>
      5   9999  3.79277E-02  2.38535E+01 -1.00000E+00  1.60293E-01
      21    -1     0     0   502   511  0.000000000E+00  0.000000000E+00  1.507494177E+02  1.507494177E+02  0.000000000E+00  0.00000E+00  9.000E+00
      21    -1     0     0   501   502  0.000000000E+00  0.000000000E+00 -2.463350976E+02  2.463350976E+02  0.000000000E+00  0.00000E+00  9.000E+00
      25     1     1     2     0     0 -1.995387210E+00 -2.921166623E+01 -1.770858369E+02  2.187274483E+02  1.250000000E+02  0.00000E+00  9.000E+00
      25     1     1     2     0     0  2.384175344E+01  3.878912577E+01  5.887264840E+01  1.454785696E+02  1.250000000E+02  0.00000E+00  9.000E+00
      21     1     1     2   501   511 -2.184636623E+01 -9.577459539E+00  2.262750854E+01  3.287849740E+01  4.768371582E-07  0.00000E+00  9.000E+00
#rwgt            1           1   2.3745513075672128E-002           2      138819           0
</event>
<event>
      5   9999  3.79277E-02  9.76232E+00 -1.00000E+00  1.96973E-01
      21    -1     0     0   502   512  0.000000000E+00  0.000000000E+00  1.445147073E+02  1.445147073E+02  0.000000000E+00  0.00000E+00  9.000E+00
      21    -1     0     0   501   502  0.000000000E+00  0.000000000E+00 -1.939965430E+02  1.939965430E+02  0.000000000E+00  0.00000E+00  9.000E+00
      25     1     1     2     0     0  7.491176512E+01 -7.434508499E+01 -2.769283174E+01  1.659242512E+02  1.250000000E+02  0.00000E+00  9.000E+00
      25     1     1     2     0     0 -7.201510776E+01  6.502241116E+01 -2.844197156E+01  1.607732423E+02  1.250000000E+02  0.00000E+00  9.000E+00
      21     1     1     2   501   512 -2.896657358E+00  9.322673823E+00  6.652967591E+00  1.181375676E+01  1.685873940E-07  0.00000E+00  9.000E+00
#rwgt            1           1   2.7364506495866886E-002           2      138964           0
</event>
<event>
      5   9999 -3.79277E-02  1.58805E+02 -1.00000E+00  1.15420E-01
      21    -1     0     0   502   501  0.000000000E+00  0.000000000E+00  1.279753700E+03  1.279753700E+03  0.000000000E+00  0.00000E+00  9.000E+00
      21    -1     0     0   511   502  0.000000000E+00  0.000000000E+00 -7.066948465E+01  7.066948465E+01  0.000000000E+00  0.00000E+00  9.000E+00
      25     1     1     2     0     0  8.196871892E+01  4.764876634E+01  5.043933813E+02  5.282300247E+02  1.250000000E+02  0.00000E+00  9.000E+00
      25     1     1     2     0     0 -2.327419851E+02  2.216939179E+00  4.605635576E+02  5.309590728E+02  1.250000000E+02  0.00000E+00  9.000E+00
      21     1     1     2   511   501  1.507732662E+02 -4.986570552E+01  2.441272762E+02  2.912340869E+02  0.000000000E+00  0.00000E+00  9.000E+00
#rwgt            1           1 -0.11615353025907030                2      139258           0
</event>
<event>
      5   9999 -3.79277E-02  2.88684E+02 -1.00000E+00  1.06137E-01
      21    -1     0     0   502   501  0.000000000E+00  0.000000000E+00  1.022985917E+02  1.022985917E+02  0.000000000E+00  0.00000E+00  9.000E+00
       1    -1     0     0   501     0  0.000000000E+00  0.000000000E+00 -2.130795990E+03  2.130795990E+03  0.000000000E+00  0.00000E+00  9.000E+00
      25     1     1     2     0     0 -7.538493074E+01 -3.053552426E+02 -9.333412482E+02  9.928119649E+02  1.250000000E+02  0.00000E+00  9.000E+00
      25     1     1     2     0     0  2.242756112E+02  5.802912553E+01 -3.277351761E+02  4.203596970E+02  1.250000000E+02  0.00000E+00  9.000E+00
       1     1     1     2   502     0 -1.488906805E+02  2.473261171E+02 -7.674209737E+02  8.199229194E+02  1.078959322E-05  0.00000E+00  9.000E+00
#rwgt            1           1  -5.6987593261369783E-002           2      139296           0
</event>
<event>
      5   9999  3.79277E-02  6.92923E+01 -1.00000E+00  1.31445E-01
      21    -1     0     0   502   501  0.000000000E+00  0.000000000E+00  6.013128655E+02  6.013128655E+02  0.000000000E+00  0.00000E+00  9.000E+00
      21    -1     0     0   511   502  0.000000000E+00  0.000000000E+00 -2.068696697E+02  2.068696697E+02  0.000000000E+00  0.00000E+00  9.000E+00
      25     1     1     2     0     0 -4.623605609E+01  2.166421046E+02  3.650534224E+00  2.543814081E+02  1.250000000E+02  0.00000E+00  9.000E+00
      25     1     1     2     0     0  4.888130850E+01 -1.474003113E+02  4.301586831E+02  4.741072945E+02  1.250000000E+02  0.00000E+00  9.000E+00
      21     1     1     2   511   501 -2.645252414E+00 -6.924179333E+01 -3.936602156E+01  7.969383262E+01  1.066240300E-06  0.00000E+00  9.000E+00
#rwgt            1           1   3.9380974966203457E-002           2      139476           0
</event>
<event>
      5   9999  3.79277E-02  3.57938E+01 -1.00000E+00  1.47898E-01
      21    -1     0     0   502   512  0.000000000E+00  0.000000000E+00  4.776894526E+02  4.776894526E+02  0.000000000E+00  0.00000E+00  9.000E+00
      21    -1     0     0   501   502  0.000000000E+00  0.000000000E+00 -2.656808087E+02  2.656808087E+02  0.000000000E+00  0.00000E+00  9.000E+00
      25     1     1     2     0     0 -2.583879289E+02  8.332131866E+01  9.673732253E+01  3.141494445E+02  1.250000000E+02  0.00000E+00  9.000E+00
      25     1     1     2     0     0  2.841706186E+02 -1.081496580E+02  2.219003274E+01  3.294945926E+02  1.250000000E+02  0.00000E+00  9.000E+00
      21     1     1     2   501   512 -2.578268968E+01  2.482833930E+01  9.308128861E+01  9.972622428E+01  0.000000000E+00  0.00000E+00  9.000E+00
#rwgt            1           1   3.1455547437004128E-002           2      139577           0
</event>
<event>
      5   9999  3.79277E-02  4.95147E+01 -1.00000E+00  1.39318E-01
      21    -1     0     0   502   501  0.000000000E+00  0.000000000E+00  2.084809044E+02  2.084809044E+02  0.000000000E+00  0.00000E+00  9.000E+00
      21    -1     0     0   511   502  0.000000000E+00  0.000000000E+00 -3.373867805E+02  3.373867805E+02  0.000000000E+00  0.00000E+00  9.000E+00
      25     1     1     2     0     0  2.511419669E+01  1.076689220E+02  1.081424440E+02  1.988544891E+02  1.250000000E+02  0.00000E+00  9.000E+00
      25     1     1     2     0     0 -1.200645132E+01 -1.554171148E+02 -1.626317749E+02  2.576290524E+02  1.250000000E+02  0.00000E+00  9.000E+00
      21     1     1     2   511   501 -1.310774536E+01  4.774819281E+01 -7.441654514E+01  8.938414343E+01  9.536743164E-07  0.00000E+00  9.000E+00
#rwgt            1           1   4.1260794125270547E-002           2      139770           0
</event>
<event>
      5   9999  3.79277E-02  6.78696E+01 -1.00000E+00  1.31904E-01
      21    -1     0     0   502   512  0.000000000E+00  0.000000000E+00  2.690310139E+02  2.690310139E+02  0.000000000E+00  0.00000E+00  9.000E+00
      21    -1     0     0   501   502  0.000000000E+00  0.000000000E+00 -2.825604943E+02  2.825604943E+02  0.000000000E+00  0.00000E+00  9.000E+00
      25     1     1     2     0     0  5.792886299E+01 -5.798162147E+01 -1.128765409E+02  1.873065271E+02  1.250000000E+02  0.00000E+00  9.000E+00
      25     1     1     2     0     0  9.012167855E+00  4.679297081E+01 -9.127086592E+01  1.619449667E+02  1.250000000E+02  0.00000E+00  9.000E+00
      21     1     1     2   501   512 -6.694103084E+01  1.118865067E+01  1.906179264E+02  2.023400143E+02  2.697398305E-06  0.00000E+00  9.000E+00
#rwgt            1           1   7.6552761699603997E-002           2      139931           0
</event>
<event>
      5   9999  3.79277E-02  1.29666E+01 -1.00000E+00  1.83559E-01
      21    -1     0     0   511   501  0.000000000E+00  0.000000000E+00  1.499588671E+02  1.499588671E+02  0.000000000E+00  0.00000E+00  9.000E+00
      21    -1     0     0   501   502  0.000000000E+00  0.000000000E+00 -5.561490645E+02  5.561490645E+02  0.000000000E+00  0.00000E+00  9.000E+00
      25     1     1     2     0     0  1.582062461E+02 -1.678025237E+02 -3.066931568E+02  4.035747709E+02  1.250000000E+02  0.00000E+00  9.000E+00
      25     1     1     2     0     0 -1.614226316E+02  1.803638323E+02 -9.785398950E+01  2.894629186E+02  1.250000000E+02  0.00000E+00  9.000E+00
      21     1     1     2   511   502  3.216385453E+00 -1.256130857E+01 -1.643051105E+00  1.307024198E+01  2.957796043E-07  0.00000E+00  9.000E+00
#rwgt            1           1  0.10523578807499567                2      139993           0
</event>
<event>
      5   9999  3.79277E-02  1.49294E+02 -1.00000E+00  1.16475E-01
      -1    -1     0     0     0   501  0.000000000E+00  0.000000000E+00  7.844767011E+01  7.844767011E+01  0.000000000E+00  0.00000E+00  9.000E+00
      21    -1     0     0   501   502  0.000000000E+00  0.000000000E+00 -3.199793892E+03  3.199793892E+03  0.000000000E+00  0.00000E+00  9.000E+00
      25     1     1     2     0     0 -1.667857895E+02 -2.678837320E+00 -6.156874933E+02  6.500159730E+02  1.250000000E+02  0.00000E+00  9.000E+00
      25     1     1     2     0     0  4.632212772E+01 -8.550992579E+01 -2.469554727E+03  2.474627898E+03  1.250000000E+02  0.00000E+00  9.000E+00
      -1     1     1     2     0   502  1.204636617E+02  8.818876311E+01 -3.610400218E+01  1.535976911E+02  2.185142372E-06  0.00000E+00  9.000E+00
#rwgt            1           1   2.5021808081130904E-002           2      140211           0
</event>
<event>
      5   9999  3.79277E-02  1.05081E+01 -1.00000E+00  1.93301E-01
      21    -1     0     0   511   501  0.000000000E+00  0.000000000E+00  2.176950981E+02  2.176950981E+02  0.000000000E+00  0.00000E+00  9.000E+00
      21    -1     0     0   501   502  0.000000000E+00  0.000000000E+00 -3.498006967E+02  3.498006967E+02  0.000000000E+00  0.00000E+00  9.000E+00
      25     1     1     2     0     0 -5.806441961E+01 -1.867279353E+01 -3.074828929E+02  3.374772281E+02  1.250000000E+02  0.00000E+00  9.000E+00
      25     1     1     2     0     0  5.169874458E+01  1.031227263E+01  1.483837520E+02  2.010518366E+02  1.250000000E+02  0.00000E+00  9.000E+00
      21     1     1     2   511   502  6.365675023E+00  8.360520905E+00  2.699354230E+01  2.896673013E+01  0.000000000E+00  0.00000E+00  9.000E+00
#rwgt            1           1   4.2747735365884061E-002           2      140269           0
</event>
<event>
      5   9999  3.79277E-02  3.25397E+01 -1.00000E+00  1.50628E-01
       2    -1     0     0   502     0  0.000000000E+00  0.000000000E+00  1.527553227E+02  1.527553227E+02  0.000000000E+00  0.00000E+00  9.000E+00
      21    -1     0     0   501   502  0.000000000E+00  0.000000000E+00 -2.537940856E+03  2.537940856E+03  0.000000000E+00  0.00000E+00  9.000E+00
      25     1     1     2     0     0  1.309583638E+02 -1.998231967E+02 -1.803076751E+03  1.823126483E+03  1.250000000E+02  0.00000E+00  9.000E+00
      25     1     1     2     0     0 -9.859666412E+01  2.032220229E+02 -6.995706657E+02  7.456839874E+02  1.250000000E+02  0.00000E+00  9.000E+00
       2     1     1     2   501     0 -3.236169965E+01 -3.398826168E+00  1.174618838E+02  1.218857078E+02  2.336015456E-06  0.00000E+00  9.000E+00
#rwgt            2          18   6.9975442763055621E-004           2      140560           0
</event>
<event>
      5   9999  3.79277E-02  8.44793E+00 -1.00000E+00  2.04624E-01
      21    -1     0     0   502   501  0.000000000E+00  0.000000000E+00  1.041290111E+03  1.041290111E+03  0.000000000E+00  0.00000E+00  9.000E+00
      21    -1     0     0   511   502  0.000000000E+00  0.000000000E+00 -2.203466624E+02  2.203466624E+02  0.000000000E+00  0.00000E+00  9.000E+00
      25     1     1     2     0     0  1.782993177E+02 -6.821039897E+01  1.071701774E+02  2.520986952E+02  1.250000000E+02  0.00000E+00  9.000E+00
      25     1     1     2     0     0 -1.725088705E+02  6.205912219E+01  8.472347223E+02  8.758095225E+02  1.250000000E+02  0.00000E+00  9.000E+00
      21     1     1     2   511   501 -5.790447170E+00  6.151276786E+00 -1.334614515E+02  1.337285553E+02  3.814697266E-06  0.00000E+00  9.000E+00
#rwgt            1           1   3.3822655438594147E-002           2      140639           0
</event>
<event>
      5   9999  3.79277E-02  1.03544E+02 -1.00000E+00  1.23151E-01
      21    -1     0     0   502   501  0.000000000E+00  0.000000000E+00  2.139125351E+02  2.139125351E+02  0.000000000E+00  0.00000E+00  9.000E+00
      21    -1     0     0   501   512  0.000000000E+00  0.000000000E+00 -4.756821737E+02  4.756821737E+02  0.000000000E+00  0.00000E+00  9.000E+00
      25     1     1     2     0     0 -2.523188041E+01  9.788583252E+00 -1.294809519E+01  1.285500576E+02  1.250000000E+02  0.00000E+00  9.000E+00
      25     1     1     2     0     0 -6.802966550E+01  3.519632527E+01  1.127467551E+02  1.849422815E+02  1.250000000E+02  0.00000E+00  9.000E+00
      21     1     1     2   502   512  9.326154591E+01 -4.498490852E+01 -3.615682986E+02  3.761023697E+02  5.394796609E-06  0.00000E+00  9.000E+00
#rwgt            1           1   5.0632218052576526E-002           2      141171           0
</event>
<event>
      5   9999  3.79277E-02  8.20284E+01 -1.00000E+00  1.27825E-01
      21    -1     0     0   502   511  0.000000000E+00  0.000000000E+00  8.688914399E+02  8.688914399E+02  0.000000000E+00  0.00000E+00  9.000E+00
      21    -1     0     0   501   502  0.000000000E+00  0.000000000E+00 -2.345635474E+02  2.345635474E+02  0.000000000E+00  0.00000E+00  9.000E+00
      25     1     1     2     0     0  1.964981525E+01  5.923571378E+01 -1.837480547E+02  2.308318276E+02  1.250000000E+02  0.00000E+00  9.000E+00
      25     1     1     2     0     0 -7.799206060E+01 -1.168971894E+02  7.229525677E+02  7.470161508E+02  1.250000000E+02  0.00000E+00  9.000E+00
      21     1     1     2   501   511  5.834224536E+01  5.766147564E+01  9.512337959E+01  1.256070090E+02  2.336015456E-06  0.00000E+00  9.000E+00
#rwgt            1           1   3.5670804079978247E-002           2      141262           0
</event>
<event>
      5   9999  3.79277E-02  4.53442E+01 -1.00000E+00  1.41542E-01
      21    -1     0     0   512   501  0.000000000E+00  0.000000000E+00  6.854592171E+02  6.854592171E+02  0.000000000E+00  0.00000E+00  9.000E+00
      21    -1     0     0   501   502  0.000000000E+00  0.000000000E+00 -1.107347990E+02  1.107347990E+02  0.000000000E+00  0.00000E+00  9.000E+00
      25     1     1     2     0     0 -3.426015292E+01 -5.918787736E+01 -3.868035011E+01  1.476419059E+02  1.250000000E+02  0.00000E+00  9.000E+00
      25     1     1     2     0     0  7.762106437E+01  7.245148890E+01  4.493330648E+02  4.783298559E+02  1.250000000E+02  0.00000E+00  9.000E+00
      21     1     1     2   512   502 -4.336091144E+01 -1.326361153E+01  1.640717033E+02  1.702222543E+02  3.303624740E-06  0.00000E+00  9.000E+00
#rwgt            1           1   2.9538224661615538E-002           2      141389           0
</event>
<event>
      5   9999  3.79277E-02  1.37393E+01 -1.00000E+00  1.81052E-01
      21    -1     0     0   502   501  0.000000000E+00  0.000000000E+00  1.538099877E+02  1.538099877E+02  0.000000000E+00  0.00000E+00  9.000E+00
      21    -1     0     0   501   511  0.000000000E+00  0.000000000E+00 -2.894212084E+02  2.894212084E+02  0.000000000E+00  0.00000E+00  9.000E+00
      25     1     1     2     0     0 -7.186903860E+01  6.147996132E+01 -1.876743873E+02  2.445232504E+02  1.250000000E+02  0.00000E+00  9.000E+00
      25     1     1     2     0     0  5.990954106E+01 -5.471692713E+01  7.885345707E+01  1.686000086E+02  1.250000000E+02  0.00000E+00  9.000E+00
      21     1     1     2   502   511  1.195949754E+01 -6.763034190E+00 -2.679029046E+01  3.010793709E+01  3.371747881E-07  0.00000E+00  9.000E+00
#rwgt            1           1   4.4854520585765403E-002           2      141456           0
</event>
<event>
      5   9999  3.79277E-02  3.26778E+01 -1.00000E+00  1.50505E-01
      21    -1     0     0   502   501  0.000000000E+00  0.000000000E+00  2.680356530E+02  2.680356530E+02  0.000000000E+00  0.00000E+00  9.000E+00
      21    -1     0     0   512   502  0.000000000E+00  0.000000000E+00 -1.894015595E+02  1.894015595E+02  0.000000000E+00  0.00000E+00  9.000E+00
      25     1     1     2     0     0  2.824227245E+01 -1.689316213E+02 -1.562935818E+01  2.126141939E+02  1.250000000E+02  0.00000E+00  9.000E+00
      25     1     1     2     0     0 -3.824795422E+01  1.378233712E+02  9.445725706E+01  2.121446701E+02  1.250000000E+02  0.00000E+00  9.000E+00
      21     1     1     2   512   501  1.000568177E+01  3.110825011E+01 -1.938054142E-01  3.267834838E+01  7.239006883E-07  0.00000E+00  9.000E+00
#rwgt            1           1   4.0030497698416517E-002           2      141667           0
</event>
<event>
      5   9999  3.79277E-02  1.92085E+01 -1.00000E+00  1.67829E-01
      21    -1     0     0   502   511  0.000000000E+00  0.000000000E+00  1.805660059E+03  1.805660059E+03  0.000000000E+00  0.00000E+00  9.000E+00
      21    -1     0     0   501   502  0.000000000E+00  0.000000000E+00 -2.091968253E+01  2.091968253E+01  0.000000000E+00  0.00000E+00  9.000E+00
      25     1     1     2     0     0  4.985554350E+01 -1.238449876E+02  6.897083401E+02  7.135444980E+02  1.250000000E+02  0.00000E+00  9.000E+00
      25     1     1     2     0     0 -3.092948948E+01  1.205631457E+02  9.047491456E+02  9.217852906E+02  1.250000000E+02  0.00000E+00  9.000E+00
      21     1     1     2   501   511 -1.892605403E+01  3.281841948E+00  1.902828907E+02  1.912499529E+02  2.697398305E-06  0.00000E+00  9.000E+00
#rwgt            1           1   4.6509312894217808E-002           2      141870           0
</event>
<event>
      5   9999  3.79277E-02  2.56989E+01 -1.00000E+00  1.57859E-01
       2    -1     0     0   502     0  0.000000000E+00  0.000000000E+00  1.140986919E+03  1.140986919E+03  0.000000000E+00  0.00000E+00  9.000E+00
      21    -1     0     0   501   502  0.000000000E+00  0.000000000E+00 -1.362626866E+02  1.362626866E+02  0.000000000E+00  0.00000E+00  9.000E+00
      25     1     1     2     0     0  1.446258921E+02 -9.363924498E+01  2.514857808E+02  3.294769413E+02  1.250000000E+02  0.00000E+00  9.000E+00
      25     1     1     2     0     0 -1.203773899E+02  8.512771521E+01 -8.010752918E-01  1.932953326E+02  1.250000000E+02  0.00000E+00  9.000E+00
       2     1     1     2   501     0 -2.424850224E+01  8.511529772E+00  7.540395270E+02  7.544773318E+02  1.078959322E-05  0.00000E+00  9.000E+00
#rwgt            2          18   3.2390796309641253E-004           2      142113           0
</event>
<event>
      5   9999  3.79277E-02  9.43746E+00 -1.00000E+00  1.98709E-01
      21    -1     0     0   502   511  0.000000000E+00  0.000000000E+00  1.309256080E+03  1.309256080E+03  0.000000000E+00  0.00000E+00  9.000E+00
      21    -1     0     0   501   502  0.000000000E+00  0.000000000E+00 -5.270737693E+02  5.270737693E+02  0.000000000E+00  0.00000E+00  9.000E+00
      25     1     1     2     0     0  4.560695059E+02 -3.775055779E+02  6.234716003E+02  8.688220140E+02  1.250000000E+02  0.00000E+00  9.000E+00
      25     1     1     2     0     0 -4.578499138E+02  3.682375779E+02 -1.812184651E+02  6.274476787E+02  1.250000000E+02  0.00000E+00  9.000E+00
      21     1     1     2   501   511  1.780407889E+00  9.268000009E+00  3.399291752E+02  3.400601561E+02  5.394796609E-06  0.00000E+00  9.000E+00
#rwgt            1           1   2.0956371001173518E-002           2      142282           0
</event>
<event>
      5   9999  3.79277E-02  4.77499E+01 -1.00000E+00  1.40226E-01
      21    -1     0     0   502   501  0.000000000E+00  0.000000000E+00  6.332314427E+02  6.332314427E+02  0.000000000E+00  0.00000E+00  9.000E+00
      21    -1     0     0   512   502  0.000000000E+00  0.000000000E+00 -1.019658683E+02  1.019658683E+02  0.000000000E+00  0.00000E+00  9.000E+00
      25     1     1     2     0     0 -5.138512820E+00 -1.606213627E+02  1.833351340E+02  2.739751774E+02  1.250000000E+02  0.00000E+00  9.000E+00
      25     1     1     2     0     0 -1.200875316E+01  2.051862157E+02  3.337486887E+02  4.114107200E+02  1.250000000E+02  0.00000E+00  9.000E+00
      21     1     1     2   512   501  1.714726598E+01 -4.456485297E+01  1.418175169E+01  4.981141367E+01  1.025477084E-06  0.00000E+00  9.000E+00
#rwgt            1           1   3.5746254030074358E-002           2      142619           0
</event>
<event>
      5   9999  3.79277E-02  2.49830E+01 -1.00000E+00  1.58773E-01
      21    -1     0     0   502   511  0.000000000E+00  0.000000000E+00  8.667118203E+02  8.667118203E+02  0.000000000E+00  0.00000E+00  9.000E+00
      21    -1     0     0   501   502  0.000000000E+00  0.000000000E+00 -8.473544794E+01  8.473544794E+01  0.000000000E+00  0.00000E+00  9.000E+00
      25     1     1     2     0     0  9.056137929E+01 -1.568918228E+02  2.284425470E+02  3.172182289E+02  1.250000000E+02  0.00000E+00  9.000E+00
      25     1     1     2     0     0 -1.010223504E+02  1.342044628E+02  2.351242231E+02  3.148408382E+02  1.250000000E+02  0.00000E+00  9.000E+00
      21     1     1     2   501   511  1.046097107E+01  2.268736002E+01  3.184096022E+02  3.193882011E+02  3.814697266E-06  0.00000E+00  9.000E+00
#rwgt            1           1   3.5323726640155005E-002           2      142830           0
</event>
<event>
      5   9999  3.79277E-02  1.94696E+01 -1.00000E+00  1.67338E-01
      21    -1     0     0   502   501  0.000000000E+00  0.000000000E+00  1.802001845E+02  1.802001845E+02  0.000000000E+00  0.00000E+00  9.000E+00
      21    -1     0     0   512   502  0.000000000E+00  0.000000000E+00 -3.441590300E+02  3.441590300E+02  0.000000000E+00  0.00000E+00  9.000E+00
      25     1     1     2     0     0 -1.420493550E+02 -2.296882341E+01 -7.626053053E+01  2.052955299E+02  1.250000000E+02  0.00000E+00  9.000E+00
      25     1     1     2     0     0  1.613951970E+02  2.516052679E+01  2.272515676E+01  2.069369336E+02  1.250000000E+02  0.00000E+00  9.000E+00
      21     1     1     2   512   501 -1.934584202E+01 -2.191703374E+00 -1.104234717E+02  1.121267509E+02  1.348699152E-06  0.00000E+00  9.000E+00
#rwgt            1           1   4.1290354235103702E-002           2      143040           0
</event>
<event>
      5   9999  3.79277E-02  2.22923E+01 -1.00000E+00  1.62573E-01
       1    -1     0     0   502     0  0.000000000E+00  0.000000000E+00  4.967616212E+02  4.967616212E+02  0.000000000E+00  0.00000E+00  9.000E+00
      21    -1     0     0   501   502  0.000000000E+00  0.000000000E+00 -1.761569046E+02  1.761569046E+02  0.000000000E+00  0.00000E+00  9.000E+00
      25     1     1     2     0     0 -9.115799253E+01  2.805392283E+00 -3.754334053E+01  1.592235920E+02  1.250000000E+02  0.00000E+00  9.000E+00
      25     1     1     2     0     0  1.004965217E+02 -2.304735497E+01  7.364206679E+00  1.622034617E+02  1.250000000E+02  0.00000E+00  9.000E+00
       1     1     1     2   501     0 -9.338529212E+00  2.024196269E+01  3.507838505E+02  3.514914721E+02  6.607249480E-06  0.00000E+00  9.000E+00
#rwgt            1           1   5.9243477021570956E-002           2      143239           0
</event>
<event>
      5   9999  3.79277E-02  9.86640E+01 -1.00000E+00  1.24091E-01
       2    -1     0     0   502     0  0.000000000E+00  0.000000000E+00  2.609722187E+03  2.609722187E+03  0.000000000E+00  0.00000E+00  9.000E+00
      21    -1     0     0   501   502  0.000000000E+00  0.000000000E+00 -3.265212063E+01  3.265212063E+01  0.000000000E+00  0.00000E+00  9.000E+00
      25     1     1     2     0     0 -1.492346516E+02  9.546522400E+01  8.711880834E+02  8.977629236E+02  1.250000000E+02  0.00000E+00  9.000E+00
      25     1     1     2     0     0  1.347967577E+02  2.136693685E+00  4.681836247E+02  5.029867173E+02  1.250000000E+02  0.00000E+00  9.000E+00
       2     1     1     2   501     0  1.443789395E+01 -9.760191769E+01  1.237698358E+03  1.241624667E+03  0.000000000E+00  0.00000E+00  9.000E+00
#rwgt            1           1   3.5986868412116416E-002           2      143395           0
</event>
<event>
      5   9999  3.79277E-02  4.66145E+01 -1.00000E+00  1.40835E-01
      21    -1     0     0   502   511  0.000000000E+00  0.000000000E+00  3.769295461E+02  3.769295461E+02  0.000000000E+00  0.00000E+00  9.000E+00
      21    -1     0     0   501   502  0.000000000E+00  0.000000000E+00 -1.145771010E+02  1.145771010E+02  0.000000000E+00  0.00000E+00  9.000E+00
      25     1     1     2     0     0 -1.494515322E+02 -6.619658193E+00  1.508844542E+02  2.465171371E+02  1.250000000E+02  0.00000E+00  9.000E+00
      25     1     1     2     0     0  1.117253170E+02  3.399928997E+01  8.077373205E+01  1.891768854E+02  1.250000000E+02  0.00000E+00  9.000E+00
      21     1     1     2   501   511  3.772621521E+01 -2.737963178E+01  3.069425883E+01  5.581262470E+01  8.920806376E-07  0.00000E+00  9.000E+00
#rwgt            1           1  0.31006100438803685                2      143584           0
</event>
<event>
      5   9999  3.79277E-02  1.31188E+02 -1.00000E+00  1.18748E-01
      21    -1     0     0   512   501  0.000000000E+00  0.000000000E+00  2.579300452E+02  2.579300452E+02  0.000000000E+00  0.00000E+00  9.000E+00
      21    -1     0     0   501   502  0.000000000E+00  0.000000000E+00 -7.062259501E+02  7.062259501E+02  0.000000000E+00  0.00000E+00  9.000E+00
      25     1     1     2     0     0 -7.957627030E+01  1.234743474E+02 -3.279445225E+02  3.804614397E+02  1.250000000E+02  0.00000E+00  9.000E+00
      25     1     1     2     0     0 -2.331634095E+01 -2.048591722E+02 -2.849105111E+02  3.732424567E+02  1.250000000E+02  0.00000E+00  9.000E+00
      21     1     1     2   512   502  1.028926113E+02  8.138482480E+01  1.645591286E+02  2.104520990E+02  0.000000000E+00  0.00000E+00  9.000E+00
#rwgt            2          11   3.4506074617772944E-003           2      143680           0
</event>
<event>
      5   9999  3.79277E-02  9.27583E+01 -1.00000E+00  1.25314E-01
      21    -1     0     0   502   501  0.000000000E+00  0.000000000E+00  3.019033503E+02  3.019033503E+02  0.000000000E+00  0.00000E+00  9.000E+00
      21    -1     0     0   511   502  0.000000000E+00  0.000000000E+00 -5.929485148E+02  5.929485148E+02  0.000000000E+00  0.00000E+00  9.000E+00
      25     1     1     2     0     0  2.852981389E+02  1.348613566E+02 -2.791644495E+01  3.405685562E+02  1.250000000E+02  0.00000E+00  9.000E+00
      25     1     1     2     0     0 -3.639495601E+02 -8.568770601E+01 -2.255504881E+02  4.542022544E+02  1.250000000E+02  0.00000E+00  9.000E+00
      21     1     1     2   511   501  7.865142124E+01 -4.917365062E+01 -3.757823147E+01  1.000810544E+02  0.000000000E+00  0.00000E+00  9.000E+00
#rwgt            2          11   5.4052980937897791E-003           2      143730           0
</event>
<event>
      5   9999  3.79277E-02  1.35499E+02 -1.00000E+00  1.18171E-01
       2    -1     0     0   502     0  0.000000000E+00  0.000000000E+00  1.718993062E+03  1.718993062E+03  0.000000000E+00  0.00000E+00  9.000E+00
      21    -1     0     0   501   502  0.000000000E+00  0.000000000E+00 -3.193071126E+02  3.193071126E+02  0.000000000E+00  0.00000E+00  9.000E+00
      25     1     1     2     0     0 -2.997059381E+02  1.118062863E+02  2.554828631E+01  3.443864253E+02  1.250000000E+02  0.00000E+00  9.000E+00
      25     1     1     2     0     0  1.965540674E+02 -2.394431673E+01 -6.924435282E+01  2.441856100E+02  1.250000000E+02  0.00000E+00  9.000E+00
       2     1     1     2   501     0  1.031518707E+02 -8.786196954E+01  1.443382016E+03  1.449728139E+03  2.642899792E-05  0.00000E+00  9.000E+00
#rwgt            2          18   1.5680722024321117E-003           2      143795           0
</event>
<event>
      5   9999  3.79277E-02  5.59107E+01 -1.00000E+00  1.36362E-01
      21    -1     0     0   502   501  0.000000000E+00  0.000000000E+00  1.608099026E+03  1.608099026E+03  0.000000000E+00  0.00000E+00  9.000E+00
      21    -1     0     0   511   502  0.000000000E+00  0.000000000E+00 -2.072357017E+02  2.072357017E+02  0.000000000E+00  0.00000E+00  9.000E+00
      25     1     1     2     0     0 -1.899907172E+02 -1.320653900E+02  6.108251983E+02  6.650339561E+02  1.250000000E+02  0.00000E+00  9.000E+00
      25     1     1     2     0     0  1.586964777E+02  8.573316263E+01  9.530382077E+02  9.779783089E+02  1.250000000E+02  0.00000E+00  9.000E+00
      21     1     1     2   511   501  3.129423952E+01  4.633222738E+01 -1.630000814E+02  1.723224630E+02  3.814697266E-06  0.00000E+00  9.000E+00
#rwgt            1           1   4.5436209704891296E-002           2      143859           0
</event>
<event>
      5   9999  3.79277E-02  7.65687E+01 -1.00000E+00  1.29278E-01
      21    -1     0     0   502   512  0.000000000E+00  0.000000000E+00  9.101218987E+02  9.101218987E+02  0.000000000E+00  0.00000E+00  9.000E+00
      21    -1     0     0   501   502  0.000000000E+00  0.000000000E+00 -3.063273446E+02  3.063273446E+02  0.000000000E+00  0.00000E+00  9.000E+00
      25     1     1     2     0     0 -1.531054964E+02  1.594005706E+02 -1.362561035E+02  2.881675913E+02  1.250000000E+02  0.00000E+00  9.000E+00
      25     1     1     2     0     0  1.966921867E+02 -2.223526995E+02  1.921713879E+02  3.750778340E+02  1.250000000E+02  0.00000E+00  9.000E+00
      21     1     1     2   501   512 -4.358669036E+01  6.295212884E+01  5.478792697E+02  5.532038180E+02  7.629394531E-06  0.00000E+00  9.000E+00
#rwgt            1           1   3.1357126958531018E-002           2      143969           0
</event>
<event>
      5   9999  3.79277E-02  6.08584E+01 -1.00000E+00  1.34375E-01
      21    -1     0     0   502   511  0.000000000E+00  0.000000000E+00  8.441216613E+02  8.441216613E+02  0.000000000E+00  0.00000E+00  9.000E+00
      21    -1     0     0   501   502  0.000000000E+00  0.000000000E+00 -7.061698781E+01  7.061698781E+01  0.000000000E+00  0.00000E+00  9.000E+00
      25     1     1     2     0     0  6.631535144E+01 -5.053283843E+01  1.458309098E+02  2.093870766E+02  1.250000000E+02  0.00000E+00  9.000E+00
      25     1     1     2     0     0 -9.363188137E+01  1.049162111E+02  2.047368044E+02  2.780584464E+02  1.250000000E+02  0.00000E+00  9.000E+00
      21     1     1     2   501   511  2.731652993E+01 -5.438337267E+01  4.229369593E+02  4.272931261E+02  0.000000000E+00  0.00000E+00  9.000E+00
#rwgt            1           1   3.3022563173331181E-002           2      144063           0
</event>
<event>
      5   9999  3.79277E-02  1.37184E+02 -1.00000E+00  1.17952E-01
       1    -1     0     0   502     0  0.000000000E+00  0.000000000E+00  3.249262879E+02  3.249262879E+02  0.000000000E+00  0.00000E+00  9.000E+00
      21    -1     0     0   501   502  0.000000000E+00  0.000000000E+00 -9.538672398E+02  9.538672398E+02  0.000000000E+00  0.00000E+00  9.000E+00
      25     1     1     2     0     0  4.097959869E+00 -1.149438100E+02 -8.702263068E+02  8.866497041E+02  1.250000000E+02  0.00000E+00  9.000E+00
      25     1     1     2     0     0 -4.106848014E+01 -1.716438533E+01  2.147220031E+02  2.524119149E+02  1.250000000E+02  0.00000E+00  9.000E+00
       1     1     1     2   501     0  3.697052027E+01  1.321081953E+02  2.656335180E+01  1.397319087E+02  2.697398305E-06  0.00000E+00  9.000E+00
#rwgt            1           1   9.7983577099988228E-002           2      144135           0
</event>
<event>
      5   9999  3.79277E-02  1.05029E+01 -1.00000E+00  1.93325E-01
      21    -1     0     0   502   501  0.000000000E+00  0.000000000E+00  4.532835853E+01  4.532835853E+01  0.000000000E+00  0.00000E+00  9.000E+00
      21    -1     0     0   501   511  0.000000000E+00  0.000000000E+00 -4.645104273E+02  4.645104273E+02  0.000000000E+00  0.00000E+00  9.000E+00
      25     1     1     2     0     0  3.685491719E+01 -3.861493426E+01 -1.701024192E+02  2.177366095E+02  1.250000000E+02  0.00000E+00  9.000E+00
      25     1     1     2     0     0 -4.711969519E+01  3.639098912E+01 -2.092320165E+02  2.508936159E+02  1.250000000E+02  0.00000E+00  9.000E+00
      21     1     1     2   502   511  1.026477799E+01  2.223945136E+00 -3.984763307E+01  4.120856052E+01  6.743495762E-07  0.00000E+00  9.000E+00
#rwgt            1           1   2.9286854389041984E-002           2      144215           0
</event>
<event>
      5   9999  3.79277E-02  1.36387E+02 -1.00000E+00  1.18055E-01
      21    -1     0     0   502   512  0.000000000E+00  0.000000000E+00  2.944983042E+03  2.944983042E+03  0.000000000E+00  0.00000E+00  9.000E+00
      21    -1     0     0   501   502  0.000000000E+00  0.000000000E+00 -5.257790322E+01  5.257790322E+01  0.000000000E+00  0.00000E+00  9.000E+00
      25     1     1     2     0     0 -2.446183537E+02 -6.280396987E+01  7.821085117E+02  8.313249676E+02  1.250000000E+02  0.00000E+00  9.000E+00
      25     1     1     2     0     0  1.484899583E+02 -3.394695473E+01  3.580435808E+02  4.086830914E+02  1.250000000E+02  0.00000E+00  9.000E+00
      21     1     1     2   501   512  9.612839535E+01  9.675092460E+01  1.752253047E+03  1.757552887E+03  2.157918644E-05  0.00000E+00  9.000E+00
#rwgt            1           1   4.1443896025984736E-002           2      144420           0
</event>
<event>
      5   9999 -3.79277E-02  3.23001E+01 -1.00000E+00  1.50844E-01
      21    -1     0     0   502   511  0.000000000E+00  0.000000000E+00  2.234246080E+01  2.234246080E+01  0.000000000E+00  0.00000E+00  9.000E+00
      21    -1     0     0   501   502  0.000000000E+00  0.000000000E+00 -1.772529353E+03  1.772529353E+03  0.000000000E+00  0.00000E+00  9.000E+00
      25     1     1     2     0     0  4.083395910E+01  1.072407894E+02 -9.873826543E+02  1.001857028E+03  1.250000000E+02  0.00000E+00  9.000E+00
      25     1     1     2     0     0 -7.167072396E+01 -9.762869852E+01 -7.107758559E+02  7.317754934E+02  1.250000000E+02  0.00000E+00  9.000E+00
      21     1     1     2   501   511  3.083676485E+01 -9.612090873E+00 -5.202838177E+01  6.123929186E+01  1.907348633E-06  0.00000E+00  9.000E+00
#rwgt            1           1 -0.12102697963907051                2      144917           0
</event>
<event>
      5   9999  3.79277E-02  2.49094E+01 -1.00000E+00  1.58869E-01
      21    -1     0     0   502   512  0.000000000E+00  0.000000000E+00  2.794796379E+02  2.794796379E+02  0.000000000E+00  0.00000E+00  9.000E+00
      21    -1     0     0   501   502  0.000000000E+00  0.000000000E+00 -5.280787264E+02  5.280787264E+02  0.000000000E+00  0.00000E+00  9.000E+00
      25     1     1     2     0     0  1.942357994E+01  4.412985394E+01 -4.703283998E+02  4.890383657E+02  1.250000000E+02  0.00000E+00  9.000E+00
      25     1     1     2     0     0  3.422905116E+00 -3.420431818E+01  4.083634686E+01  1.359200459E+02  1.250000000E+02  0.00000E+00  9.000E+00
      21     1     1     2   501   512 -2.284648506E+01 -9.925535764E+00  1.808929644E+02  1.825999527E+02  3.303624740E-06  0.00000E+00  9.000E+00
#rwgt            1           1   3.8696534039168437E-002           2      145089           0
</event>
<event>
      5   9999  3.79277E-02  4.27274E+01 -1.00000E+00  1.43086E-01
      21    -1     0     0   502   501  0.000000000E+00  0.000000000E+00  1.547626073E+03  1.547626073E+03  0.000000000E+00  0.00000E+00  9.000E+00
      21    -1     0     0   511   502  0.000000000E+00  0.000000000E+00 -2.810810771E+02  2.810810771E+02  0.000000000E+00  0.00000E+00  9.000E+00
      25     1     1     2     0     0  5.457206651E+00  1.505936682E+02  7.853693826E+02  8.094061410E+02  1.250000000E+02  0.00000E+00  9.000E+00
      25     1     1     2     0     0 -3.126221095E+01 -1.846484978E+02  7.314934668E+02  7.653627150E+02  1.250000000E+02  0.00000E+00  9.000E+00
      21     1     1     2   511   501  2.580500430E+01  3.405482958E+01 -2.503178532E+02  2.539382943E+02  6.607249480E-06  0.00000E+00  9.000E+00
#rwgt            1           1   4.1635763186354209E-002           2      145225           0
</event>
<event>
      5   9999  3.79277E-02  8.93118E+01 -1.00000E+00  1.26077E-01
       1    -1     0     0   502     0  0.000000000E+00  0.000000000E+00  9.266032268E+02  9.266032268E+02  0.000000000E+00  0.00000E+00  9.000E+00
      21    -1     0     0   501   502  0.000000000E+00  0.000000000E+00 -6.802438490E+01  6.802438490E+01  0.000000000E+00  0.00000E+00  9.000E+00
      25     1     1     2     0     0  1.361529965E+02 -1.997234457E+00  1.622976006E+02  2.459819883E+02  1.250000000E+02  0.00000E+00  9.000E+00
      25     1     1     2     0     0 -6.146558022E+01 -4.697612435E+01  5.981833168E+02  6.159813750E+02  1.250000000E+02  0.00000E+00  9.000E+00
       1     1     1     2   501     0 -7.468741627E+01  4.897335881E+01  9.809792441E+01  1.326642484E+02  3.303624740E-06  0.00000E+00  9.000E+00
#rwgt            1           1   3.4499547471866843E-002           2      145417           0
</event>
<event>
      5   9999  3.79277E-02  7.98810E+01 -1.00000E+00  1.28381E-01
      21    -1     0     0   502   501  0.000000000E+00  0.000000000E+00  1.939998800E+02  1.939998800E+02  0.000000000E+00  0.00000E+00  9.000E+00
      21    -1     0     0   501   511  0.000000000E+00  0.000000000E+00 -5.434689172E+02  5.434689172E+02  0.000000000E+00  0.00000E+00  9.000E+00
      25     1     1     2     0     0  1.466645583E+02 -3.467450323E+01  5.877158866E+01  2.044307058E+02  1.250000000E+02  0.00000E+00  9.000E+00
      25     1     1     2     0     0 -2.261999696E+02  2.725238607E+01 -3.402446676E+02  4.281361380E+02  1.250000000E+02  0.00000E+00  9.000E+00
      21     1     1     2   502   511  7.953541131E+01  7.422117158E+00 -6.799595832E+01  1.049019534E+02  1.651812370E-06  0.00000E+00  9.000E+00
#rwgt            2          11   3.4196640901511177E-003           2      145569           0
</event>
<event>
      5   9999  3.79277E-02  9.15959E+01 -1.00000E+00  1.25567E-01
      21    -1     0     0   512   501  0.000000000E+00  0.000000000E+00  3.400908444E+02  3.400908444E+02  0.000000000E+00  0.00000E+00  9.000E+00
      21    -1     0     0   501   502  0.000000000E+00  0.000000000E+00 -7.299409944E+02  7.299409944E+02  0.000000000E+00  0.00000E+00  9.000E+00
      25     1     1     2     0     0 -1.503071091E+02 -2.946079893E+02  1.295233447E+02  3.765466654E+02  1.250000000E+02  0.00000E+00  9.000E+00
      25     1     1     2     0     0  5.886298667E+01  2.998783516E+02 -5.010779328E+02  6.000799711E+02  1.250000000E+02  0.00000E+00  9.000E+00
      21     1     1     2   512   502  9.144412241E+01 -5.270362354E+00 -1.829556181E+01  9.340520234E+01  1.545128989E-06  0.00000E+00  9.000E+00
#rwgt            1           1  0.16547314421689341                2      145589           0
</event>
<event>
      5   9999 -3.79277E-02  2.15217E+01 -1.00000E+00  1.63784E-01
      21    -1     0     0   511   501  0.000000000E+00  0.000000000E+00  1.475608656E+02  1.475608656E+02  0.000000000E+00  0.00000E+00  9.000E+00
      21    -1     0     0   501   502  0.000000000E+00  0.000000000E+00 -4.666758747E+02  4.666758747E+02  0.000000000E+00  0.00000E+00  9.000E+00
      25     1     1     2     0     0  1.636488835E+02 -6.049277160E+01 -2.602258924E+02  3.373171321E+02  1.250000000E+02  0.00000E+00  9.000E+00
      25     1     1     2     0     0 -1.851600489E+02  6.116614425E+01 -8.164915257E+01  2.455954499E+02  1.250000000E+02  0.00000E+00  9.000E+00
      21     1     1     2   511   502  2.151116534E+01 -6.733726464E-01  2.276003588E+01  3.132415838E+01  6.743495762E-07  0.00000E+00  9.000E+00
#rwgt            1           1  -4.5662053978838983E-002           2      145757           0
</event>
<event>
      5   9999  3.79277E-02  1.21903E+02 -1.00000E+00  1.20079E-01
      21    -1     0     0   502   501  0.000000000E+00  0.000000000E+00  3.923411081E+02  3.923411081E+02  0.000000000E+00  0.00000E+00  9.000E+00
      -5    -1     0     0     0   502  0.000000000E+00  0.000000000E+00 -3.115148504E+02  3.115148504E+02  0.000000000E+00  0.00000E+00  9.000E+00
      25     1     1     2     0     0 -1.611451534E+01  1.847250259E+02  5.983868139E+01  2.314922905E+02  1.250000000E+02  0.00000E+00  9.000E+00
      25     1     1     2     0     0 -1.024540814E+02 -2.130413728E+02  1.401347890E+02  3.019043299E+02  1.250000000E+02  0.00000E+00  9.000E+00
      -5     1     1     2     0   501  1.185685967E+02  2.831634698E+01 -1.191472127E+02  1.704593381E+02  1.907348633E-06  0.00000E+00  9.000E+00
#rwgt            1           1   2.2813861867116324E-002           2      145981           0
</event>
<event>
      5   9999  3.79277E-02  1.63658E+02 -1.00000E+00  1.14913E-01
      -2    -1     0     0     0   501  0.000000000E+00  0.000000000E+00  5.693592846E+02  5.693592846E+02  0.000000000E+00  0.00000E+00  9.000E+00
      21    -1     0     0   501   502  0.000000000E+00  0.000000000E+00 -1.928029353E+02  1.928029353E+02  0.000000000E+00  0.00000E+00  9.000E+00
      25     1     1     2     0     0  4.208165737E+01  5.434892087E+01 -1.044546310E+02  1.768062245E+02  1.250000000E+02  0.00000E+00  9.000E+00
      25     1     1     2     0     0  1.087161951E+02  9.243569731E+00  1.969689263E+02  2.575391477E+02  1.250000000E+02  0.00000E+00  9.000E+00
      -2     1     1     2     0   502 -1.507978525E+02 -6.359249060E+01  2.840420540E+02  3.278168477E+02  3.814697266E-06  0.00000E+00  9.000E+00
#rwgt            1           1   2.1733629933063835E-002           2      146050           0
</event>
<event>
      5   9999  3.79277E-02  1.25398E+02 -1.00000E+00  1.19563E-01
      21    -1     0     0   511   501  0.000000000E+00  0.000000000E+00  2.427000440E+02  2.427000440E+02  0.000000000E+00  0.00000E+00  9.000E+00
      21    -1     0     0   501   502  0.000000000E+00  0.000000000E+00 -5.427290227E+02  5.427290227E+02  0.000000000E+00  0.00000E+00  9.000E+00
      25     1     1     2     0     0  1.544865720E+01 -1.891521638E+02 -6.063982903E+01  2.352007461E+02  1.250000000E+02  0.00000E+00  9.000E+00
      25     1     1     2     0     0  1.828972806E+00  3.133539371E+02 -2.563145188E+02  4.236934831E+02  1.250000000E+02  0.00000E+00  9.000E+00
      21     1     1     2   511   502 -1.727763000E+01 -1.242017733E+02  1.692536910E+01  1.265348376E+02  2.172096629E-06  0.00000E+00  9.000E+00
#rwgt            1           1   2.6903473916917033E-002           2      146168           0
</event>
<event>
      5   9999  3.79277E-02  1.40126E+01 -1.00000E+00  1.80216E-01
       1    -1     0     0   502     0  0.000000000E+00  0.000000000E+00  2.779510201E+03  2.779510201E+03  0.000000000E+00  0.00000E+00  9.000E+00
      21    -1     0     0   501   502  0.000000000E+00  0.000000000E+00 -3.723680026E+01  3.723680026E+01  0.000000000E+00  0.00000E+00  9.000E+00
      25     1     1     2     0     0 -1.304268954E+02  2.158233624E+01  1.505113731E+03  1.516070353E+03  1.250000000E+02  0.00000E+00  9.000E+00
      25     1     1     2     0     0  1.353297210E+02 -8.455497181E+00  2.364333402E+02  2.998522189E+02  1.250000000E+02  0.00000E+00  9.000E+00
       1     1     1     2   501     0 -4.902825575E+00 -1.312683906E+01  1.000726330E+03  1.000824430E+03  1.078959322E-05  0.00000E+00  9.000E+00
#rwgt            1           1   4.6497707370503689E-002           2      146261           0
</event>
<event>
      5   9999  3.79277E-02  2.43585E+01 -1.00000E+00  1.59601E-01
      21    -1     0     0   502   501  0.000000000E+00  0.000000000E+00  1.162514137E+02  1.162514137E+02  0.000000000E+00  0.00000E+00  9.000E+00
      21    -1     0     0   511   502  0.000000000E+00  0.000000000E+00 -1.082369170E+03  1.082369170E+03  0.000000000E+00  0.00000E+00  9.000E+00
      25     1     1     2     0     0  1.467788984E+02 -4.227609652E+01 -1.470337561E+02  2.461203746E+02  1.250000000E+02  0.00000E+00  9.000E+00
      25     1     1     2     0     0 -1.288823888E+02  5.880038570E+01 -6.765234487E+01  2.006738530E+02  1.250000000E+02  0.00000E+00  9.000E+00
      21     1     1     2   511   501 -1.789650965E+01 -1.652428919E+01 -7.514316553E+02  7.518263561E+02  1.078959322E-05  0.00000E+00  9.000E+00
#rwgt            1           1   4.0921014803654843E-002           2      146611           0
</event>
<event>
      5   9999  3.79277E-02  1.81599E+02 -1.00000E+00  1.13196E-01
       1    -1     0     0   502     0  0.000000000E+00  0.000000000E+00  1.640375397E+03  1.640375397E+03  0.000000000E+00  0.00000E+00  9.000E+00
      21    -1     0     0   501   502  0.000000000E+00  0.000000000E+00 -7.836451371E+02  7.836451371E+02  0.000000000E+00  0.00000E+00  9.000E+00
      25     1     1     2     0     0  1.589466243E+01 -3.266221333E+01  4.769411793E+00  1.302582349E+02  1.250000000E+02  0.00000E+00  9.000E+00
      25     1     1     2     0     0 -5.502757150E+01  2.099942360E+02 -6.936620681E+02  7.375077474E+02  1.250000000E+02  0.00000E+00  9.000E+00
       1     1     1     2   501     0  3.913290907E+01 -1.773320227E+02  1.545622916E+03  1.556254552E+03  0.000000000E+00  0.00000E+00  9.000E+00
#rwgt            1           1   3.7074986472397285E-002           2      146777           0
</event>
<event>
      5   9999  3.79277E-02  1.64050E+01 -1.00000E+00  1.73797E-01
      21    -1     0     0   502   511  0.000000000E+00  0.000000000E+00  8.962358378E+02  8.962358378E+02  0.000000000E+00  0.00000E+00  9.000E+00
      21    -1     0     0   501   502  0.000000000E+00  0.000000000E+00 -5.598970877E+01  5.598970877E+01  0.000000000E+00  0.00000E+00  9.000E+00
      25     1     1     2     0     0  3.782385914E+00  3.627922198E+01  5.532249712E+02  5.683426407E+02  1.250000000E+02  0.00000E+00  9.000E+00
      25     1     1     2     0     0  1.253320845E+01 -3.798981146E+01  4.126449227E+01  1.375793059E+02  1.250000000E+02  0.00000E+00  9.000E+00
      21     1     1     2   501   511 -1.631559436E+01  1.710589477E+00  2.457566655E+02  2.463036000E+02  4.672030912E-06  0.00000E+00  9.000E+00
#rwgt            1           1   4.4903266692370776E-002           2      146861           0
</event>
<event>
      5   9999  3.79277E-02  1.17793E+01 -1.00000E+00  1.87880E-01
      21    -1     0     0   512   501  0.000000000E+00  0.000000000E+00  1.420972509E+02  1.420972509E+02  0.000000000E+00  0.00000E+00  9.000E+00
      21    -1     0     0   501   502  0.000000000E+00  0.000000000E+00 -2.386319578E+02  2.386319578E+02  0.000000000E+00  0.00000E+00  9.000E+00
      25     1     1     2     0     0  2.799504790E+01  2.589081746E+01  4.837656073E+01  1.393533235E+02  1.250000000E+02  0.00000E+00  9.000E+00
      25     1     1     2     0     0 -2.795785422E+01 -3.767003357E+01 -1.685155405E+02  2.149957219E+02  1.250000000E+02  0.00000E+00  9.000E+00
      21     1     1     2   512   502 -3.719368066E-02  1.177921611E+01  2.360427293E+01  2.638016331E+01  3.371747881E-07  0.00000E+00  9.000E+00
#rwgt            1           1   3.8681509569663888E-002           2      147068           0
</event>
<event>
      5   9999  3.79277E-02  1.04582E+01 -1.00000E+00  1.93534E-01
      21    -1     0     0   511   501  0.000000000E+00  0.000000000E+00  3.028522048E+02  3.028522048E+02  0.000000000E+00  0.00000E+00  9.000E+00
      21    -1     0     0   501   502  0.000000000E+00  0.000000000E+00 -1.152441405E+02  1.152441405E+02  0.000000000E+00  0.00000E+00  9.000E+00
      25     1     1     2     0     0  4.598957231E+01 -1.438803409E+01 -4.661005794E+01  1.418434129E+02  1.250000000E+02  0.00000E+00  9.000E+00
      25     1     1     2     0     0 -5.298378456E+01  6.612693863E+00  2.147251949E+02  2.541316951E+02  1.250000000E+02  0.00000E+00  9.000E+00
      21     1     1     2   511   502  6.994212252E+00  7.775340230E+00  1.949292742E+01  2.212123731E+01  0.000000000E+00  0.00000E+00  9.000E+00
#rwgt            1           1   4.3768374368011953E-002           2      147385           0
</event>
<event>
      5   9999  3.79277E-02  4.00874E+01 -1.00000E+00  1.44781E-01
      21    -1     0     0   512   501  0.000000000E+00  0.000000000E+00  5.855464071E+01  5.855464071E+01  0.000000000E+00  0.00000E+00  9.000E+00
      21    -1     0     0   501   502  0.000000000E+00  0.000000000E+00 -1.530003233E+03  1.530003233E+03  0.000000000E+00  0.00000E+00  9.000E+00
      25     1     1     2     0     0  2.280604122E+02 -2.432457041E+01 -4.858097673E+02  5.515789756E+02  1.250000000E+02  0.00000E+00  9.000E+00
      25     1     1     2     0     0 -2.346358610E+02 -1.521990872E+01 -9.361720901E+02  9.733081810E+02  1.250000000E+02  0.00000E+00  9.000E+00
      21     1     1     2   512   502  6.575448792E+00  3.954447913E+01 -4.946673476E+01  6.367071701E+01  6.743495762E-07  0.00000E+00  9.000E+00
#rwgt            1           1   8.0356537758063520E-002           2      147621           0
</event>
<event>
      5   9999  3.79277E-02  1.75273E+02 -1.00000E+00  1.13775E-01
      21    -1     0     0   502   501  0.000000000E+00  0.000000000E+00  4.827475887E+02  4.827475887E+02  0.000000000E+00  0.00000E+00  9.000E+00
      21    -1     0     0   511   502  0.000000000E+00  0.000000000E+00 -3.933990001E+02  3.933990001E+02  0.000000000E+00  0.00000E+00  9.000E+00
      25     1     1     2     0     0 -1.523098109E+02  1.232011723E+01  1.910681688E+02  2.747400752E+02  1.250000000E+02  0.00000E+00  9.000E+00
      25     1     1     2     0     0  1.116668400E+02 -1.828156032E+02  1.535858236E+02  2.917269839E+02  1.250000000E+02  0.00000E+00  9.000E+00
      21     1     1     2   511   501  4.064297095E+01  1.704954860E+02 -2.553054038E+02  3.096795296E+02  2.697398305E-06  0.00000E+00  9.000E+00
#rwgt            1           1   3.4235018851852081E-002           2      147718           0
</event>
<event>
      5   9999  3.79277E-02  7.55416E+01 -1.00000E+00  1.29567E-01
       1    -1     0     0   502     0  0.000000000E+00  0.000000000E+00  1.786672415E+03  1.786672415E+03  0.000000000E+00  0.00000E+00  9.000E+00
      21    -1     0     0   501   502  0.000000000E+00  0.000000000E+00 -1.146788988E+02  1.146788988E+02  0.000000000E+00  0.00000E+00  9.000E+00
      25     1     1     2     0     0  1.152224388E+02  2.447239651E+01  9.004494472E+02  9.166838690E+02  1.250000000E+02  0.00000E+00  9.000E+00
      25     1     1     2     0     0 -4.054668369E+01 -3.587727659E+01 -6.060648712E+01  1.490951334E+02  1.250000000E+02  0.00000E+00  9.000E+00
       1     1     1     2   501     0 -7.467575515E+01  1.140488008E+01  8.321505555E+02  8.355723109E+02  1.078959322E-05  0.00000E+00  9.000E+00
#rwgt            1           1   3.8751221335003361E-002           2      147850           0
</event>
<event>
      5   9999  3.79277E-02  1.46157E+02 -1.00000E+00  1.16842E-01
      21    -1     0     0   511   501  0.000000000E+00  0.000000000E+00  3.639178764E+02  3.639178764E+02  0.000000000E+00  0.00000E+00  9.000E+00
      21    -1     0     0   501   502  0.000000000E+00  0.000000000E+00 -2.844152628E+02  2.844152628E+02  0.000000000E+00  0.00000E+00  9.000E+00
      25     1     1     2     0     0 -1.678872906E+02  2.899900659E+00  1.900777517E+01  2.101924054E+02  1.250000000E+02  0.00000E+00  9.000E+00
      25     1     1     2     0     0  4.876701375E+01 -8.758968788E+01 -1.241124960E+02  2.026797639E+02  1.250000000E+02  0.00000E+00  9.000E+00
      21     1     1     2   511   502  1.191202769E+02  8.468978722E+01  1.846073344E+02  2.354609698E+02  2.697398305E-06  0.00000E+00  9.000E+00
#rwgt            1           1   3.4651125710789397E-002           2      148005           0
</event>
<event>
      5   9999  3.79277E-02  3.76306E+01 -1.00000E+00  1.46504E-01
      21    -1     0     0   502   501  0.000000000E+00  0.000000000E+00  9.713475215E+01  9.713475215E+01  0.000000000E+00  0.00000E+00  9.000E+00
       2    -1     0     0   501     0  0.000000000E+00  0.000000000E+00 -1.003962634E+03  1.003962634E+03  0.000000000E+00  0.00000E+00  9.000E+00
      25     1     1     2     0     0  1.891866511E+02 -1.232875982E+02 -3.362288342E+02  4.238705578E+02  1.250000000E+02  0.00000E+00  9.000E+00
      25     1     1     2     0     0 -2.162897815E+02  9.718234121E+01 -2.931001825E+02  3.971881091E+02  1.250000000E+02  0.00000E+00  9.000E+00
       2     1     1     2   502     0  2.710313039E+01  2.610525702E+01 -2.774988648E+02  2.800387189E+02  0.000000000E+00  0.00000E+00  9.000E+00
#rwgt            1           1   3.3400935273862967E-002           2      148103           0
</event>
<event>
      5   9999  3.79277E-02  8.83220E+01 -1.00000E+00  1.26303E-01
      21    -1     0     0   502   511  0.000000000E+00  0.000000000E+00  2.447626339E+02  2.447626339E+02  0.000000000E+00  0.00000E+00  9.000E+00
      21    -1     0     0   501   502  0.000000000E+00  0.000000000E+00 -7.246034424E+02  7.246034424E+02  0.000000000E+00  0.00000E+00  9.000E+00
      25     1     1     2     0     0 -5.057031641E+01  1.491037871E+01 -4.091282196E+01  1.416987484E+02  1.250000000E+02  0.00000E+00  9.000E+00
      25     1     1     2     0     0  5.765737509E+01  7.312685642E+01 -6.129799816E+02  6.324882353E+02  1.250000000E+02  0.00000E+00  9.000E+00
      21     1     1     2   501   511 -7.087058677E+00 -8.803723514E+01  1.740519951E+02  1.951790926E+02  3.303624740E-06  0.00000E+00  9.000E+00
#rwgt            1           1   4.2588273920970761E-002           2      148301           0
</event>
<event>
      5   9999  3.79277E-02  2.73686E+01 -1.00000E+00  1.55862E-01
      21    -1     0     0   502   501  0.000000000E+00  0.000000000E+00  8.390799523E+02  8.390799523E+02  0.000000000E+00  0.00000E+00  9.000E+00
      21    -1     0     0   512   502  0.000000000E+00  0.000000000E+00 -2.306631641E+02  2.306631641E+02  0.000000000E+00  0.00000E+00  9.000E+00
      25     1     1     2     0     0  6.393580393E+00 -3.960857931E+02  3.183776577E+02  5.233680983E+02  1.250000000E+02  0.00000E+00  9.000E+00
      25     1     1     2     0     0 -2.505520014E+01  4.161053418E+02  2.784526353E+02  5.166549028E+02  1.250000000E+02  0.00000E+00  9.000E+00
      21     1     1     2   512   501  1.866161975E+01 -2.001954863E+01  1.158649518E+01  2.972011523E+01  2.920019320E-07  0.00000E+00  9.000E+00
#rwgt            1           1   2.2199456458611468E-002           2      148421           0
</event>
<event>
      5   9999 -3.79277E-02  1.54356E+01 -1.00000E+00  1.76220E-01
      21    -1     0     0   502   511  0.000000000E+00  0.000000000E+00  9.907746495E+01  9.907746495E+01  0.000000000E+00  0.00000E+00  9.000E+00
      21    -1     0     0   501   502  0.000000000E+00  0.000000000E+00 -7.859936230E+02  7.859936230E+02  0.000000000E+00  0.00000E+00  9.000E+00
      25     1     1     2     0     0  1.558211946E+02  6.269460348E+01 -5.556396283E+02  5.937771084E+02  1.250000000E+02  0.00000E+00  9.000E+00
      25     1     1     2     0     0 -1.703947066E+02 -5.760830573E+01 -1.511512770E+02  2.661292571E+02  1.250000000E+02  0.00000E+00  9.000E+00
      21     1     1     2   501   511  1.457351199E+01 -5.086297750E+00  1.987474726E+01  2.516472243E+01  9.830249847E-07  0.00000E+00  9.000E+00
#rwgt            1           1 -0.12768170672764143                2      148795           0
</event>
<event>
      5   9999  3.79277E-02  1.26044E+02 -1.00000E+00  1.19469E-01
      21    -1     0     0   502   501  0.000000000E+00  0.000000000E+00  9.852549560E+02  9.852549560E+02  0.000000000E+00  0.00000E+00  9.000E+00
      21    -1     0     0   512   502  0.000000000E+00  0.000000000E+00 -1.889317145E+02  1.889317145E+02  0.000000000E+00  0.00000E+00  9.000E+00
      25     1     1     2     0     0 -1.240908790E+02 -2.501374624E+02  5.405492655E+02  6.211165791E+02  1.250000000E+02  0.00000E+00  9.000E+00
      25     1     1     2     0     0  4.578078383E+01  1.513725441E+02  3.443519549E+02  3.990147818E+02  1.250000000E+02  0.00000E+00  9.000E+00
      21     1     1     2   512   501  7.831009520E+01  9.876491827E+01 -8.857797887E+01  1.540553097E+02  3.303624740E-06  0.00000E+00  9.000E+00
#rwgt            1           1   3.8065110665705885E-002           2      149093           0
</event>
<event>
      5   9999  3.79277E-02  4.63271E+01 -1.00000E+00  1.40993E-01
      21    -1     0     0   511   501  0.000000000E+00  0.000000000E+00  3.165137063E+02  3.165137063E+02  0.000000000E+00  0.00000E+00  9.000E+00
      21    -1     0     0   501   502  0.000000000E+00  0.000000000E+00 -3.819330283E+02  3.819330283E+02  0.000000000E+00  0.00000E+00  9.000E+00
      25     1     1     2     0     0  2.673831501E+02 -7.368539385E+01 -1.895145684E+02  3.584188302E+02  1.250000000E+02  0.00000E+00  9.000E+00
      25     1     1     2     0     0 -2.356040833E+02  3.997644715E+01  1.128978781E+02  2.923667752E+02  1.250000000E+02  0.00000E+00  9.000E+00
      21     1     1     2   511   502 -3.177906684E+01  3.370894670E+01  1.119736839E+01  4.766112919E+01  4.616955931E-07  0.00000E+00  9.000E+00
#rwgt            1           1   5.0058757269955977E-002           2      149195           0
</event>
<event>
      5   9999  3.79277E-02  9.62176E+01 -1.00000E+00  1.24586E-01
      21    -1     0     0   502   501  0.000000000E+00  0.000000000E+00  1.689702658E+03  1.689702658E+03  0.000000000E+00  0.00000E+00  9.000E+00
      21    -1     0     0   501   512  0.000000000E+00  0.000000000E+00 -6.480029712E+01  6.480029712E+01  0.000000000E+00  0.00000E+00  9.000E+00
      25     1     1     2     0     0  1.039630375E+02 -1.110811436E+02  8.325879870E+02  8.555554276E+02  1.250000000E+02  0.00000E+00  9.000E+00
      25     1     1     2     0     0 -1.217260837E+02  2.056449089E+02  7.438163049E+02  7.911983085E+02  1.250000000E+02  0.00000E+00  9.000E+00
      21     1     1     2   502   512  1.776304624E+01 -9.456376528E+01  4.849806923E+01  1.077492192E+02  3.371747881E-06  0.00000E+00  9.000E+00
#rwgt            1           1   1.9082285520859096E-002           2      149454           0
</event>
<event>
      5   9999  3.79277E-02  1.23315E+01 -1.00000E+00  1.85792E-01
      21    -1     0     0   502   511  0.000000000E+00  0.000000000E+00  7.301214374E+02  7.301214374E+02  0.000000000E+00  0.00000E+00  9.000E+00
      21    -1     0     0   501   502  0.000000000E+00  0.000000000E+00 -7.216046579E+01  7.216046579E+01  0.000000000E+00  0.00000E+00  9.000E+00
      25     1     1     2     0     0 -4.345111177E+01 -1.449934965E+02  3.883285084E+02  4.351265834E+02  1.250000000E+02  0.00000E+00  9.000E+00
      25     1     1     2     0     0  5.292407770E+01  1.528883919E+02  1.675662572E+02  2.643468724E+02  1.250000000E+02  0.00000E+00  9.000E+00
      21     1     1     2   501   511 -9.472965934E+00 -7.894895346E+00  1.020662060E+02  1.028084474E+02  1.907348633E-06  0.00000E+00  9.000E+00
#rwgt            1           1   4.5496225749363850E-002           2      149518           0
</event>
<event>
      5   9999  3.79277E-02  1.48768E+01 -1.00000E+00  1.77722E-01
      21    -1     0     0   502   512  0.000000000E+00  0.000000000E+00  1.320986484E+02  1.320986484E+02  0.000000000E+00  0.00000E+00  9.000E+00
      21    -1     0     0   501   502  0.000000000E+00  0.000000000E+00 -4.981284840E+02  4.981284840E+02  0.000000000E+00  0.00000E+00  9.000E+00
      25     1     1     2     0     0 -7.567219912E+01  2.566906566E-01 -4.363421953E+02  4.601585151E+02  1.250000000E+02  0.00000E+00  9.000E+00
      25     1     1     2     0     0  6.233452922E+01  6.333163923E+00  6.126583302E+01  1.526571479E+02  1.250000000E+02  0.00000E+00  9.000E+00
      21     1     1     2   501   512  1.333766991E+01 -6.589854580E+00  9.046526733E+00  1.741146943E+01  2.384185791E-07  0.00000E+00  9.000E+00
#rwgt            1           1   4.8637826315973673E-002           2      149681           0
</event>
<event>
      5   9999  3.79277E-02  5.17954E+01 -1.00000E+00  1.38207E-01
      21    -1     0     0   502   511  0.000000000E+00  0.000000000E+00  2.272425583E+02  2.272425583E+02  0.000000000E+00  0.00000E+00  9.000E+00
      21    -1     0     0   501   502  0.000000000E+00  0.000000000E+00 -2.912920199E+02  2.912920199E+02  0.000000000E+00  0.00000E+00  9.000E+00
      25     1     1     2     0     0 -1.324729317E+02  1.408383453E+02  1.051348160E+01  2.304778741E+02  1.250000000E+02  0.00000E+00  9.000E+00
      25     1     1     2     0     0  1.569774711E+02 -9.520624105E+01 -7.977826148E+01  2.359994190E+02  1.250000000E+02  0.00000E+00  9.000E+00
      21     1     1     2   501   511 -2.450453943E+01 -4.563210422E+01  5.215318314E+00  5.205728511E+01  4.578319638E-07  0.00000E+00  9.000E+00
#rwgt            1           1   3.3833933106216116E-002           2      150015           0
</event>
<event>
      5   9999  3.79277E-02  2.08955E+01 -1.00000E+00  1.64815E-01
      21    -1     0     0   502   512  0.000000000E+00  0.000000000E+00  1.986438995E+01  1.986438995E+01  0.000000000E+00  0.00000E+00  9.000E+00
      21    -1     0     0   501   502  0.000000000E+00  0.000000000E+00 -1.842986016E+03  1.842986016E+03  0.000000000E+00  0.00000E+00  9.000E+00
      25     1     1     2     0     0  8.128429552E+01  7.970623195E+01 -1.153501489E+03  1.165826276E+03  1.250000000E+02  0.00000E+00  9.000E+00
      25     1     1     2     0     0 -9.741002286E+01 -6.641774440E+01 -6.146674615E+02  6.382328083E+02  1.250000000E+02  0.00000E+00  9.000E+00
      21     1     1     2   501   512  1.612572734E+01 -1.328848755E+01 -5.495267545E+01  5.879132183E+01  6.743495762E-07  0.00000E+00  9.000E+00
#rwgt            1           1  0.14358709266360975                2      150137           0
</event>
<event>
      5   9999  3.79277E-02  1.24226E+02 -1.00000E+00  1.19734E-01
       2    -1     0     0   502     0  0.000000000E+00  0.000000000E+00  6.528713613E+02  6.528713613E+02  0.000000000E+00  0.00000E+00  9.000E+00
      21    -1     0     0   501   502  0.000000000E+00  0.000000000E+00 -2.989746304E+02  2.989746304E+02  0.000000000E+00  0.00000E+00  9.000E+00
      25     1     1     2     0     0 -4.349138881E+01  2.362442997E+02 -1.106540437E+02  2.925272422E+02  1.250000000E+02  0.00000E+00  9.000E+00
      25     1     1     2     0     0 -7.257653501E+01 -1.919697578E+02  7.698690321E+01  2.523325674E+02  1.250000000E+02  0.00000E+00  9.000E+00
       2     1     1     2   501     0  1.160679238E+02 -4.427454197E+01  3.875638713E+02  4.069861820E+02  0.000000000E+00  0.00000E+00  9.000E+00
#rwgt            1           1   4.5127619205455681E-002           2      150280           0
</event>
<event>
      5   9999  3.79277E-02  3.01091E+01 -1.00000E+00  1.52930E-01
      21    -1     0     0   502   501  0.000000000E+00  0.000000000E+00  6.622577315E+01  6.622577315E+01  0.000000000E+00  0.00000E+00  9.000E+00
      21    -1     0     0   501   511  0.000000000E+00  0.000000000E+00 -7.612327428E+02  7.612327428E+02  0.000000000E+00  0.00000E+00  9.000E+00
      25     1     1     2     0     0 -1.443198024E+02  3.655445793E+00 -2.598061770E+02  3.224373075E+02  1.250000000E+02  0.00000E+00  9.000E+00
      25     1     1     2     0     0  1.702145298E+02  1.170750156E+01 -3.035405458E+02  3.699620450E+02  1.250000000E+02  0.00000E+00  9.000E+00
      21     1     1     2   502   511 -2.589472734E+01 -1.536294735E+01 -1.316602467E+02  1.350591634E+02  1.907348633E-06  0.00000E+00  9.000E+00
#rwgt            1           1   3.6622932028786741E-002           2      150344           0
</event>
<event>
      5   9999  3.79277E-02  3.06120E+01 -1.00000E+00  1.52433E-01
      21    -1     0     0   512   501  0.000000000E+00  0.000000000E+00  2.085175658E+02  2.085175658E+02  0.000000000E+00  0.00000E+00  9.000E+00
      21    -1     0     0   501   502  0.000000000E+00  0.000000000E+00 -4.167552518E+02  4.167552518E+02  0.000000000E+00  0.00000E+00  9.000E+00
      25     1     1     2     0     0  6.088027528E+01 -1.171115449E+02  8.185345170E+01  1.993652663E+02  1.250000000E+02  0.00000E+00  9.000E+00
      25     1     1     2     0     0 -3.030964785E+01  1.187019335E+02 -3.312297523E+02  3.746291133E+02  1.250000000E+02  0.00000E+00  9.000E+00
      21     1     1     2   512   502 -3.057062742E+01 -1.590388566E+00  4.113861454E+01  5.127843799E+01  6.743495762E-07  0.00000E+00  9.000E+00
#rwgt            1           1   2.4186070795948401E-002           2      150462           0
</event>
<event>
      5   9999  3.79277E-02  4.01856E+01 -1.00000E+00  1.44716E-01
       1    -1     0     0   502     0  0.000000000E+00  0.000000000E+00  4.393448734E+02  4.393448734E+02  0.000000000E+00  0.00000E+00  9.000E+00
      21    -1     0     0   501   502  0.000000000E+00  0.000000000E+00 -4.726916872E+02  4.726916872E+02  0.000000000E+00  0.00000E+00  9.000E+00
      25     1     1     2     0     0 -6.663533949E+01 -1.252270777E+02 -2.401974509E+02  3.056826866E+02  1.250000000E+02  0.00000E+00  9.000E+00
      25     1     1     2     0     0  2.645665342E+01  1.244837492E+02 -1.586035134E+02  2.386969476E+02  1.250000000E+02  0.00000E+00  9.000E+00
       1     1     1     2   501     0  4.017868607E+01  7.433284471E-01  3.654541506E+02  3.676569264E+02  0.000000000E+00  0.00000E+00  9.000E+00
#rwgt            1           1   3.6274935888655276E-002           2      150834           0
</event>
<event>
      5   9999  3.79277E-02  7.70404E+00 -1.00000E+00  2.09834E-01
      21    -1     0     0   511   501  0.000000000E+00  0.000000000E+00  5.971283193E+01  5.971283193E+01  0.000000000E+00  0.00000E+00  9.000E+00
      21    -1     0     0   501   502  0.000000000E+00  0.000000000E+00 -7.452391951E+02  7.452391951E+02  0.000000000E+00  0.00000E+00  9.000E+00
      25     1     1     2     0     0  6.791967041E+01  1.041757092E+02 -5.297531177E+02  5.583269882E+02  1.250000000E+02  0.00000E+00  9.000E+00
      25     1     1     2     0     0 -6.853936228E+01 -1.118547887E+02 -1.557209668E+02  2.389208183E+02  1.250000000E+02  0.00000E+00  9.000E+00
      21     1     1     2   511   502  6.196918680E-01  7.679079494E+00 -5.227865065E-02  7.704220463E+00  1.409008262E-07  0.00000E+00  9.000E+00
#rwgt            1           1   3.5630745909988007E-002           2      150928           0
</event>
<event>
      5   9999  3.79277E-02  5.87136E+01 -1.00000E+00  1.35208E-01
      21    -1     0     0   502   501  0.000000000E+00  0.000000000E+00  2.877240751E+02  2.877240751E+02  0.000000000E+00  0.00000E+00  9.000E+00
      21    -1     0     0   501   512  0.000000000E+00  0.000000000E+00 -1.026621101E+03  1.026621101E+03  0.000000000E+00  0.00000E+00  9.000E+00
      25     1     1     2     0     0 -1.757561814E+02  1.549451272E+02  1.939834065E+02  3.288659146E+02  1.250000000E+02  0.00000E+00  9.000E+00
      25     1     1     2     0     0  2.006729872E+02 -1.017808173E+02 -7.189501793E+02  7.636382278E+02  1.250000000E+02  0.00000E+00  9.000E+00
      21     1     1     2   502   512 -2.491680574E+01 -5.316430997E+01 -2.139302536E+02  2.218410342E+02  2.697398305E-06  0.00000E+00  9.000E+00
#rwgt            1           1  0.13157709674033219                2      151243           0
</event>
<event>
      5   9999  3.79277E-02  4.03247E+01 -1.00000E+00  1.44623E-01
      21    -1     0     0   502   501  0.000000000E+00  0.000000000E+00  1.587470838E+03  1.587470838E+03  0.000000000E+00  0.00000E+00  9.000E+00
      21    -1     0     0   501   511  0.000000000E+00  0.000000000E+00 -3.041151653E+01  3.041151653E+01  0.000000000E+00  0.00000E+00  9.000E+00
      25     1     1     2     0     0 -3.407896276E+01 -1.420785711E+02  7.375131994E+02  7.621669210E+02  1.250000000E+02  0.00000E+00  9.000E+00
      25     1     1     2     0     0 -2.491970549E+00  1.590681292E+02  7.298131687E+02  7.573381945E+02  1.250000000E+02  0.00000E+00  9.000E+00
      21     1     1     2   502   511  3.657093331E+01 -1.698955801E+01  8.973295284E+01  9.837723858E+01  0.000000000E+00  0.00000E+00  9.000E+00
#rwgt            1           1   3.7545177384420592E-002           2      151537           0
</event>
<event>
      5   9999  3.79277E-02  1.29894E+01 -1.00000E+00  1.83482E-01
      21    -1     0     0   512   501  0.000000000E+00  0.000000000E+00  9.874890577E+02  9.874890577E+02  0.000000000E+00  0.00000E+00  9.000E+00
      21    -1     0     0   501   502  0.000000000E+00  0.000000000E+00 -7.150798104E+01  7.150798104E+01  0.000000000E+00  0.00000E+00  9.000E+00
      25     1     1     2     0     0  1.758491320E+02 -1.314970761E+02  3.934154316E+02  4.675629370E+02  1.250000000E+02  0.00000E+00  9.000E+00
      25     1     1     2     0     0 -1.746743208E+02  1.444332386E+02  4.627211096E+02  5.301960996E+02  1.250000000E+02  0.00000E+00  9.000E+00
      21     1     1     2   512   502 -1.174811269E+00 -1.293616243E+01  5.984453547E+01  6.123800214E+01  6.743495762E-07  0.00000E+00  9.000E+00
#rwgt            1           1   5.2870143994703432E-002           2      151861           0
</event>
<event>
      5   9999  3.79277E-02  6.57733E+01 -1.00000E+00  1.32605E-01
      21    -1     0     0   511   501  0.000000000E+00  0.000000000E+00  3.614451779E+02  3.614451779E+02  0.000000000E+00  0.00000E+00  9.000E+00
      21    -1     0     0   501   502  0.000000000E+00  0.000000000E+00 -2.069384318E+02  2.069384318E+02  0.000000000E+00  0.00000E+00  9.000E+00
      25     1     1     2     0     0  1.613603589E+02 -1.273892611E+02 -2.997583570E+00  2.406224736E+02  1.250000000E+02  0.00000E+00  9.000E+00
      25     1     1     2     0     0 -1.698217907E+02  6.216252796E+01  1.051268580E+02  2.436806861E+02  1.250000000E+02  0.00000E+00  9.000E+00
      21     1     1     2   511   502  8.461431849E+00  6.522673317E+01  5.237747157E+01  8.408045002E+01  1.507891493E-06  0.00000E+00  9.000E+00
#rwgt            1           1   3.9531966444608525E-002           2      152158           0
</event>
<event>
      5   9999  3.79277E-02  5.01480E+01 -1.00000E+00  1.39002E-01
      21    -1     0     0   502   501  0.000000000E+00  0.000000000E+00  1.188265958E+02  1.188265958E+02  0.000000000E+00  0.00000E+00  9.000E+00
      21    -1     0     0   501   512  0.000000000E+00  0.000000000E+00 -1.123606510E+03  1.123606510E+03  0.000000000E+00  0.00000E+00  9.000E+00
      25     1     1     2     0     0  4.212453668E+01  1.672721791E+02 -4.677508902E+02  5.139750517E+02  1.250000000E+02  0.00000E+00  9.000E+00
      25     1     1     2     0     0 -5.480121868E+01 -1.187528611E+02  8.033222857E+00  1.810937555E+02  1.250000000E+02  0.00000E+00  9.000E+00
      21     1     1     2   502   512  1.267668200E+01 -4.851931792E+01 -5.450622468E+02  5.473642985E+02  7.629394531E-06  0.00000E+00  9.000E+00
#rwgt            1           1   3.1786913421485694E-002           2      152291           0
</event>
<event>
      5   9999  3.79277E-02  5.05546E+01 -1.00000E+00  1.38803E-01
      21    -1     0     0   502   501  0.000000000E+00  0.000000000E+00  3.278604761E+01  3.278604761E+01  0.000000000E+00  0.00000E+00  9.000E+00
      21    -1     0     0   501   511  0.000000000E+00  0.000000000E+00 -1.703393592E+03  1.703393592E+03  0.000000000E+00  0.00000E+00  9.000E+00
      25     1     1     2     0     0 -1.118441997E+02 -3.017108180E+01 -4.433537425E+02  4.749810103E+02  1.250000000E+02  0.00000E+00  9.000E+00
      25     1     1     2     0     0  8.794870606E+01  7.472192314E+01 -4.313013638E+02  4.636423267E+02  1.250000000E+02  0.00000E+00  9.000E+00
      21     1     1     2   502   511  2.389549360E+01 -4.455084134E+01 -7.959524378E+02  7.975563023E+02  1.525878906E-05  0.00000E+00  9.000E+00
#rwgt            1           1   3.6531132028655357E-002           2      152490           0
</event>
<event>
      5   9999  3.79277E-02  3.63521E+01 -1.00000E+00  1.47464E-01
      21    -1     0     0   502   501  0.000000000E+00  0.000000000E+00  1.640281481E+03  1.640281481E+03  0.000000000E+00  0.00000E+00  9.000E+00
      21    -1     0     0   512   502  0.000000000E+00  0.000000000E+00 -3.221718501E+01  3.221718501E+01  0.000000000E+00  0.00000E+00  9.000E+00
      25     1     1     2     0     0 -2.047653867E+01 -1.363495921E+02  4.846807739E+02  5.191829663E+02  1.250000000E+02  0.00000E+00  9.000E+00
      25     1     1     2     0     0  5.679881619E+01  1.348781810E+02  1.078589831E+03  1.095627333E+03  1.250000000E+02  0.00000E+00  9.000E+00
      21     1     1     2   512   501 -3.632227752E+01  1.471411135E+00  4.479369103E+01  5.768836668E+01  4.768371582E-07  0.00000E+00  9.000E+00
#rwgt            1           1   4.1893750953092820E-002           2      152588           0
</event>
<event>
      5   9999  3.79277E-02  1.76698E+02 -1.00000E+00  1.13642E-01
      21    -1     0     0   502   501  0.000000000E+00  0.000000000E+00  1.707535669E+02  1.707535669E+02  0.000000000E+00  0.00000E+00  9.000E+00
      21    -1     0     0   501   511  0.000000000E+00  0.000000000E+00 -4.845277368E+02  4.845277368E+02  0.000000000E+00  0.00000E+00  9.000E+00
      25     1     1     2     0     0 -1.356845265E+02  1.187755093E+01 -1.215652068E+02  2.212565625E+02  1.250000000E+02  0.00000E+00  9.000E+00
      25     1     1     2     0     0 -5.689536706E+00  9.412105013E+01  2.003711522E+01  1.578531878E+02  1.250000000E+02  0.00000E+00  9.000E+00
      21     1     1     2   502   511  1.413740632E+02 -1.059986011E+02 -2.122460783E+02  2.761715534E+02  2.697398305E-06  0.00000E+00  9.000E+00
#rwgt            2          11   1.4181088276025359E-003           2      152826           0
</event>
<event>
      5   9999  3.79277E-02  3.43506E+01 -1.00000E+00  1.49064E-01
      21    -1     0     0   502   501  0.000000000E+00  0.000000000E+00  4.285439882E+01  4.285439882E+01  0.000000000E+00  0.00000E+00  9.000E+00
       1    -1     0     0   501     0  0.000000000E+00  0.000000000E+00 -1.575446461E+03  1.575446461E+03  0.000000000E+00  0.00000E+00  9.000E+00
      25     1     1     2     0     0  1.845195987E+02  8.613999598E+01 -8.936376183E+02  9.250301477E+02  1.250000000E+02  0.00000E+00  9.000E+00
      25     1     1     2     0     0 -1.608607171E+02 -6.123578169E+01 -4.114428353E+02  4.631805242E+02  1.250000000E+02  0.00000E+00  9.000E+00
       1     1     1     2   502     0 -2.365888154E+01 -2.490421429E+01 -2.275116087E+02  2.300901881E+02  3.814697266E-06  0.00000E+00  9.000E+00
#rwgt            1           1   4.5852849434702296E-002           2      152981           0
</event>
<event>
      5   9999  3.79277E-02  3.00790E+01 -1.00000E+00  1.52961E-01
      21    -1     0     0   502   501  0.000000000E+00  0.000000000E+00  8.243043071E+02  8.243043071E+02  0.000000000E+00  0.00000E+00  9.000E+00
      21    -1     0     0   511   502  0.000000000E+00  0.000000000E+00 -1.485116783E+02  1.485116783E+02  0.000000000E+00  0.00000E+00  9.000E+00
      25     1     1     2     0     0  1.466149252E+02 -2.495351322E+02  5.288494376E+02  6.156869709E+02  1.250000000E+02  0.00000E+00  9.000E+00
      25     1     1     2     0     0 -1.307209281E+02  2.239984069E+02  1.536111635E+02  3.263198384E+02  1.250000000E+02  0.00000E+00  9.000E+00
      21     1     1     2   511   501 -1.589399711E+01  2.553672524E+01 -6.667972332E+00  3.080917616E+01  2.665600750E-07  0.00000E+00  9.000E+00
#rwgt            1           1   4.2142214250238827E-002           2      153157           0
</event>
<event>
      5   9999  3.79277E-02  1.51077E+01 -1.00000E+00  1.77091E-01
      21    -1     0     0   502   501  0.000000000E+00  0.000000000E+00  6.877283261E+02  6.877283261E+02  0.000000000E+00  0.00000E+00  9.000E+00
      21    -1     0     0   501   512  0.000000000E+00  0.000000000E+00 -1.181240821E+02  1.181240821E+02  0.000000000E+00  0.00000E+00  9.000E+00
      25     1     1     2     0     0  1.399204586E+02  8.236586941E+01  2.231237461E+01  2.061182021E+02  1.250000000E+02  0.00000E+00  9.000E+00
      25     1     1     2     0     0 -1.353069940E+02 -9.675191394E+01  5.463123246E+02  5.845947926E+02  1.250000000E+02  0.00000E+00  9.000E+00
      21     1     1     2   502   512 -4.613464576E+00  1.438604453E+01  9.795447900E-01  1.513941349E+01  3.991453420E-07  0.00000E+00  9.000E+00
#rwgt            1           1   4.3591832228300091E-002           2      153350           0
</event>
<event>
      5   9999  3.79277E-02  4.49920E+01 -1.00000E+00  1.41742E-01
      21    -1     0     0   502   501  0.000000000E+00  0.000000000E+00  3.769732728E+02  3.769732728E+02  0.000000000E+00  0.00000E+00  9.000E+00
      21    -1     0     0   501   511  0.000000000E+00  0.000000000E+00 -4.039133659E+02  4.039133659E+02  0.000000000E+00  0.00000E+00  9.000E+00
      25     1     1     2     0     0  6.320609666E+01  8.593145637E+01  5.857539377E+01  1.744571655E+02  1.250000000E+02  0.00000E+00  9.000E+00
      25     1     1     2     0     0 -4.880529563E+01 -1.285565181E+02  2.254836202E+02  2.921927415E+02  1.250000000E+02  0.00000E+00  9.000E+00
      21     1     1     2   502   511 -1.440080103E+01  4.262506176E+01 -3.109991070E+02  3.142367316E+02  0.000000000E+00  0.00000E+00  9.000E+00
#rwgt            1           1   1.5761798710048153E-002           2      153589           0
</event>
<event>
      5   9999  3.79277E-02  5.41176E+01 -1.00000E+00  1.37143E-01
      21    -1     0     0   502   501  0.000000000E+00  0.000000000E+00  3.417576443E+02  3.417576443E+02  0.000000000E+00  0.00000E+00  9.000E+00
      -1    -1     0     0     0   502  0.000000000E+00  0.000000000E+00 -1.335907750E+02  1.335907750E+02  0.000000000E+00  0.00000E+00  9.000E+00
      25     1     1     2     0     0 -4.847334951E+01 -7.620531442E+01 -1.958591456E+01  1.554526410E+02  1.250000000E+02  0.00000E+00  9.000E+00
      25     1     1     2     0     0  1.486244672E+01  3.379047179E+01  2.314784924E+02  2.656501097E+02  1.250000000E+02  0.00000E+00  9.000E+00
      -1     1     1     2     0   501  3.361090279E+01  4.241484263E+01 -3.725708577E+00  5.424566864E+01  5.623090942E-07  0.00000E+00  9.000E+00
#rwgt            1           1   4.8579782008802759E-002           2      153671           0
</event>
<event>
      5   9999  3.79277E-02  2.08093E+02 -1.00000E+00  1.11025E-01
      -5    -1     0     0     0   501  0.000000000E+00  0.000000000E+00  1.152186326E+03  1.152186326E+03  0.000000000E+00  0.00000E+00  9.000E+00
      21    -1     0     0   501   502  0.000000000E+00  0.000000000E+00 -9.617172847E+01  9.617172847E+01  0.000000000E+00  0.00000E+00  9.000E+00
      25     1     1     2     0     0 -1.860647042E+02  1.171847133E+02  3.314324602E+02  4.169230227E+02  1.250000000E+02  0.00000E+00  9.000E+00
      25     1     1     2     0     0 -2.199335601E+01 -1.209760861E+02  1.939485989E+02  2.614574155E+02  1.250000000E+02  0.00000E+00  9.000E+00
      -5     1     1     2     0   502  2.080580602E+02  3.791372753E+00  5.306335383E+02  5.699776162E+02  0.000000000E+00  0.00000E+00  9.000E+00
#rwgt            2           1   4.8690208414005407E-006           2      153867           0
</event>
<event>
      5   9999  3.79277E-02  2.17802E+01 -1.00000E+00  1.63370E-01
      21    -1     0     0   502   501  0.000000000E+00  0.000000000E+00  4.452110303E+02  4.452110303E+02  0.000000000E+00  0.00000E+00  9.000E+00
      21    -1     0     0   501   511  0.000000000E+00  0.000000000E+00 -1.506244948E+02  1.506244948E+02  0.000000000E+00  0.00000E+00  9.000E+00
      25     1     1     2     0     0  1.884272328E+02  3.708132360E+01  2.276854750E+02  3.230255751E+02  1.250000000E+02  0.00000E+00  9.000E+00
      25     1     1     2     0     0 -1.887219451E+02 -1.530310520E+01  8.717630558E+01  2.430532161E+02  1.250000000E+02  0.00000E+00  9.000E+00
      21     1     1     2   502   511  2.947123089E-01 -2.177821839E+01 -2.027524508E+01  2.975673394E+01  4.129530925E-07  0.00000E+00  9.000E+00
#rwgt            1           1   3.3742214232764717E-002           2      153901           0
</event>
<event>
      5   9999  3.79277E-02  4.37311E+01 -1.00000E+00  1.42478E-01
      21    -1     0     0   502   512  0.000000000E+00  0.000000000E+00  2.617306319E+02  2.617306319E+02  0.000000000E+00  0.00000E+00  9.000E+00
      21    -1     0     0   501   502  0.000000000E+00  0.000000000E+00 -2.014300670E+03  2.014300670E+03  0.000000000E+00  0.00000E+00  9.000E+00
      25     1     1     2     0     0  1.180563644E+02 -6.308113169E+01 -1.209505442E+03  1.223292667E+03  1.250000000E+02  0.00000E+00  9.000E+00
      25     1     1     2     0     0 -1.328890551E+02  2.194236799E+01 -7.853384035E+02  8.065496739E+02  1.250000000E+02  0.00000E+00  9.000E+00
      21     1     1     2   501   512  1.483269069E+01  4.113876369E+01  2.422738077E+02  2.461889609E+02  4.672030912E-06  0.00000E+00  9.000E+00
#rwgt            1           1  0.26856438204600419                2      154052           0
</event>
<event>
      5   9999  3.79277E-02  9.60320E+01 -1.00000E+00  1.24624E-01
      21    -1     0     0   502   501  0.000000000E+00  0.000000000E+00  3.972977029E+02  3.972977029E+02  0.000000000E+00  0.00000E+00  9.000E+00
      21    -1     0     0   511   502  0.000000000E+00  0.000000000E+00 -3.893298366E+02  3.893298366E+02  0.000000000E+00  0.00000E+00  9.000E+00
      25     1     1     2     0     0  1.728866940E+02  2.423724827E+02  1.739485555E+02  3.667660416E+02  1.250000000E+02  0.00000E+00  9.000E+00
      25     1     1     2     0     0 -7.849216171E+01 -2.247141279E+02 -5.741198146E+01  2.749156131E+02  1.250000000E+02  0.00000E+00  9.000E+00
      21     1     1     2   511   501 -9.439453233E+01 -1.765835478E+01 -1.085687078E+02  1.449458848E+02  0.000000000E+00  0.00000E+00  9.000E+00
#rwgt            1           1   3.5400909679813027E-002           2      154130           0
</event>
<event>
      5   9999  3.79277E-02  4.34814E+01 -1.00000E+00  1.42628E-01
      21    -1     0     0   502   512  0.000000000E+00  0.000000000E+00  5.221440095E+02  5.221440095E+02  0.000000000E+00  0.00000E+00  9.000E+00
      21    -1     0     0   501   502  0.000000000E+00  0.000000000E+00 -4.690955456E+02  4.690955456E+02  0.000000000E+00  0.00000E+00  9.000E+00
      25     1     1     2     0     0  1.796509071E+02  1.748088964E+02  7.129344812E+01  2.890334832E+02  1.250000000E+02  0.00000E+00  9.000E+00
      25     1     1     2     0     0 -1.373691944E+02 -1.849522474E+02 -3.107243459E+02  4.065122981E+02  1.250000000E+02  0.00000E+00  9.000E+00
      21     1     1     2   501   512 -4.228171274E+01  1.014335107E+01  2.924793617E+02  2.956937737E+02  0.000000000E+00  0.00000E+00  9.000E+00
#rwgt            1           1   3.0066389668606964E-002           2      154292           0
</event>
<event>
      5   9999 -3.79277E-02  4.91956E+01 -1.00000E+00  1.39479E-01
      21    -1     0     0   502   511  0.000000000E+00  0.000000000E+00  2.978497433E+02  2.978497433E+02  0.000000000E+00  0.00000E+00  9.000E+00
      21    -1     0     0   501   502  0.000000000E+00  0.000000000E+00 -1.997374359E+02  1.997374359E+02  0.000000000E+00  0.00000E+00  9.000E+00
      25     1     1     2     0     0  1.830413320E+01 -9.550756254E+01  1.150622733E+01  1.587895748E+02  1.250000000E+02  0.00000E+00  9.000E+00
      25     1     1     2     0     0 -2.755749472E+01  1.438250519E+02 -4.549111937E+01  1.978370618E+02  1.250000000E+02  0.00000E+00  9.000E+00
      21     1     1     2   501   511  9.253361524E+00 -4.831748939E+01  1.320971994E+02  1.409605426E+02  1.907348633E-06  0.00000E+00  9.000E+00
#rwgt            1           1  -2.7550224241384421E-002           2      154402           0
</event>
<event>
      5   9999  3.79277E-02  7.76077E+01 -1.00000E+00  1.28991E-01
      21    -1     0     0   512   501  0.000000000E+00  0.000000000E+00  7.989011542E+02  7.989011542E+02  0.000000000E+00  0.00000E+00  9.000E+00
      21    -1     0     0   501   502  0.000000000E+00  0.000000000E+00 -1.376507881E+02  1.376507881E+02  0.000000000E+00  0.00000E+00  9.000E+00
      25     1     1     2     0     0  1.354042637E+02  5.042079338E+00  5.104708525E+02  5.427386373E+02  1.250000000E+02  0.00000E+00  9.000E+00
      25     1     1     2     0     0 -1.946601323E+02  4.507471733E+01  1.345065458E+01  2.360724833E+02  1.250000000E+02  0.00000E+00  9.000E+00
      21     1     1     2   512   502  5.925586865E+01 -5.011679667E+01  1.373288591E+02  1.577408216E+02  2.697398305E-06  0.00000E+00  9.000E+00
#rwgt            1           1  0.29472458055231610                2      154634           0
</event>
<event>
      5   9999  3.79277E-02  1.51979E+02 -1.00000E+00  1.16168E-01
      21    -1     0     0   511   501  0.000000000E+00  0.000000000E+00  6.454278387E+02  6.454278387E+02  0.000000000E+00  0.00000E+00  9.000E+00
      21    -1     0     0   501   502  0.000000000E+00  0.000000000E+00 -1.840138352E+02  1.840138352E+02  0.000000000E+00  0.00000E+00  9.000E+00
      25     1     1     2     0     0  4.827858968E+01  1.908492298E+02 -4.165212146E+01  2.368842543E+02  1.250000000E+02  0.00000E+00  9.000E+00
      25     1     1     2     0     0 -4.428739456E+01 -3.892244518E+01  3.524882219E+02  3.786149451E+02  1.250000000E+02  0.00000E+00  9.000E+00
      21     1     1     2   511   502 -3.991195122E+00 -1.519267846E+02  1.505779030E+02  2.139424745E+02  2.697398305E-06  0.00000E+00  9.000E+00
#rwgt            1           1   4.0140411898896625E-002           2      154770           0
</event>
<event>
      5   9999  3.79277E-02  8.37784E+01 -1.00000E+00  1.27387E-01
      -3    -1     0     0     0   501  0.000000000E+00  0.000000000E+00  1.638119577E+02  1.638119577E+02  0.000000000E+00  0.00000E+00  9.000E+00
      21    -1     0     0   501   502  0.000000000E+00  0.000000000E+00 -4.760749535E+02  4.760749535E+02  0.000000000E+00  0.00000E+00  9.000E+00
      25     1     1     2     0     0  6.438613294E+01 -8.091534655E+01 -2.255798839E+02  2.778563504E+02  1.250000000E+02  0.00000E+00  9.000E+00
      25     1     1     2     0     0 -1.313758991E+02  1.312262211E+02 -1.387828981E+02  2.633735764E+02  1.250000000E+02  0.00000E+00  9.000E+00
      -3     1     1     2     0   502  6.698976612E+01 -5.031087450E+01  5.209978615E+01  9.865698442E+01  6.743495762E-07  0.00000E+00  9.000E+00
#rwgt            1           1   4.9569540283124672E-002           2      154924           0
</event>
<event>
      5   9999  3.79277E-02  7.08488E+01 -1.00000E+00  1.30956E-01
      21    -1     0     0   502   501  0.000000000E+00  0.000000000E+00  1.223674401E+02  1.223674401E+02  0.000000000E+00  0.00000E+00  9.000E+00
      21    -1     0     0   501   511  0.000000000E+00  0.000000000E+00 -2.433986753E+03  2.433986753E+03  0.000000000E+00  0.00000E+00  9.000E+00
      25     1     1     2     0     0 -4.245339788E+02 -1.553225813E+02 -1.027474507E+03  1.129461405E+03  1.250000000E+02  0.00000E+00  9.000E+00
      25     1     1     2     0     0  4.843714633E+02  1.932571618E+02 -1.007674832E+03  1.141489208E+03  1.250000000E+02  0.00000E+00  9.000E+00
      21     1     1     2   502   511 -5.983748447E+01 -3.793458059E+01 -2.764699735E+02  2.854035795E+02  0.000000000E+00  0.00000E+00  9.000E+00
#rwgt            1           1   9.1425393575837621E-002           2      155097           0
</event>
<event>
      5   9999  3.79277E-02  3.42180E+01 -1.00000E+00  1.49175E-01
      21    -1     0     0   502   512  0.000000000E+00  0.000000000E+00  7.742035091E+01  7.742035091E+01  0.000000000E+00  0.00000E+00  9.000E+00
      21    -1     0     0   501   502  0.000000000E+00  0.000000000E+00 -8.487186444E+02  8.487186444E+02  0.000000000E+00  0.00000E+00  9.000E+00
      25     1     1     2     0     0  1.163314516E+02  3.463287008E+00 -6.217545820E+02  6.447858259E+02  1.250000000E+02  0.00000E+00  9.000E+00
      25     1     1     2     0     0 -8.513809208E+01 -1.752897917E+01 -1.798518579E+02  2.356426333E+02  1.250000000E+02  0.00000E+00  9.000E+00
      21     1     1     2   501   512 -3.119335956E+01  1.406569216E+01  3.030814641E+01  4.571053615E+01  1.305872339E-06  0.00000E+00  9.000E+00
#rwgt            1           1   4.3866836343448110E-002           2      155287           0
</event>
<event>
      5   9999  3.79277E-02  5.16557E+01 -1.00000E+00  1.38273E-01
      21    -1     0     0   502   501  0.000000000E+00  0.000000000E+00  9.656390171E+01  9.656390171E+01  0.000000000E+00  0.00000E+00  9.000E+00
       2    -1     0     0   501     0  0.000000000E+00  0.000000000E+00 -2.265784140E+03  2.265784140E+03  0.000000000E+00  0.00000E+00  9.000E+00
      25     1     1     2     0     0 -5.384055498E+01 -9.378048302E+01 -2.022948021E+02  2.612312602E+02  1.250000000E+02  0.00000E+00  9.000E+00
      25     1     1     2     0     0  8.957300102E+01  5.647768804E+01 -3.376538464E+01  1.672667120E+02  1.250000000E+02  0.00000E+00  9.000E+00
       2     1     1     2   502     0 -3.573244604E+01  3.730279498E+01 -1.933160051E+03  1.933850069E+03  2.157918644E-05  0.00000E+00  9.000E+00
#rwgt            1           1   4.6795005436572348E-002           2      155478           0
</event>
<event>
      5   9999  3.79277E-02  1.82479E+01 -1.00000E+00  1.69723E-01
      21    -1     0     0   502   511  0.000000000E+00  0.000000000E+00  1.153055360E+02  1.153055360E+02  0.000000000E+00  0.00000E+00  9.000E+00
      21    -1     0     0   501   502  0.000000000E+00  0.000000000E+00 -5.977029558E+02  5.977029558E+02  0.000000000E+00  0.00000E+00  9.000E+00
      25     1     1     2     0     0  1.927170488E+02  2.653122404E+01 -1.502879590E+02  2.757811403E+02  1.250000000E+02  0.00000E+00  9.000E+00
      25     1     1     2     0     0 -2.000489682E+02 -9.821046485E+00 -3.426808593E+02  4.161384553E+02  1.250000000E+02  0.00000E+00  9.000E+00
      21     1     1     2   501   511  7.331919384E+00 -1.671017755E+01  1.057139849E+01  2.108889617E+01  5.057621821E-07  0.00000E+00  9.000E+00
#rwgt            1           1   4.0404873296913696E-002           2      155630           0
</event>
<event>
      5   9999  3.79277E-02  2.57369E+01 -1.00000E+00  1.57812E-01
      21    -1     0     0   502   501  0.000000000E+00  0.000000000E+00  2.319395121E+02  2.319395121E+02  0.000000000E+00  0.00000E+00  9.000E+00
       3    -1     0     0   501     0  0.000000000E+00  0.000000000E+00 -3.473967833E+02  3.473967833E+02  0.000000000E+00  0.00000E+00  9.000E+00
      25     1     1     2     0     0 -4.423170737E+01 -5.687210648E+00 -1.570280487E+02  2.056005748E+02  1.250000000E+02  0.00000E+00  9.000E+00
      25     1     1     2     0     0  4.778568129E+01  3.117755993E+01  1.836389514E+02  2.293551309E+02  1.250000000E+02  0.00000E+00  9.000E+00
       3     1     1     2   502     0 -3.553973912E+00 -2.549034928E+01 -1.420681739E+02  1.443805897E+02  1.907348633E-06  0.00000E+00  9.000E+00
#rwgt            1           1   3.2302834979945856E-002           2      155793           0
</event>
<event>
      5   9999  3.79277E-02  6.01754E+01 -1.00000E+00  1.34636E-01
      21    -1     0     0   502   501  0.000000000E+00  0.000000000E+00  1.976201637E+02  1.976201637E+02  0.000000000E+00  0.00000E+00  9.000E+00
      21    -1     0     0   511   502  0.000000000E+00  0.000000000E+00 -3.253419124E+02  3.253419124E+02  0.000000000E+00  0.00000E+00  9.000E+00
      25     1     1     2     0     0 -2.820713439E+01  6.109055299E+01  1.378696748E+02  1.978907408E+02  1.250000000E+02  0.00000E+00  9.000E+00
      25     1     1     2     0     0 -1.461025003E+01 -1.880877078E+01 -1.820835959E+02  2.221410929E+02  1.250000000E+02  0.00000E+00  9.000E+00
      21     1     1     2   511   501  4.281738442E+01 -4.228178221E+01 -8.350782752E+01  1.029302423E+02  9.536743164E-07  0.00000E+00  9.000E+00
#rwgt            1           1   3.6068827290497485E-002           2      155899           0
</event>
<event>
      5   9999  3.79277E-02  5.03604E+01 -1.00000E+00  1.38898E-01
      21    -1     0     0   512   501  0.000000000E+00  0.000000000E+00  4.114357806E+02  4.114357806E+02  0.000000000E+00  0.00000E+00  9.000E+00
      21    -1     0     0   501   502  0.000000000E+00  0.000000000E+00 -2.591942957E+02  2.591942957E+02  0.000000000E+00  0.00000E+00  9.000E+00
      25     1     1     2     0     0 -1.342207998E+01 -1.485899729E+02 -1.743299880E+02  2.612949999E+02  1.250000000E+02  0.00000E+00  9.000E+00
      25     1     1     2     0     0  5.492161690E+01  1.200600138E+02  3.038387545E+02  3.540816003E+02  1.250000000E+02  0.00000E+00  9.000E+00
      21     1     1     2   512   502 -4.149953692E+01  2.852995901E+01  2.273271840E+01  5.525347601E+01  4.768371582E-07  0.00000E+00  9.000E+00
#rwgt            1           1   5.0253869726407926E-002           2      156111           0
</event>
<event>
      5   9999  3.79277E-02  6.01497E+01 -1.00000E+00  1.34646E-01
      21    -1     0     0   502   501  0.000000000E+00  0.000000000E+00  1.561467134E+03  1.561467134E+03  0.000000000E+00  0.00000E+00  9.000E+00
      21    -1     0     0   501   511  0.000000000E+00  0.000000000E+00 -3.100934670E+01  3.100934670E+01  0.000000000E+00  0.00000E+00  9.000E+00
      25     1     1     2     0     0  2.501714638E+01  1.488751976E+02  5.785773108E+02  6.108734621E+02  1.250000000E+02  0.00000E+00  9.000E+00
      25     1     1     2     0     0 -4.493864407E+01 -9.212029910E+01  8.310903984E+02  8.466651531E+02  1.250000000E+02  0.00000E+00  9.000E+00
      21     1     1     2   502   511  1.992149769E+01 -5.675489848E+01  1.207900778E+02  1.349378652E+02  1.348699152E-06  0.00000E+00  9.000E+00
#rwgt            1           1   4.4423613372159332E-002           2      156219           0
</event>
<event>
      5   9999  3.79277E-02  6.05100E+01 -1.00000E+00  1.34507E-01
      21    -1     0     0   502   501  0.000000000E+00  0.000000000E+00  5.205138350E+02  5.205138350E+02  0.000000000E+00  0.00000E+00  9.000E+00
      21    -1     0     0   501   512  0.000000000E+00  0.000000000E+00 -1.570390694E+02  1.570390694E+02  0.000000000E+00  0.00000E+00  9.000E+00
      25     1     1     2     0     0 -4.673667640E+01  7.757554606E+01 -3.918710220E+01  1.592573742E+02  1.250000000E+02  0.00000E+00  9.000E+00
      25     1     1     2     0     0  7.045129862E+01 -1.332448855E+02  4.128508481E+02  4.569337018E+02  1.250000000E+02  0.00000E+00  9.000E+00
      21     1     1     2   502   512 -2.371462222E+01  5.566933948E+01 -1.018898029E+01  6.136182840E+01  1.059555342E-06  0.00000E+00  9.000E+00
#rwgt            1           1   4.8014516847786577E-002           2      156342           0
</event>
<event>
      5   9999  3.79277E-02  3.78660E+01 -1.00000E+00  1.46332E-01
      21    -1     0     0   502   511  0.000000000E+00  0.000000000E+00  2.402517845E+02  2.402517845E+02  0.000000000E+00  0.00000E+00  9.000E+00
      21    -1     0     0   501   502  0.000000000E+00  0.000000000E+00 -5.178457247E+02  5.178457247E+02  0.000000000E+00  0.00000E+00  9.000E+00
      25     1     1     2     0     0 -9.410820316E+01  1.020457662E+02 -1.795273046E+01  1.876619110E+02  1.250000000E+02  0.00000E+00  9.000E+00
      25     1     1     2     0     0  8.218967147E+01 -6.610435486E+01 -3.962494311E+02  4.286764975E+02  1.250000000E+02  0.00000E+00  9.000E+00
      21     1     1     2   501   511  1.191853169E+01 -3.594141138E+01  1.366082215E+02  1.417591007E+02  0.000000000E+00  0.00000E+00  9.000E+00
#rwgt            1           1   2.8631406118162492E-002           2      156471           0
</event>
<event>
      5   9999  3.79277E-02  4.43737E+01 -1.00000E+00  1.42100E-01
      21    -1     0     0   502   501  0.000000000E+00  0.000000000E+00  1.546526605E+02  1.546526605E+02  0.000000000E+00  0.00000E+00  9.000E+00
      21    -1     0     0   512   502  0.000000000E+00  0.000000000E+00 -2.884711908E+02  2.884711908E+02  0.000000000E+00  0.00000E+00  9.000E+00
      25     1     1     2     0     0  2.528833384E+01  2.975283806E+01 -1.737662066E+02  2.175877427E+02  1.250000000E+02  0.00000E+00  9.000E+00
      25     1     1     2     0     0 -6.929710077E+01 -2.407388603E+01  8.018211666E+01  1.656375923E+02  1.250000000E+02  0.00000E+00  9.000E+00
      21     1     1     2   512   501  4.400876694E+01 -5.678952030E+00 -4.023444039E+01  5.989851632E+01  1.261592536E-06  0.00000E+00  9.000E+00
#rwgt            1           1   3.1110179469752253E-002           2      156650           0
</event>
<event>
      5   9999  3.79277E-02  9.82565E+00 -1.00000E+00  1.96644E-01
      21    -1     0     0   511   501  0.000000000E+00  0.000000000E+00  4.614034249E+01  4.614034249E+01  0.000000000E+00  0.00000E+00  9.000E+00
      21    -1     0     0   501   502  0.000000000E+00  0.000000000E+00 -9.175880054E+02  9.175880054E+02  0.000000000E+00  0.00000E+00  9.000E+00
      25     1     1     2     0     0  1.226461280E+02  5.333183660E+01 -2.606214811E+02  3.184884831E+02  1.250000000E+02  0.00000E+00  9.000E+00
      25     1     1     2     0     0 -1.128212839E+02 -5.320568082E+01 -6.103715022E+02  6.354036963E+02  1.250000000E+02  0.00000E+00  9.000E+00
      21     1     1     2   511   502 -9.824844083E+00 -1.261557738E-01 -4.546796836E-01  9.836168469E+00  3.071049429E-07  0.00000E+00  9.000E+00
#rwgt            1           1   5.2348493518623612E-002           2      156770           0
</event>
<event>
      5   9999 -3.79277E-02  5.02930E+01 -1.00000E+00  1.38931E-01
      21    -1     0     0   502   501  0.000000000E+00  0.000000000E+00  5.916031173E+02  5.916031173E+02  0.000000000E+00  0.00000E+00  9.000E+00
      21    -1     0     0   501   512  0.000000000E+00  0.000000000E+00 -2.797468121E+02  2.797468121E+02  0.000000000E+00  0.00000E+00  9.000E+00
      25     1     1     2     0     0  3.704287051E+02 -6.285915542E+01  1.829883813E+02  4.362091777E+02  1.250000000E+02  0.00000E+00  9.000E+00
      25     1     1     2     0     0 -3.365636859E+02  2.567651587E+01  1.351012267E+02  3.844629236E+02  1.250000000E+02  0.00000E+00  9.000E+00
      21     1     1     2   502   512 -3.386501919E+01  3.718263955E+01 -6.233302785E+00  5.067782821E+01  8.259061849E-07  0.00000E+00  9.000E+00
#rwgt            1           1  -8.4674157268153791E-002           2      157025           0
</event>
<event>
      5   9999  3.79277E-02  1.70264E+01 -1.00000E+00  1.72351E-01
      21    -1     0     0   511   501  0.000000000E+00  0.000000000E+00  9.097606599E+02  9.097606599E+02  0.000000000E+00  0.00000E+00  9.000E+00
      21    -1     0     0   501   502  0.000000000E+00  0.000000000E+00 -1.544395723E+02  1.544395723E+02  0.000000000E+00  0.00000E+00  9.000E+00
      25     1     1     2     0     0 -9.503283939E+01  1.056764698E+02  5.584206276E+01  1.973375099E+02  1.250000000E+02  0.00000E+00  9.000E+00
      25     1     1     2     0     0  9.837804890E+01 -8.898190793E+01  1.577609855E+01  1.829478224E+02  1.250000000E+02  0.00000E+00  9.000E+00
      21     1     1     2   511   502 -3.345209517E+00 -1.669456189E+01  6.837029263E+02  6.839148998E+02  7.629394531E-06  0.00000E+00  9.000E+00
#rwgt            1           1  0.11645319255117542                2      157254           0
</event>
<event>
      5   9999  3.79277E-02  2.46050E+01 -1.00000E+00  1.59271E-01
      21    -1     0     0   502   501  0.000000000E+00  0.000000000E+00  4.938770069E+01  4.938770069E+01  0.000000000E+00  0.00000E+00  9.000E+00
      21    -1     0     0   501   512  0.000000000E+00  0.000000000E+00 -1.401630928E+03  1.401630928E+03  0.000000000E+00  0.00000E+00  9.000E+00
      25     1     1     2     0     0 -1.361545295E+02  2.395263206E+01 -4.257947169E+02  4.647988010E+02  1.250000000E+02  0.00000E+00  9.000E+00
      25     1     1     2     0     0  1.115601580E+02 -2.323112520E+01 -2.113642990E+02  2.707124322E+02  1.250000000E+02  0.00000E+00  9.000E+00
      21     1     1     2   502   512  2.459437151E+01 -7.215068652E-01 -7.150842117E+02  7.155073958E+02  1.321449896E-05  0.00000E+00  9.000E+00
#rwgt            1           1   3.5939548580664650E-002           2      157466           0
</event>
<event>
      5   9999  3.79277E-02  6.83564E+01 -1.00000E+00  1.31745E-01
       1    -1     0     0   502     0  0.000000000E+00  0.000000000E+00  1.400910955E+03  1.400910955E+03  0.000000000E+00  0.00000E+00  9.000E+00
      21    -1     0     0   501   502  0.000000000E+00  0.000000000E+00 -5.662556891E+01  5.662556891E+01  0.000000000E+00  0.00000E+00  9.000E+00
      25     1     1     2     0     0 -1.679821648E+02  1.060513123E+02  7.917724982E+02  8.258290243E+02  1.250000000E+02  0.00000E+00  9.000E+00
      25     1     1     2     0     0  1.004799193E+02 -9.527902179E+01  2.035033458E+02  2.760668722E+02  1.250000000E+02  0.00000E+00  9.000E+00
       1     1     1     2   501     0  6.750224547E+01 -1.077229054E+01  3.490095420E+02  3.556406273E+02  5.394796609E-06  0.00000E+00  9.000E+00
#rwgt            1           1   4.9222052009418725E-002           2      157698           0
</event>
<event>
      5   9999  3.79277E-02  5.48503E+01 -1.00000E+00  1.36820E-01
      21    -1     0     0   502   501  0.000000000E+00  0.000000000E+00  1.760135699E+02  1.760135699E+02  0.000000000E+00  0.00000E+00  9.000E+00
      21    -1     0     0   511   502  0.000000000E+00  0.000000000E+00 -3.878376231E+02  3.878376231E+02  0.000000000E+00  0.00000E+00  9.000E+00
      25     1     1     2     0     0  1.192098362E+02  1.403796675E+02 -2.186856635E+02  3.120350229E+02  1.250000000E+02  0.00000E+00  9.000E+00
      25     1     1     2     0     0 -7.537020250E+01 -1.074153801E+02  4.283475967E+01  1.862217709E+02  1.250000000E+02  0.00000E+00  9.000E+00
      21     1     1     2   511   501 -4.383963370E+01 -3.296428741E+01 -3.597314932E+01  6.559439914E+01  6.743495762E-07  0.00000E+00  9.000E+00
#rwgt            1           1   7.5614996442841850E-002           2      157872           0
</event>
<event>
      5   9999  3.79277E-02  2.49484E+01 -1.00000E+00  1.58818E-01
      21    -1     0     0   502   501  0.000000000E+00  0.000000000E+00  1.060572264E+03  1.060572264E+03  0.000000000E+00  0.00000E+00  9.000E+00
      21    -1     0     0   501   512  0.000000000E+00  0.000000000E+00 -1.489731473E+02  1.489731473E+02  0.000000000E+00  0.00000E+00  9.000E+00
      25     1     1     2     0     0 -6.682800040E+01 -6.272403933E+01  1.849265686E+02  2.412946798E+02  1.250000000E+02  0.00000E+00  9.000E+00
      25     1     1     2     0     0  6.796883963E+01  8.764636333E+01  8.378271486E+02  8.543307200E+02  1.250000000E+02  0.00000E+00  9.000E+00
      21     1     1     2   502   512 -1.140839229E+00 -2.492232400E+01 -1.111546006E+02  1.139200113E+02  3.814697266E-06  0.00000E+00  9.000E+00
#rwgt            1           1   2.6842972801212249E-002           2      157977           0
</event>
<event>
      5   9999  3.79277E-02  8.73974E+01 -1.00000E+00  1.26518E-01
      21    -1     0     0   511   501  0.000000000E+00  0.000000000E+00  1.154035412E+03  1.154035412E+03  0.000000000E+00  0.00000E+00  9.000E+00
      21    -1     0     0   501   502  0.000000000E+00  0.000000000E+00 -1.950991659E+02  1.950991659E+02  0.000000000E+00  0.00000E+00  9.000E+00
      25     1     1     2     0     0 -1.618349574E+02  8.711236830E+01  5.207523603E+02  5.662041495E+02  1.250000000E+02  0.00000E+00  9.000E+00
      25     1     1     2     0     0  7.623101751E+01 -6.949804230E+01 -1.301855342E+02  2.078807813E+02  1.250000000E+02  0.00000E+00  9.000E+00
      21     1     1     2   511   502  8.560393985E+01 -1.761432600E+01  5.683694204E+02  5.750496475E+02  0.000000000E+00  0.00000E+00  9.000E+00
#rwgt            1           1   4.7882475986574552E-002           2      158133           0
</event>
<event>
      5   9999  3.79277E-02  2.95808E+01 -1.00000E+00  1.53465E-01
      21    -1     0     0   502   501  0.000000000E+00  0.000000000E+00  8.780933973E+01  8.780933973E+01  0.000000000E+00  0.00000E+00  9.000E+00
      21    -1     0     0   512   502  0.000000000E+00  0.000000000E+00 -5.727057750E+02  5.727057750E+02  0.000000000E+00  0.00000E+00  9.000E+00
      25     1     1     2     0     0  6.993994806E+01  1.463730861E+02 -1.267867662E+02  2.408662715E+02  1.250000000E+02  0.00000E+00  9.000E+00
      25     1     1     2     0     0 -7.826734010E+01 -1.179885881E+02 -3.014076681E+02  3.556946244E+02  1.250000000E+02  0.00000E+00  9.000E+00
      21     1     1     2   512   501  8.327392037E+00 -2.838449800E+01 -5.670200100E+01  6.395421880E+01  6.743495762E-07  0.00000E+00  9.000E+00
#rwgt            1           1   3.7479767593913041E-002           2      158325           0
</event>
<event>
      5   9999  3.79277E-02  1.40605E+01 -1.00000E+00  1.80071E-01
      21    -1     0     0   502   511  0.000000000E+00  0.000000000E+00  8.784171740E+01  8.784171740E+01  0.000000000E+00  0.00000E+00  9.000E+00
      21    -1     0     0   501   502  0.000000000E+00  0.000000000E+00 -2.452173560E+02  2.452173560E+02  0.000000000E+00  0.00000E+00  9.000E+00
      25     1     1     2     0     0 -2.816543383E+01 -4.201899644E+01 -1.271206549E+02  1.853201247E+02  1.250000000E+02  0.00000E+00  9.000E+00
      25     1     1     2     0     0  2.145898544E+01  2.966093958E+01 -3.007237650E+01  1.336772502E+02  1.250000000E+02  0.00000E+00  9.000E+00
      21     1     1     2   501   511  6.706448390E+00  1.235805686E+01 -1.826072310E-01  1.406169851E+01  3.118470748E-07  0.00000E+00  9.000E+00
#rwgt            1           1   3.7901590288752236E-002           2      158665           0
</event>
<event>
      5   9999  3.79277E-02  1.40403E+01 -1.00000E+00  1.80132E-01
      21    -1     0     0   512   501  0.000000000E+00  0.000000000E+00  1.652281109E+03  1.652281109E+03  0.000000000E+00  0.00000E+00  9.000E+00
      21    -1     0     0   501   502  0.000000000E+00  0.000000000E+00 -4.954119621E+01  4.954119621E+01  0.000000000E+00  0.00000E+00  9.000E+00
      25     1     1     2     0     0 -1.439929412E+02  3.778241260E+00  1.705144427E+02  2.558288830E+02  1.250000000E+02  0.00000E+00  9.000E+00
      25     1     1     2     0     0  1.301048232E+02 -1.716622594E+00  1.385644887E+03  1.397342823E+03  1.250000000E+02  0.00000E+00  9.000E+00
      21     1     1     2   512   502  1.388811799E+01 -2.061618666E+00  4.658058319E+01  4.865059941E+01  0.000000000E+00  0.00000E+00  9.000E+00
#rwgt            1           1   5.9839469618535042E-002           2      158842           0
</event>
<event>
      5   9999 -3.79277E-02  2.30096E+01 -1.00000E+00  1.61498E-01
       1    -1     0     0   502     0  0.000000000E+00  0.000000000E+00  1.696205314E+03  1.696205314E+03  0.000000000E+00  0.00000E+00  9.000E+00
      21    -1     0     0   501   502  0.000000000E+00  0.000000000E+00 -4.034619227E+02  4.034619227E+02  0.000000000E+00  0.00000E+00  9.000E+00
      25     1     1     2     0     0  1.374748558E+02  9.353707349E+01 -2.343681190E+02  3.133718802E+02  1.250000000E+02  0.00000E+00  9.000E+00
      25     1     1     2     0     0 -1.255133271E+02 -1.131931900E+02 -4.420138178E+01  2.148140026E+02  1.250000000E+02  0.00000E+00  9.000E+00
       1     1     1     2   501     0 -1.196152872E+01  1.965611654E+01  1.571312892E+03  1.571481354E+03  2.157918644E-05  0.00000E+00  9.000E+00
#rwgt            1           1 -0.19515124541048387                2      159080           0
</event>
<event>
      5   9999  3.79277E-02  7.51802E+01 -1.00000E+00  1.29669E-01
      21    -1     0     0   502   501  0.000000000E+00  0.000000000E+00  1.431480625E+02  1.431480625E+02  0.000000000E+00  0.00000E+00  9.000E+00
      21    -1     0     0   511   502  0.000000000E+00  0.000000000E+00 -8.483958020E+02  8.483958020E+02  0.000000000E+00  0.00000E+00  9.000E+00
      25     1     1     2     0     0  2.353203776E+02  2.895142835E+01 -1.458211545E+02  3.051273085E+02  1.250000000E+02  0.00000E+00  9.000E+00
      25     1     1     2     0     0 -2.122261345E+02 -1.004966325E+02 -2.400590211E+02  3.583194649E+02  1.250000000E+02  0.00000E+00  9.000E+00
      21     1     1     2   511   501 -2.309424314E+01  7.154520412E+01 -3.193675639E+02  3.280970911E+02  3.814697266E-06  0.00000E+00  9.000E+00
#rwgt            1           1   3.8487634194345623E-002           2      159242           0
</event>
<event>
      5   9999  3.79277E-02  2.27568E+01 -1.00000E+00  1.61871E-01
      21    -1     0     0   512   501  0.000000000E+00  0.000000000E+00  4.895647709E+02  4.895647709E+02  0.000000000E+00  0.00000E+00  9.000E+00
      21    -1     0     0   501   502  0.000000000E+00  0.000000000E+00 -2.455140495E+02  2.455140495E+02  0.000000000E+00  0.00000E+00  9.000E+00
      25     1     1     2     0     0 -2.408478487E+02 -1.688713253E+02  5.281139092E+01  3.239432879E+02  1.250000000E+02  0.00000E+00  9.000E+00
      25     1     1     2     0     0  2.619869141E+02  1.772982436E+02  1.711232733E+02  3.807623734E+02  1.250000000E+02  0.00000E+00  9.000E+00
      21     1     1     2   512   502 -2.113906539E+01 -8.426918253E+00  2.011605719E+01  3.037315910E+01  4.129530925E-07  0.00000E+00  9.000E+00
#rwgt            1           1   2.9843665907923467E-002           2      159354           0
</event>
<event>
      5   9999  3.79277E-02  1.00565E+02 -1.00000E+00  1.23718E-01
      21    -1     0     0   502   501  0.000000000E+00  0.000000000E+00  1.227672675E+03  1.227672675E+03  0.000000000E+00  0.00000E+00  9.000E+00
       2    -1     0     0   501     0  0.000000000E+00  0.000000000E+00 -9.621284976E+02  9.621284976E+02  0.000000000E+00  0.00000E+00  9.000E+00
      25     1     1     2     0     0  8.408222017E+01 -1.517118100E+02  2.660764169E+02  3.413326130E+02  1.250000000E+02  0.00000E+00  9.000E+00
      25     1     1     2     0     0 -1.405422424E+02  6.849216885E+01  9.103268929E+02  9.320747561E+02  1.250000000E+02  0.00000E+00  9.000E+00
       2     1     1     2   502     0  5.646002226E+01  8.321964116E+01 -9.108591327E+02  9.163938031E+02  1.078959322E-05  0.00000E+00  9.000E+00
#rwgt            1           1   2.9586959448174292E-002           2      159585           0
</event>
<event>
      5   9999  3.79277E-02  1.87566E+01 -1.00000E+00  1.68702E-01
      21    -1     0     0   502   501  0.000000000E+00  0.000000000E+00  1.668583212E+02  1.668583212E+02  0.000000000E+00  0.00000E+00  9.000E+00
      21    -1     0     0   501   511  0.000000000E+00  0.000000000E+00 -2.388852516E+02  2.388852516E+02  0.000000000E+00  0.00000E+00  9.000E+00
      25     1     1     2     0     0  9.867754355E+00  1.201708545E+02 -1.140563962E+02  2.077793743E+02  1.250000000E+02  0.00000E+00  9.000E+00
      25     1     1     2     0     0 -2.244941218E+00 -1.030330539E+02  5.925083072E+01  1.725007562E+02  1.250000000E+02  0.00000E+00  9.000E+00
      21     1     1     2   502   511 -7.622813137E+00 -1.713780064E+01 -1.722136485E+01  2.546344239E+01  2.384185791E-07  0.00000E+00  9.000E+00
#rwgt            2          11   1.7254882685676118E-003           2      159652           0
</event>
<event>
      5   9999  3.79277E-02  1.34947E+01 -1.00000E+00  1.81823E-01
      21    -1     0     0   502   501  0.000000000E+00  0.000000000E+00  1.792917468E+02  1.792917468E+02  0.000000000E+00  0.00000E+00  9.000E+00
      21    -1     0     0   501   512  0.000000000E+00  0.000000000E+00 -2.653440968E+02  2.653440968E+02  0.000000000E+00  0.00000E+00  9.000E+00
      25     1     1     2     0     0  1.324583133E+02  8.870925443E+01  1.726336477E+01  2.033164045E+02  1.250000000E+02  0.00000E+00  9.000E+00
      25     1     1     2     0     0 -1.266196187E+02 -7.654306167E+01 -7.099153071E+01  2.062914578E+02  1.250000000E+02  0.00000E+00  9.000E+00
      21     1     1     2   502   512 -5.838694550E+00 -1.216619276E+01 -3.232418406E+01  3.502798133E+01  8.259061849E-07  0.00000E+00  9.000E+00
#rwgt            1           1   6.0148129987366739E-002           2      159687           0
</event>
<event>
      5   9999 -3.79277E-02  2.38164E+01 -1.00000E+00  1.60345E-01
      21    -1     0     0   502   511  0.000000000E+00  0.000000000E+00  2.605481633E+01  2.605481633E+01  0.000000000E+00  0.00000E+00  9.000E+00
      21    -1     0     0   501   502  0.000000000E+00  0.000000000E+00 -1.505876125E+03  1.505876125E+03  0.000000000E+00  0.00000E+00  9.000E+00
      25     1     1     2     0     0  6.834104973E+01 -8.345425225E+01 -9.359663425E+02  9.504173324E+02  1.250000000E+02  0.00000E+00  9.000E+00
      25     1     1     2     0     0 -7.980984641E+01  1.043274362E+02 -4.949191533E+02  5.270899295E+02  1.250000000E+02  0.00000E+00  9.000E+00
      21     1     1     2   501   511  1.146879668E+01 -2.087318394E+01 -4.893581298E+01  5.442367956E+01  0.000000000E+00  0.00000E+00  9.000E+00
#rwgt            1           1 -0.10794926832715392                2      159868           0
</event>
<event>
      5   9999  3.79277E-02  1.95029E+01 -1.00000E+00  1.67276E-01
      21    -1     0     0   512   501  0.000000000E+00  0.000000000E+00  1.541149681E+02  1.541149681E+02  0.000000000E+00  0.00000E+00  9.000E+00
      21    -1     0     0   501   502  0.000000000E+00  0.000000000E+00 -3.614317255E+02  3.614317255E+02  0.000000000E+00  0.00000E+00  9.000E+00
      25     1     1     2     0     0  1.449384907E+02 -1.198392977E+02 -1.492198552E+02  2.706661939E+02  1.250000000E+02  0.00000E+00  9.000E+00
      25     1     1     2     0     0 -1.266444191E+02  1.265986137E+02 -5.369655052E+01  2.248873883E+02  1.250000000E+02  0.00000E+00  9.000E+00
      21     1     1     2   512   502 -1.829407152E+01 -6.759315985E+00 -4.400351679E+00  1.999311132E+01  2.665600750E-07  0.00000E+00  9.000E+00
#rwgt            1           1   4.7308174128259307E-002           2      160052           0
</event>
<event>
      5   9999  3.79277E-02  2.73886E+01 -1.00000E+00  1.55839E-01
      21    -1     0     0   502   511  0.000000000E+00  0.000000000E+00  3.950877433E+02  3.950877433E+02  0.000000000E+00  0.00000E+00  9.000E+00
      21    -1     0     0   501   502  0.000000000E+00  0.000000000E+00 -1.611541682E+02  1.611541682E+02  0.000000000E+00  0.00000E+00  9.000E+00
      25     1     1     2     0     0 -1.946519611E+02 -8.064971470E+01  7.366005250E+01  2.558213552E+02  1.250000000E+02  0.00000E+00  9.000E+00
      25     1     1     2     0     0  1.672661331E+02  8.104027017E+01  1.275897188E+02  2.577782400E+02  1.250000000E+02  0.00000E+00  9.000E+00
      21     1     1     2   501   511  2.738582798E+01 -3.905554741E-01  3.268380384E+01  4.264231632E+01  4.768371582E-07  0.00000E+00  9.000E+00
#rwgt            2          11   2.4141092439644435E-003           2      160285           0
</event>
<event>
      5   9999  3.79277E-02  2.00670E+01 -1.00000E+00  1.66249E-01
      21    -1     0     0   502   501  0.000000000E+00  0.000000000E+00  2.947734666E+02  2.947734666E+02  0.000000000E+00  0.00000E+00  9.000E+00
      21    -1     0     0   501   512  0.000000000E+00  0.000000000E+00 -2.483067432E+02  2.483067432E+02  0.000000000E+00  0.00000E+00  9.000E+00
      25     1     1     2     0     0 -1.148663804E+02 -4.514358740E+01  2.149657666E+02  2.776103558E+02  1.250000000E+02  0.00000E+00  9.000E+00
      25     1     1     2     0     0  1.271510102E+02  2.927619394E+01 -1.318359672E+02  2.236743105E+02  1.250000000E+02  0.00000E+00  9.000E+00
      21     1     1     2   502   512 -1.228462978E+01  1.586739346E+01 -3.666307606E+01  4.179554342E+01  8.259061849E-07  0.00000E+00  9.000E+00
#rwgt            1           1   4.4136982880193486E-002           2      160335           0
</event>
<event>
      5   9999  3.79277E-02  1.06636E+02 -1.00000E+00  1.22586E-01
      21    -1     0     0   502   501  0.000000000E+00  0.000000000E+00  2.849090420E+02  2.849090420E+02  0.000000000E+00  0.00000E+00  9.000E+00
       1    -1     0     0   501     0  0.000000000E+00  0.000000000E+00 -7.925697983E+02  7.925697983E+02  0.000000000E+00  0.00000E+00  9.000E+00
      25     1     1     2     0     0  1.362979621E+02 -1.190051059E+02  3.875136757E+01  2.233070044E+02  1.250000000E+02  0.00000E+00  9.000E+00
      25     1     1     2     0     0 -7.198448185E+01  2.040645840E+02  4.440125723E+01  2.538121189E+02  1.250000000E+02  0.00000E+00  9.000E+00
       1     1     1     2   502     0 -6.431348028E+01 -8.505947801E+01 -5.908133810E+02  6.003597170E+02  1.078959322E-05  0.00000E+00  9.000E+00
#rwgt            1           1   4.2406609054478649E-002           2      160500           0
</event>
<event>
      5   9999  3.79277E-02  1.97657E+01 -1.00000E+00  1.66792E-01
      21    -1     0     0   502   511  0.000000000E+00  0.000000000E+00  2.653296399E+01  2.653296399E+01  0.000000000E+00  0.00000E+00  9.000E+00
      21    -1     0     0   501   502  0.000000000E+00  0.000000000E+00 -1.578347757E+03  1.578347757E+03  0.000000000E+00  0.00000E+00  9.000E+00
      25     1     1     2     0     0  5.053906321E+00 -1.361895866E+02 -9.693267007E+02  9.868092004E+02  1.250000000E+02  0.00000E+00  9.000E+00
      25     1     1     2     0     0  7.962507558E+00  1.213148620E+02 -5.662523487E+02  5.924925482E+02  1.250000000E+02  0.00000E+00  9.000E+00
      21     1     1     2   501   511 -1.301641388E+01  1.487472458E+01 -1.623574405E+01  2.557897274E+01  3.371747881E-07  0.00000E+00  9.000E+00
#rwgt            1           1   4.2845557738343885E-002           2      160632           0
</event>
<event>
      5   9999  3.79277E-02  1.41403E+01 -1.00000E+00  1.79833E-01
      21    -1     0     0   502   501  0.000000000E+00  0.000000000E+00  8.011375153E+01  8.011375153E+01  0.000000000E+00  0.00000E+00  9.000E+00
      21    -1     0     0   512   502  0.000000000E+00  0.000000000E+00 -1.111075242E+03  1.111075242E+03  0.000000000E+00  0.00000E+00  9.000E+00
      25     1     1     2     0     0  8.455176524E+01  1.572547282E+01 -1.833730728E+01  1.528317648E+02  1.250000000E+02  0.00000E+00  9.000E+00
      25     1     1     2     0     0 -7.217474769E+01 -2.256337279E+01 -4.045881715E+02  4.301568185E+02  1.250000000E+02  0.00000E+00  9.000E+00
      21     1     1     2   512   501 -1.237701756E+01  6.837899970E+00 -6.080360116E+02  6.082004101E+02  1.078959322E-05  0.00000E+00  9.000E+00
#rwgt            1           1   3.5156567817066754E-002           2      160861           0
</event>
<event>
      5   9999  3.79277E-02  8.86352E+01 -1.00000E+00  1.26231E-01
      21    -1     0     0   502   511  0.000000000E+00  0.000000000E+00  3.903004348E+02  3.903004348E+02  0.000000000E+00  0.00000E+00  9.000E+00
      21    -1     0     0   501   502  0.000000000E+00  0.000000000E+00 -2.011189401E+02  2.011189401E+02  0.000000000E+00  0.00000E+00  9.000E+00
      25     1     1     2     0     0 -1.193975233E+02  8.845399730E+01  8.567103045E+01  2.122366690E+02  1.250000000E+02  0.00000E+00  9.000E+00
      25     1     1     2     0     0  4.051600131E+01 -4.803241813E+01 -8.998955394E+01  1.663483675E+02  1.250000000E+02  0.00000E+00  9.000E+00
      21     1     1     2   501   511  7.888152202E+01 -4.042157917E+01  1.935000182E+02  2.128343384E+02  3.814697266E-06  0.00000E+00  9.000E+00
#rwgt            2          11   1.3402939979491578E-003           2      161133           0
</event>
<event>
      5   9999  3.79277E-02  2.57937E+01 -1.00000E+00  1.57741E-01
      21    -1     0     0   502   501  0.000000000E+00  0.000000000E+00  1.521406994E+03  1.521406994E+03  0.000000000E+00  0.00000E+00  9.000E+00
      21    -1     0     0   501   512  0.000000000E+00  0.000000000E+00 -1.241566730E+02  1.241566730E+02  0.000000000E+00  0.00000E+00  9.000E+00
      25     1     1     2     0     0 -9.819415108E+00  8.475767811E+01  1.276625420E+03  1.285565148E+03  1.250000000E+02  0.00000E+00  9.000E+00
      25     1     1     2     0     0  3.173417784E+01 -9.836122835E+01  2.109312248E+02  2.660807601E+02  1.250000000E+02  0.00000E+00  9.000E+00
      21     1     1     2   502   512 -2.191476273E+01  1.360355024E+01 -9.030632398E+01  9.391775953E+01  4.955437110E-06  0.00000E+00  9.000E+00
#rwgt            1           1   4.9085575290050878E-002           2      161243           0
</event>
<event>
      5   9999  3.79277E-02  5.54999E+01 -1.00000E+00  1.36538E-01
      21    -1     0     0   502   501  0.000000000E+00  0.000000000E+00  2.248621036E+02  2.248621036E+02  0.000000000E+00  0.00000E+00  9.000E+00
      21    -1     0     0   501   511  0.000000000E+00  0.000000000E+00 -6.375477720E+02  6.375477720E+02  0.000000000E+00  0.00000E+00  9.000E+00
      25     1     1     2     0     0 -3.719656880E+01 -5.895636103E+01 -1.980120138E+02  2.443219082E+02  1.250000000E+02  0.00000E+00  9.000E+00
      25     1     1     2     0     0 -2.142263717E+00  9.810606788E+01  1.680912888E+02  2.313202785E+02  1.250000000E+02  0.00000E+00  9.000E+00
      21     1     1     2   502   511  3.933883252E+01 -3.914970685E+01 -3.827649434E+02  3.867676889E+02  5.394796609E-06  0.00000E+00  9.000E+00
#rwgt            1           1   4.5399896997708661E-002           2      161406           0
</event>
<event>
      5   9999  3.79277E-02  1.05958E+02 -1.00000E+00  1.22708E-01
      21    -1     0     0   502   501  0.000000000E+00  0.000000000E+00  9.263105848E+02  9.263105848E+02  0.000000000E+00  0.00000E+00  9.000E+00
      21    -1     0     0   512   502  0.000000000E+00  0.000000000E+00 -1.407531046E+02  1.407531046E+02  0.000000000E+00  0.00000E+00  9.000E+00
      25     1     1     2     0     0 -2.423325752E+02  7.487547953E+01  5.704877362E+02  6.367202459E+02  1.250000000E+02  0.00000E+00  9.000E+00
      25     1     1     2     0     0  1.730238393E+02 -1.550211782E+02  1.773203434E+02  3.178621066E+02  1.250000000E+02  0.00000E+00  9.000E+00
      21     1     1     2   512   501  6.930873592E+01  8.014569868E+01  3.774940058E+01  1.124813368E+02  1.507891493E-06  0.00000E+00  9.000E+00
#rwgt            1           1   3.6194524487438422E-002           2      161699           0
</event>
<event>
      5   9999  3.79277E-02  1.42628E+01 -1.00000E+00  1.79471E-01
      21    -1     0     0   502   511  0.000000000E+00  0.000000000E+00  3.011766167E+02  3.011766167E+02  0.000000000E+00  0.00000E+00  9.000E+00
      21    -1     0     0   501   502  0.000000000E+00  0.000000000E+00 -1.551227175E+02  1.551227175E+02  0.000000000E+00  0.00000E+00  9.000E+00
      25     1     1     2     0     0 -8.806652619E+01  1.156201400E+02 -2.652373732E+01  1.935258082E+02  1.250000000E+02  0.00000E+00  9.000E+00
      25     1     1     2     0     0  7.516361375E+01 -1.095420725E+02  1.674537913E+02  2.476182681E+02  1.250000000E+02  0.00000E+00  9.000E+00
      21     1     1     2   501   511  1.290291244E+01 -6.078067508E+00  5.123845223E+00  1.515525796E+01  4.086288572E-07  0.00000E+00  9.000E+00
#rwgt            1           1   3.5782524542417878E-002           2      161850           0
</event>
<event>
      5   9999  3.79277E-02  1.46730E+02 -1.00000E+00  1.16774E-01
      21    -1     0     0   512   501  0.000000000E+00  0.000000000E+00  4.415777150E+02  4.415777150E+02  0.000000000E+00  0.00000E+00  9.000E+00
      21    -1     0     0   501   502  0.000000000E+00  0.000000000E+00 -5.688201998E+02  5.688201998E+02  0.000000000E+00  0.00000E+00  9.000E+00
      25     1     1     2     0     0  2.864604591E+02  8.677570355E+01 -3.475097613E+02  4.753710672E+02  1.250000000E+02  0.00000E+00  9.000E+00
      25     1     1     2     0     0 -1.521068387E+02 -1.457566205E+02 -2.808611667E+01  2.465670553E+02  1.250000000E+02  0.00000E+00  9.000E+00
      21     1     1     2   512   502 -1.343536204E+02  5.898091692E+01  2.483533931E+02  2.884597923E+02  0.000000000E+00  0.00000E+00  9.000E+00
#rwgt            1           1   3.3249106870909838E-002           2      162042           0
</event>
<event>
      5   9999  3.79277E-02  9.83771E+01 -1.00000E+00  1.24148E-01
      21    -1     0     0   502   501  0.000000000E+00  0.000000000E+00  1.786332126E+03  1.786332126E+03  0.000000000E+00  0.00000E+00  9.000E+00
      -1    -1     0     0     0   502  0.000000000E+00  0.000000000E+00 -9.664771003E+02  9.664771003E+02  0.000000000E+00  0.00000E+00  9.000E+00
      25     1     1     2     0     0  5.829404206E+01 -7.646916619E+01  1.203622629E+03  1.213910278E+03  1.250000000E+02  0.00000E+00  9.000E+00
      25     1     1     2     0     0 -1.063868257E+02 -9.351235392E+00  5.632656182E+02  5.867697665E+02  1.250000000E+02  0.00000E+00  9.000E+00
      -1     1     1     2     0   501  4.809278361E+01  8.582040158E+01 -9.470332215E+02  9.521291823E+02  0.000000000E+00  0.00000E+00  9.000E+00
#rwgt            1           1  0.13873568496934954                2      162167           0
</event>
<event>
      5   9999  3.79277E-02  2.18334E+01 -1.00000E+00  1.63286E-01
      21    -1     0     0   502   501  0.000000000E+00  0.000000000E+00  7.911508411E+02  7.911508411E+02  0.000000000E+00  0.00000E+00  9.000E+00
       3    -1     0     0   501     0  0.000000000E+00  0.000000000E+00 -5.814169605E+01  5.814169605E+01  0.000000000E+00  0.00000E+00  9.000E+00
      25     1     1     2     0     0 -1.705920341E+01  1.239661046E+02  2.155769899E+02  2.788495115E+02  1.250000000E+02  0.00000E+00  9.000E+00
      25     1     1     2     0     0 -4.265952154E+00 -1.286497425E+02  5.184151478E+02  5.485874772E+02  1.250000000E+02  0.00000E+00  9.000E+00
       3     1     1     2   502     0  2.132515556E+01  4.683637826E+00 -9.829926728E-01  2.185554844E+01  2.430305843E-07  0.00000E+00  9.000E+00
#rwgt            1           1   3.8189102668771825E-002           2      162253           0
</event>
<event>
      5   9999  3.79277E-02  1.72505E+01 -1.00000E+00  1.71849E-01
      21    -1     0     0   511   501  0.000000000E+00  0.000000000E+00  1.660055269E+02  1.660055269E+02  0.000000000E+00  0.00000E+00  9.000E+00
      21    -1     0     0   501   502  0.000000000E+00  0.000000000E+00 -2.236611218E+02  2.236611218E+02  0.000000000E+00  0.00000E+00  9.000E+00
      25     1     1     2     0     0  8.967412811E+01 -4.848795595E+01 -1.081906191E+02  1.942234311E+02  1.250000000E+02  0.00000E+00  9.000E+00
      25     1     1     2     0     0 -9.751496312E+01  6.385356020E+01  5.040859745E+01  1.781922329E+02  1.250000000E+02  0.00000E+00  9.000E+00
      21     1     1     2   511   502  7.840835013E+00 -1.536560425E+01  1.264267192E-01  1.725098465E+01  3.179835876E-07  0.00000E+00  9.000E+00
#rwgt            1           1   4.0816330230424622E-002           2      162463           0
</event>
<event>
      5   9999  3.79277E-02  2.80196E+02 -1.00000E+00  1.06565E-01
      21    -1     0     0   502   501  0.000000000E+00  0.000000000E+00  2.023116483E+02  2.023116483E+02  0.000000000E+00  0.00000E+00  9.000E+00
      21    -1     0     0   501   512  0.000000000E+00  0.000000000E+00 -7.816946597E+02  7.816946597E+02  0.000000000E+00  0.00000E+00  9.000E+00
      25     1     1     2     0     0  3.465271511E+01 -1.540668306E+02 -2.265911688E+02  3.031599524E+02  1.250000000E+02  0.00000E+00  9.000E+00
      25     1     1     2     0     0 -6.887732423E+01 -1.240308349E+02  4.491786247E+01  1.943459497E+02  1.250000000E+02  0.00000E+00  9.000E+00
      21     1     1     2   502   512  3.422460912E+01  2.780976654E+02 -3.977097051E+02  4.865004059E+02  7.629394531E-06  0.00000E+00  9.000E+00
#rwgt            1           1   3.7335833883966683E-002           2      162666           0
</event>
<event>
      5   9999  3.79277E-02  4.53665E+01 -1.00000E+00  1.41529E-01
       2    -1     0     0   502     0  0.000000000E+00  0.000000000E+00  8.702524871E+02  8.702524871E+02  0.000000000E+00  0.00000E+00  9.000E+00
      21    -1     0     0   501   502  0.000000000E+00  0.000000000E+00 -1.856414857E+03  1.856414857E+03  0.000000000E+00  0.00000E+00  9.000E+00
      25     1     1     2     0     0  2.798026489E+02  5.953907931E+01 -1.324201737E+03  1.360503460E+03  1.250000000E+02  0.00000E+00  9.000E+00
      25     1     1     2     0     0 -2.446690093E+02 -3.083807180E+01 -4.762111696E+02  5.506505142E+02  1.250000000E+02  0.00000E+00  9.000E+00
       2     1     1     2   501     0 -3.513363956E+01 -2.870100751E+01  8.142505366E+02  8.155133701E+02  1.078959322E-05  0.00000E+00  9.000E+00
#rwgt            1           1   3.4340621009381823E-002           2      162726           0
</event>
<event>
      5   9999  3.79277E-02  5.16794E+01 -1.00000E+00  1.38262E-01
      21    -1     0     0   502   501  0.000000000E+00  0.000000000E+00  7.368102411E+02  7.368102411E+02  0.000000000E+00  0.00000E+00  9.000E+00
      21    -1     0     0   511   502  0.000000000E+00  0.000000000E+00 -1.242427641E+02  1.242427641E+02  0.000000000E+00  0.00000E+00  9.000E+00
      25     1     1     2     0     0  4.624527219E+01 -2.202004071E+01  6.245515475E+02  6.389938520E+02  1.250000000E+02  0.00000E+00  9.000E+00
      25     1     1     2     0     0 -9.115380063E+01 -3.553117059E+00  2.730919101E+01  1.571382574E+02  1.250000000E+02  0.00000E+00  9.000E+00
      21     1     1     2   511   501  4.490852844E+01  2.557315777E+01 -3.929326145E+01  6.492089586E+01  1.651812370E-06  0.00000E+00  9.000E+00
#rwgt            1           1   3.9365030522632731E-002           2      162883           0
</event>
<event>
      5   9999  3.79277E-02  1.11263E+02 -1.00000E+00  1.21778E-01
      21    -1     0     0   502   501  0.000000000E+00  0.000000000E+00  1.427006242E+02  1.427006242E+02  0.000000000E+00  0.00000E+00  9.000E+00
       4    -1     0     0   501     0  0.000000000E+00  0.000000000E+00 -6.897361630E+02  6.897361630E+02  0.000000000E+00  0.00000E+00  9.000E+00
      25     1     1     2     0     0 -3.939043273E+01 -2.856806268E+01 -5.027027728E+02  5.202910898E+02  1.250000000E+02  0.00000E+00  9.000E+00
      25     1     1     2     0     0  1.400493675E+02 -1.883767184E+01  8.755590327E+00  1.888659408E+02  1.250000000E+02  0.00000E+00  9.000E+00
       4     1     1     2   502     0 -1.006589348E+02  4.740573452E+01 -5.308835635E+01  1.232797566E+02  3.303624740E-06  0.00000E+00  9.000E+00
#rwgt            1           1   3.4081810599077778E-002           2      163012           0
</event>
<event>
      5   9999  3.79277E-02  5.25970E+01 -1.00000E+00  1.37832E-01
      21    -1     0     0   511   501  0.000000000E+00  0.000000000E+00  6.859461552E+01  6.859461552E+01  0.000000000E+00  0.00000E+00  9.000E+00
      21    -1     0     0   501   502  0.000000000E+00  0.000000000E+00 -8.153348355E+02  8.153348355E+02  0.000000000E+00  0.00000E+00  9.000E+00
      25     1     1     2     0     0  4.537799736E+01  5.272954965E+00 -6.446793509E+02  6.582730681E+02  1.250000000E+02  0.00000E+00  9.000E+00
      25     1     1     2     0     0 -2.319296900E+01  4.241631980E+01 -3.154457220E+01  1.376848504E+02  1.250000000E+02  0.00000E+00  9.000E+00
      21     1     1     2   511   502 -2.218502836E+01 -4.768927476E+01 -7.051629693E+01  8.797153257E+01  0.000000000E+00  0.00000E+00  9.000E+00
#rwgt            1           1   4.1650595756300167E-002           2      163069           0
</event>
<event>
      5   9999  3.79277E-02  1.93282E+01 -1.00000E+00  1.67603E-01
      21    -1     0     0   502   501  0.000000000E+00  0.000000000E+00  9.098927492E+01  9.098927492E+01  0.000000000E+00  0.00000E+00  9.000E+00
      21    -1     0     0   512   502  0.000000000E+00  0.000000000E+00 -1.419854902E+03  1.419854902E+03  0.000000000E+00  0.00000E+00  9.000E+00
      25     1     1     2     0     0  2.522484664E+02 -1.484647123E+01 -2.425136261E+02  3.718703610E+02  1.250000000E+02  0.00000E+00  9.000E+00
      25     1     1     2     0     0 -2.662503507E+02  2.817042332E+01 -8.145749735E+02  8.665103632E+02  1.250000000E+02  0.00000E+00  9.000E+00
      21     1     1     2   512   501  1.400188423E+01 -1.332395209E+01 -2.717770270E+02  2.724634524E+02  3.814697266E-06  0.00000E+00  9.000E+00
#rwgt            1           1   4.2950587447462954E-002           2      163223           0
</event>
<event>
      5   9999  3.79277E-02  5.70035E+01 -1.00000E+00  1.35903E-01
      21    -1     0     0   502   501  0.000000000E+00  0.000000000E+00  1.881490241E+03  1.881490241E+03  0.000000000E+00  0.00000E+00  9.000E+00
      21    -1     0     0   501   511  0.000000000E+00  0.000000000E+00 -1.122608417E+02  1.122608417E+02  0.000000000E+00  0.00000E+00  9.000E+00
      25     1     1     2     0     0  1.738216632E+02 -3.880219156E-01  1.531623364E+03  1.546515196E+03  1.250000000E+02  0.00000E+00  9.000E+00
      25     1     1     2     0     0 -2.307952272E+02 -1.458590076E+00  2.741363359E+02  3.795316786E+02  1.250000000E+02  0.00000E+00  9.000E+00
      21     1     1     2   502   511  5.697356401E+01  1.846611991E+00 -3.653030073E+01  6.770420846E+01  2.023048729E-06  0.00000E+00  9.000E+00
#rwgt            1           1   4.5276124807322592E-002           2      163518           0
</event>
<event>
      5   9999  3.79277E-02  2.46492E+01 -1.00000E+00  1.59212E-01
      21    -1     0     0   512   501  0.000000000E+00  0.000000000E+00  3.230078462E+02  3.230078462E+02  0.000000000E+00  0.00000E+00  9.000E+00
      21    -1     0     0   501   502  0.000000000E+00  0.000000000E+00 -3.405278684E+02  3.405278684E+02  0.000000000E+00  0.00000E+00  9.000E+00
      25     1     1     2     0     0 -2.356007026E+02  1.760000747E+02  2.300265638E+01  3.203714088E+02  1.250000000E+02  0.00000E+00  9.000E+00
      25     1     1     2     0     0  2.429815464E+02 -1.524818692E+02 -4.974904585E+01  3.168449461E+02  1.250000000E+02  0.00000E+00  9.000E+00
      21     1     1     2   512   502 -7.380843788E+00 -2.351820546E+01  9.226367187E+00  2.631935969E+01  2.064765462E-07  0.00000E+00  9.000E+00
#rwgt            1           1   4.2523310215017408E-002           2      163685           0
</event>
<event>
      5   9999  3.79277E-02  6.23582E+00 -1.00000E+00  2.22903E-01
      21    -1     0     0   511   501  0.000000000E+00  0.000000000E+00  1.379817292E+02  1.379817292E+02  0.000000000E+00  0.00000E+00  9.000E+00
      21    -1     0     0   501   502  0.000000000E+00  0.000000000E+00 -4.763684432E+02  4.763684432E+02  0.000000000E+00  0.00000E+00  9.000E+00
      25     1     1     2     0     0  1.235477394E+02  6.725004484E+01 -3.664960499E+02  4.119841830E+02  1.250000000E+02  0.00000E+00  9.000E+00
      25     1     1     2     0     0 -1.295060482E+02 -6.908960256E+01  3.136673204E+01  1.953306468E+02  1.250000000E+02  0.00000E+00  9.000E+00
      21     1     1     2   511   502  5.958308809E+00  1.839557723E+00 -3.257396059E+00  7.035342604E+00  5.960464478E-08  0.00000E+00  9.000E+00
#rwgt            1           1   3.3680063876525411E-002           2      163851           0
</event>
<event>
      5   9999  3.79277E-02  1.93700E+02 -1.00000E+00  1.12156E-01
      21    -1     0     0   502   501  0.000000000E+00  0.000000000E+00  1.419295292E+02  1.419295292E+02  0.000000000E+00  0.00000E+00  9.000E+00
      21    -1     0     0   501   512  0.000000000E+00  0.000000000E+00 -8.407536959E+02  8.407536959E+02  0.000000000E+00  0.00000E+00  9.000E+00
      25     1     1     2     0     0 -8.423479924E+01 -7.965606837E+01  3.414061940E+01  1.738711377E+02  1.250000000E+02  0.00000E+00  9.000E+00
      25     1     1     2     0     0 -7.113857347E+01 -3.600999019E+01 -3.180945748E+02  3.509509574E+02  1.250000000E+02  0.00000E+00  9.000E+00
      21     1     1     2   502   512  1.553733727E+02  1.156660586E+02 -4.148702113E+02  4.578611299E+02  0.000000000E+00  0.00000E+00  9.000E+00
#rwgt            1           1   3.4248384868899438E-002           2      164346           0
</event>
<event>
      5   9999  3.79277E-02  1.94991E+01 -1.00000E+00  1.67283E-01
      21    -1     0     0   502   501  0.000000000E+00  0.000000000E+00  4.341640066E+01  4.341640066E+01  0.000000000E+00  0.00000E+00  9.000E+00
      21    -1     0     0   501   511  0.000000000E+00  0.000000000E+00 -1.123526897E+03  1.123526897E+03  0.000000000E+00  0.00000E+00  9.000E+00
      25     1     1     2     0     0 -3.585372897E+01 -1.052086498E+02 -6.023799998E+02  6.251727873E+02  1.250000000E+02  0.00000E+00  9.000E+00
      25     1     1     2     0     0  4.202635739E+01  1.237049382E+02 -2.266710428E+02  2.899549760E+02  1.250000000E+02  0.00000E+00  9.000E+00
      21     1     1     2   502   511 -6.172628413E+00 -1.849628837E+01 -2.510594533E+02  2.518155339E+02  3.814697266E-06  0.00000E+00  9.000E+00
#rwgt            1           1   5.3025584991585252E-002           2      164438           0
</event>
<event>
      5   9999  3.79277E-02  6.30677E+01 -1.00000E+00  1.33556E-01
      21    -1     0     0   502   512  0.000000000E+00  0.000000000E+00  6.869664502E+01  6.869664502E+01  0.000000000E+00  0.00000E+00  9.000E+00
      21    -1     0     0   501   502  0.000000000E+00  0.000000000E+00 -7.936384742E+02  7.936384742E+02  0.000000000E+00  0.00000E+00  9.000E+00
      25     1     1     2     0     0  7.316384406E+01  1.142030304E+02 -4.440657706E+02  4.808478854E+02  1.250000000E+02  0.00000E+00  9.000E+00
      25     1     1     2     0     0 -2.010560085E+01 -1.482964365E+02 -2.165534175E+02  2.914042740E+02  1.250000000E+02  0.00000E+00  9.000E+00
      21     1     1     2   501   512 -5.305824321E+01  3.409340606E+01 -6.432264104E+01  9.008295988E+01  1.348699152E-06  0.00000E+00  9.000E+00
#rwgt            1           1   3.6851707829291987E-002           2      164597           0
</event>
<event>
      5   9999  3.79277E-02  9.16142E+01 -1.00000E+00  1.25563E-01
      21    -1     0     0   502   511  0.000000000E+00  0.000000000E+00  4.848382101E+02  4.848382101E+02  0.000000000E+00  0.00000E+00  9.000E+00
      21    -1     0     0   501   502  0.000000000E+00  0.000000000E+00 -2.867839953E+02  2.867839953E+02  0.000000000E+00  0.00000E+00  9.000E+00
      25     1     1     2     0     0  3.032081685E+01 -2.703533739E+02  1.974718762E+02  3.586508617E+02  1.250000000E+02  0.00000E+00  9.000E+00
      25     1     1     2     0     0 -5.160113799E+01  1.812449433E+02 -1.243325862E+02  2.580620059E+02  1.250000000E+02  0.00000E+00  9.000E+00
      21     1     1     2   501   511  2.128032113E+01  8.910843059E+01  1.249149249E+02  1.549093378E+02  1.348699152E-06  0.00000E+00  9.000E+00
#rwgt            1           1   3.0774807204191661E-002           2      164649           0
</event>
<event>
      5   9999  3.79277E-02  2.12532E+01 -1.00000E+00  1.64220E-01
      21    -1     0     0   502   501  0.000000000E+00  0.000000000E+00  1.537820037E+02  1.537820037E+02  0.000000000E+00  0.00000E+00  9.000E+00
      21    -1     0     0   512   502  0.000000000E+00  0.000000000E+00 -3.152906507E+02  3.152906507E+02  0.000000000E+00  0.00000E+00  9.000E+00
      25     1     1     2     0     0 -2.859339627E+01 -6.684149179E+01  9.121606511E+01  1.709699911E+02  1.250000000E+02  0.00000E+00  9.000E+00
      25     1     1     2     0     0  2.696507029E+01  4.565076139E+01 -2.053657358E+02  2.461934046E+02  1.250000000E+02  0.00000E+00  9.000E+00
      21     1     1     2   512   501  1.628325974E+00  2.119073040E+01 -4.735897638E+01  5.190925875E+01  0.000000000E+00  0.00000E+00  9.000E+00
#rwgt            1           1   2.0567117020095730E-002           2      164855           0
</event>
<event>
      5   9999  3.79277E-02  2.31866E+01 -1.00000E+00  1.61240E-01
       2    -1     0     0   502     0  0.000000000E+00  0.000000000E+00  1.193677936E+03  1.193677936E+03  0.000000000E+00  0.00000E+00  9.000E+00
      21    -1     0     0   501   502  0.000000000E+00  0.000000000E+00 -3.944606356E+02  3.944606356E+02  0.000000000E+00  0.00000E+00  9.000E+00
      25     1     1     2     0     0  4.856234953E+01  1.192691864E+02 -2.064925113E+02  2.735828903E+02  1.250000000E+02  0.00000E+00  9.000E+00
      25     1     1     2     0     0 -7.089726786E+01 -1.130427603E+02 -1.001377938E+02  2.084650234E+02  1.250000000E+02  0.00000E+00  9.000E+00
       2     1     1     2   501     0  2.233491833E+01 -6.226426091E+00  1.105847606E+03  1.106090658E+03  1.525878906E-05  0.00000E+00  9.000E+00
#rwgt            1           1   4.1867727831259881E-002           2      165005           0
</event>
<event>
      5   9999  3.79277E-02  1.95878E+01 -1.00000E+00  1.67119E-01
      21    -1     0     0   502   501  0.000000000E+00  0.000000000E+00  4.907761084E+02  4.907761084E+02  0.000000000E+00  0.00000E+00  9.000E+00
       1    -1     0     0   501     0  0.000000000E+00  0.000000000E+00 -6.383298183E+02  6.383298183E+02  0.000000000E+00  0.00000E+00  9.000E+00
      25     1     1     2     0     0 -2.441365147E+02  1.367984054E+02  3.368167462E+02  4.553975868E+02  1.250000000E+02  0.00000E+00  9.000E+00
      25     1     1     2     0     0  2.601026803E+02 -1.254510262E+02 -1.679536950E+02  3.566858673E+02  1.250000000E+02  0.00000E+00  9.000E+00
       1     1     1     2   502     0 -1.596616559E+01 -1.134737919E+01 -3.164167611E+02  3.170224726E+02  3.814697266E-06  0.00000E+00  9.000E+00
#rwgt            1           1   5.2034190898103176E-002           2      165236           0
</event>
<event>
      5   9999  3.79277E-02  4.78533E+01 -1.00000E+00  1.40172E-01
      21    -1     0     0   502   511  0.000000000E+00  0.000000000E+00  4.043909510E+01  4.043909510E+01  0.000000000E+00  0.00000E+00  9.000E+00
      21    -1     0     0   501   502  0.000000000E+00  0.000000000E+00 -7.859231633E+02  7.859231633E+02  0.000000000E+00  0.00000E+00  9.000E+00
      25     1     1     2     0     0 -3.734959578E+01  5.313256455E+01 -2.557387180E+02  2.919680695E+02  1.250000000E+02  0.00000E+00  9.000E+00
      25     1     1     2     0     0  8.411832764E+01 -4.300231465E+01 -4.311711937E+02  4.587577687E+02  1.250000000E+02  0.00000E+00  9.000E+00
      21     1     1     2   501   511 -4.676873186E+01 -1.013024991E+01 -5.857415651E+01  7.563642015E+01  9.536743164E-07  0.00000E+00  9.000E+00
#rwgt            1           1  0.10971033788202933                2      165487           0
</event>
<event>
      5   9999  3.79277E-02  2.43597E+01 -1.00000E+00  1.59600E-01
      21    -1     0     0   502   501  0.000000000E+00  0.000000000E+00  2.792657031E+02  2.792657031E+02  0.000000000E+00  0.00000E+00  9.000E+00
      21    -1     0     0   512   502  0.000000000E+00  0.000000000E+00 -1.564547029E+02  1.564547029E+02  0.000000000E+00  0.00000E+00  9.000E+00
      25     1     1     2     0     0 -3.157142057E+01  9.542169846E+01 -4.142373576E+01  1.656592316E+02  1.250000000E+02  0.00000E+00  9.000E+00
      25     1     1     2     0     0  4.664309632E+01 -7.628430899E+01  1.832444776E+02  2.391618967E+02  1.250000000E+02  0.00000E+00  9.000E+00
      21     1     1     2   512   501 -1.507167575E+01 -1.913738947E+01 -1.900974170E+01  3.089927774E+01  2.384185791E-07  0.00000E+00  9.000E+00
#rwgt            1           1   2.3133844670562568E-002           2      165602           0
</event>
<event>
      5   9999  3.79277E-02  3.92458E+01 -1.00000E+00  1.45355E-01
      21    -1     0     0   511   501  0.000000000E+00  0.000000000E+00  3.780135881E+02  3.780135881E+02  0.000000000E+00  0.00000E+00  9.000E+00
      21    -1     0     0   501   502  0.000000000E+00  0.000000000E+00 -2.114579740E+02  2.114579740E+02  0.000000000E+00  0.00000E+00  9.000E+00
      25     1     1     2     0     0 -9.483177521E+01 -1.335599131E+02  2.180978643E+02  3.000383216E+02  1.250000000E+02  0.00000E+00  9.000E+00
      25     1     1     2     0     0  9.187193284E+01  1.726938990E+02 -7.470293347E+01  2.438630006E+02  1.250000000E+02  0.00000E+00  9.000E+00
      21     1     1     2   511   502  2.959842367E+00 -3.913398583E+01  2.316068331E+01  4.557023991E+01  5.840038640E-07  0.00000E+00  9.000E+00
#rwgt            1           1   4.9131317672475187E-002           2      165724           0
</event>
<event>
      5   9999  3.79277E-02  5.64377E+01 -1.00000E+00  1.36139E-01
      21    -1     0     0   512   501  0.000000000E+00  0.000000000E+00  1.254440227E+03  1.254440227E+03  0.000000000E+00  0.00000E+00  9.000E+00
      21    -1     0     0   501   502  0.000000000E+00  0.000000000E+00 -2.917111928E+02  2.917111928E+02  0.000000000E+00  0.00000E+00  9.000E+00
      25     1     1     2     0     0 -2.025203191E+02 -9.968424128E+01  1.311987000E+02  2.894642059E+02  1.250000000E+02  0.00000E+00  9.000E+00
      25     1     1     2     0     0  1.534608321E+02  1.275836533E+02 -1.462996472E+02  2.772298728E+02  1.250000000E+02  0.00000E+00  9.000E+00
      21     1     1     2   512   502  4.905948705E+01 -2.789941205E+01  9.778299819E+02  9.794573416E+02  0.000000000E+00  0.00000E+00  9.000E+00
#rwgt            1           1   4.1018491251279307E-002           2      165828           0
</event>
<event>
      5   9999  3.79277E-02  8.29565E+00 -1.00000E+00  2.05631E-01
      21    -1     0     0   502   511  0.000000000E+00  0.000000000E+00  3.374618346E+02  3.374618346E+02  0.000000000E+00  0.00000E+00  9.000E+00
      21    -1     0     0   501   502  0.000000000E+00  0.000000000E+00 -2.082005704E+02  2.082005704E+02  0.000000000E+00  0.00000E+00  9.000E+00
      25     1     1     2     0     0  1.448124278E+02 -4.338311212E+01  1.362358259E+02  2.388261583E+02  1.250000000E+02  0.00000E+00  9.000E+00
      25     1     1     2     0     0 -1.481298350E+02  5.098656908E+01 -9.262428254E+01  2.207857241E+02  1.250000000E+02  0.00000E+00  9.000E+00
      21     1     1     2   501   511  3.317407198E+00 -7.603456961E+00  8.564972088E+01  8.605052258E+01  9.536743164E-07  0.00000E+00  9.000E+00
#rwgt            1           1   3.5635746264157352E-002           2      165912           0
</event>
<event>
      5   9999  3.79277E-02  1.57516E+02 -1.00000E+00  1.15558E-01
      21    -1     0     0   502   512  0.000000000E+00  0.000000000E+00  1.277275364E+03  1.277275364E+03  0.000000000E+00  0.00000E+00  9.000E+00
      21    -1     0     0   501   502  0.000000000E+00  0.000000000E+00 -1.022571311E+02  1.022571311E+02  0.000000000E+00  0.00000E+00  9.000E+00
      25     1     1     2     0     0  9.785154644E+01  1.385942308E+01  1.971683061E+02  2.535100584E+02  1.250000000E+02  0.00000E+00  9.000E+00
      25     1     1     2     0     0 -2.384936933E+02  5.707080703E+01  2.211004562E+02  3.530534386E+02  1.250000000E+02  0.00000E+00  9.000E+00
      21     1     1     2   501   512  1.406421469E+02 -7.093023011E+01  7.567494702E+02  7.729689979E+02  1.078959322E-05  0.00000E+00  9.000E+00
#rwgt            1           1   1.7491662228065159E-002           2      166234           0
</event>
<event>
      5   9999  3.79277E-02  7.06737E+01 -1.00000E+00  1.31010E-01
      21    -1     0     0   502   501  0.000000000E+00  0.000000000E+00  6.559487164E+02  6.559487164E+02  0.000000000E+00  0.00000E+00  9.000E+00
      21    -1     0     0   511   502  0.000000000E+00  0.000000000E+00 -1.319754541E+03  1.319754541E+03  0.000000000E+00  0.00000E+00  9.000E+00
      25     1     1     2     0     0  2.672852274E+01 -3.324343104E+01  3.453575592E+02  3.697517861E+02  1.250000000E+02  0.00000E+00  9.000E+00
      25     1     1     2     0     0 -7.277410120E+01  8.685851126E+01  2.734943651E+02  3.213481578E+02  1.250000000E+02  0.00000E+00  9.000E+00
      21     1     1     2   511   501  4.604557846E+01 -5.361508021E+01 -1.282657749E+03  1.284603313E+03  0.000000000E+00  0.00000E+00  9.000E+00
#rwgt            1           1   9.6951351631860735E-002           2      166292           0
</event>
<event>
      5   9999 -4.35103E-02  5.86199E+01 -1.00000E+00  1.35246E-01
      21    -1     0     0   512   501  0.000000000E+00  0.000000000E+00  7.487242250E+01  7.487242250E+01  0.000000000E+00  0.00000E+00  9.000E+00
      21    -1     0     0   501   502  0.000000000E+00  0.000000000E+00 -1.318940875E+03  1.318940875E+03  0.000000000E+00  0.00000E+00  9.000E+00
      25     1     1     2     0     0 -2.239650615E+02  6.447390522E+01 -3.286545332E+02  4.218483560E+02  1.250000000E+02  0.00000E+00  9.000E+00
      25     1     1     2     0     0  1.958716354E+02 -1.159234408E+02 -8.184827177E+02  8.586867303E+02  1.250000000E+02  0.00000E+00  9.000E+00
      21     1     1     2   512   502  2.809342611E+01  5.144953556E+01 -9.693120201E+01  1.132782116E+02  0.000000000E+00  0.00000E+00  9.000E+00
#rwgt            1           1 -0.48299896630637218                2      166454           0
</event>
<event>
      5   9999  3.79277E-02  1.57217E+02 -1.00000E+00  1.15590E-01
      21    -1     0     0   502   501  0.000000000E+00  0.000000000E+00  5.578429319E+02  5.578429319E+02  0.000000000E+00  0.00000E+00  9.000E+00
      21    -1     0     0   501   511  0.000000000E+00  0.000000000E+00 -1.649410891E+02  1.649410891E+02  0.000000000E+00  0.00000E+00  9.000E+00
      25     1     1     2     0     0 -1.057457552E+02 -4.955874751E+00 -2.236269167E+01  1.653233662E+02  1.250000000E+02  0.00000E+00  9.000E+00
      25     1     1     2     0     0 -5.079957754E+01 -9.564111757E+00  3.698586759E+02  3.938178633E+02  1.250000000E+02  0.00000E+00  9.000E+00
      21     1     1     2   502   511  1.565453327E+02  1.451998651E+01  4.540585866E+01  1.636427915E+02  3.015782986E-06  0.00000E+00  9.000E+00
#rwgt            1           1   3.9442943959933835E-002           2      166592           0
</event>
<event>
      5   9999  3.79277E-02  5.44895E+01 -1.00000E+00  1.36978E-01
      21    -1     0     0   502   501  0.000000000E+00  0.000000000E+00  5.668286086E+02  5.668286086E+02  0.000000000E+00  0.00000E+00  9.000E+00
      21    -1     0     0   512   502  0.000000000E+00  0.000000000E+00 -2.747968956E+02  2.747968956E+02  0.000000000E+00  0.00000E+00  9.000E+00
      25     1     1     2     0     0  1.245674073E+02  7.525343594E+01  6.487408964E+01  2.025185574E+02  1.250000000E+02  0.00000E+00  9.000E+00
      25     1     1     2     0     0 -1.546274601E+02 -2.980564492E+01  4.055101953E+02  4.526163346E+02  1.250000000E+02  0.00000E+00  9.000E+00
      21     1     1     2   512   501  3.006005286E+01 -4.544779102E+01 -1.783525720E+02  1.864906121E+02  5.046370146E-06  0.00000E+00  9.000E+00
#rwgt            1           1   4.0676769462390280E-002           2      166646           0
</event>
<event>
      5   9999 -3.79277E-02  5.19431E+01 -1.00000E+00  1.38137E-01
       1    -1     0     0   502     0  0.000000000E+00  0.000000000E+00  5.666903718E+02  5.666903718E+02  0.000000000E+00  0.00000E+00  9.000E+00
      21    -1     0     0   501   502  0.000000000E+00  0.000000000E+00 -8.595508635E+01  8.595508635E+01  0.000000000E+00  0.00000E+00  9.000E+00
      25     1     1     2     0     0  1.927319877E+01  1.244405686E+02  2.211662159E+02  2.835426006E+02  1.250000000E+02  0.00000E+00  9.000E+00
      25     1     1     2     0     0 -6.923913626E+01 -1.102457633E+02  1.113988381E+02  2.120916959E+02  1.250000000E+02  0.00000E+00  9.000E+00
       1     1     1     2   501     0  4.996593749E+01 -1.419480532E+01  1.481702314E+02  1.570111617E+02  1.907348633E-06  0.00000E+00  9.000E+00
#rwgt            1           1  -8.1095732918267369E-002           2      166742           0
</event>
<event>
      5   9999  3.79277E-02  4.52125E+01 -1.00000E+00  1.41616E-01
      21    -1     0     0   502   501  0.000000000E+00  0.000000000E+00  2.283149832E+02  2.283149832E+02  0.000000000E+00  0.00000E+00  9.000E+00
       2    -1     0     0   501     0  0.000000000E+00  0.000000000E+00 -1.910505910E+03  1.910505910E+03  0.000000000E+00  0.00000E+00  9.000E+00
      25     1     1     2     0     0  4.199197770E+00  1.321453834E+02 -7.250556072E+01  1.958624312E+02  1.250000000E+02  0.00000E+00  9.000E+00
      25     1     1     2     0     0 -3.341848062E+01 -9.764321432E+01  1.268514671E+02  2.058331530E+02  1.250000000E+02  0.00000E+00  9.000E+00
       2     1     1     2   502     0  2.921928285E+01 -3.450216909E+01 -1.736536833E+03  1.737125309E+03  2.157918644E-05  0.00000E+00  9.000E+00
#rwgt            1           1   2.8153392327452939E-002           2      166888           0
</event>
<event>
      5   9999  3.79277E-02  3.09179E+01 -1.00000E+00  1.52136E-01
      21    -1     0     0   502   501  0.000000000E+00  0.000000000E+00  4.320159451E+02  4.320159451E+02  0.000000000E+00  0.00000E+00  9.000E+00
      21    -1     0     0   511   502  0.000000000E+00  0.000000000E+00 -8.388805060E+01  8.388805060E+01  0.000000000E+00  0.00000E+00  9.000E+00
      25     1     1     2     0     0 -6.061332085E+01 -4.760640278E+01  2.502278910E+02  2.901367638E+02  1.250000000E+02  0.00000E+00  9.000E+00
      25     1     1     2     0     0  8.802673262E+01  6.190402197E+01  1.029583684E+02  1.944382658E+02  1.250000000E+02  0.00000E+00  9.000E+00
      21     1     1     2   511   501 -2.741341177E+01 -1.429761919E+01 -5.058364931E+00  3.132896607E+01  2.064765462E-07  0.00000E+00  9.000E+00
#rwgt            1           1   4.2277852671544748E-002           2      167087           0
</event>
<event>
      5   9999  3.79277E-02  2.63840E+01 -1.00000E+00  1.57018E-01
      21    -1     0     0   502   501  0.000000000E+00  0.000000000E+00  1.762464699E+03  1.762464699E+03  0.000000000E+00  0.00000E+00  9.000E+00
      21    -1     0     0   512   502  0.000000000E+00  0.000000000E+00 -3.242817722E+02  3.242817722E+02  0.000000000E+00  0.00000E+00  9.000E+00
      25     1     1     2     0     0  6.008440015E+01 -1.144545318E+02 -4.140863915E+01  1.845254735E+02  1.250000000E+02  0.00000E+00  9.000E+00
      25     1     1     2     0     0 -5.509240927E+01  1.403619704E+02  1.684385403E+03  1.695734603E+03  1.250000000E+02  0.00000E+00  9.000E+00
      21     1     1     2   512   501 -4.991990879E+00 -2.590743866E+01 -2.047938374E+02  2.064863947E+02  0.000000000E+00  0.00000E+00  9.000E+00
#rwgt            1           1  0.18530825474233553                2      167185           0
</event>
<event>
      5   9999  3.79277E-02  1.70228E+01 -1.00000E+00  1.72360E-01
      21    -1     0     0   511   501  0.000000000E+00  0.000000000E+00  1.939427421E+02  1.939427421E+02  0.000000000E+00  0.00000E+00  9.000E+00
      21    -1     0     0   501   502  0.000000000E+00  0.000000000E+00 -3.864272351E+02  3.864272351E+02  0.000000000E+00  0.00000E+00  9.000E+00
      25     1     1     2     0     0 -9.933940799E+01 -6.941492934E+01 -2.683054932E+02  3.198430679E+02  1.250000000E+02  0.00000E+00  9.000E+00
      25     1     1     2     0     0  8.233878132E+01  7.028373209E+01 -1.693061615E+01  1.662261221E+02  1.250000000E+02  0.00000E+00  9.000E+00
      21     1     1     2   511   502  1.700062667E+01 -8.688027443E-01  9.275161638E+01  9.430078720E+01  1.348699152E-06  0.00000E+00  9.000E+00
#rwgt            1           1   3.4619033640568571E-002           2      167341           0
</event>
<event>
      5   9999  3.79277E-02  2.74423E+01 -1.00000E+00  1.55777E-01
      21    -1     0     0   512   501  0.000000000E+00  0.000000000E+00  9.139131434E+02  9.139131434E+02  0.000000000E+00  0.00000E+00  9.000E+00
      21    -1     0     0   501   502  0.000000000E+00  0.000000000E+00 -1.386114249E+02  1.386114249E+02  0.000000000E+00  0.00000E+00  9.000E+00
      25     1     1     2     0     0  1.104155919E+02  7.542797200E+01  9.294613110E+01  2.052923895E+02  1.250000000E+02  0.00000E+00  9.000E+00
      25     1     1     2     0     0 -1.287817202E+02 -5.503768160E+01  2.508487151E+01  1.893888292E+02  1.250000000E+02  0.00000E+00  9.000E+00
      21     1     1     2   512   502  1.836612828E+01 -2.039029040E+01  6.572707159E+02  6.578433496E+02  0.000000000E+00  0.00000E+00  9.000E+00
#rwgt            1           1   3.5470990444918367E-002           2      167669           0
</event>
<event>
      5   9999  3.79277E-02  4.24169E+02 -1.00000E+00  1.00925E-01
      21    -1     0     0   502   511  0.000000000E+00  0.000000000E+00  3.873029793E+02  3.873029793E+02  0.000000000E+00  0.00000E+00  9.000E+00
      21    -1     0     0   501   502  0.000000000E+00  0.000000000E+00 -8.643986203E+02  8.643986203E+02  0.000000000E+00  0.00000E+00  9.000E+00
      25     1     1     2     0     0 -8.587306122E+01  1.628779935E+02 -1.182585336E+02  2.520188568E+02  1.250000000E+02  0.00000E+00  9.000E+00
      25     1     1     2     0     0  4.560220674E+02  4.426786655E+01 -3.222854744E+02  5.739413706E+02  1.250000000E+02  0.00000E+00  9.000E+00
      21     1     1     2   501   511 -3.701490061E+02 -2.071458600E+02 -3.655163300E+01  4.257413721E+02  7.184276187E-06  0.00000E+00  9.000E+00
#rwgt            2          11   6.5835747613511553E-004           2      167831           0
</event>
<event>
      5   9999 -3.79277E-02  7.58344E+00 -1.00000E+00  2.10754E-01
      21    -1     0     0   512   501  0.000000000E+00  0.000000000E+00  9.860383755E+01  9.860383755E+01  0.000000000E+00  0.00000E+00  9.000E+00
      21    -1     0     0   501   502  0.000000000E+00  0.000000000E+00 -3.937444555E+02  3.937444555E+02  0.000000000E+00  0.00000E+00  9.000E+00
      25     1     1     2     0     0 -9.388429243E+01  8.160557944E+01 -1.961357255E+02  2.637573767E+02  1.250000000E+02  0.00000E+00  9.000E+00
      25     1     1     2     0     0  9.672161554E+01 -7.457292494E+01 -1.161537417E+02  2.098401386E+02  1.250000000E+02  0.00000E+00  9.000E+00
      21     1     1     2   512   502 -2.837323103E+00 -7.032654505E+00  1.714884930E+01  1.875077770E+01  5.840038640E-07  0.00000E+00  9.000E+00
#rwgt            1           1 -0.15079344719139440                2      167851           0
</event>
<event>
      5   9999  3.79277E-02  3.02740E+02 -1.00000E+00  1.05464E-01
      21    -1     0     0   502   501  0.000000000E+00  0.000000000E+00  3.118221116E+02  3.118221116E+02  0.000000000E+00  0.00000E+00  9.000E+00
       2    -1     0     0   501     0  0.000000000E+00  0.000000000E+00 -2.610029442E+03  2.610029442E+03  0.000000000E+00  0.00000E+00  9.000E+00
      25     1     1     2     0     0 -2.869096302E+02  3.173386892E+02 -1.701879705E+02  4.770848194E+02  1.250000000E+02  0.00000E+00  9.000E+00
      25     1     1     2     0     0  2.386109149E+01 -4.671961702E+02 -2.546538256E+02  5.470970517E+02  1.250000000E+02  0.00000E+00  9.000E+00
       2     1     1     2   502     0  2.630485387E+02  1.498574810E+02 -1.873365534E+03  1.897669682E+03  2.157918644E-05  0.00000E+00  9.000E+00
#rwgt            1           1   9.4856351621277077E-002           2      168179           0
</event>
<event>
      5   9999  3.79277E-02  2.71666E+01 -1.00000E+00  1.56094E-01
      21    -1     0     0   502   511  0.000000000E+00  0.000000000E+00  6.025385819E+01  6.025385819E+01  0.000000000E+00  0.00000E+00  9.000E+00
      21    -1     0     0   501   502  0.000000000E+00  0.000000000E+00 -5.049544493E+02  5.049544493E+02  0.000000000E+00  0.00000E+00  9.000E+00
      25     1     1     2     0     0 -5.617498360E+01  5.874746071E+01 -1.435054534E+02  2.069437317E+02  1.250000000E+02  0.00000E+00  9.000E+00
      25     1     1     2     0     0  7.222623520E+01 -8.066511512E+01 -2.724576988E+02  3.187188220E+02  1.250000000E+02  0.00000E+00  9.000E+00
      21     1     1     2   501   511 -1.605125159E+01  2.191765441E+01 -2.873743891E+01  3.954575385E+01  4.768371582E-07  0.00000E+00  9.000E+00
#rwgt            1           1   5.7885515626277417E-002           2      168312           0
</event>
<event>
      5   9999  3.79277E-02  1.41471E+02 -1.00000E+00  1.17410E-01
       2    -1     0     0   502     0  0.000000000E+00  0.000000000E+00  1.216638673E+03  1.216638673E+03  0.000000000E+00  0.00000E+00  9.000E+00
      21    -1     0     0   501   502  0.000000000E+00  0.000000000E+00 -7.527335709E+01  7.527335709E+01  0.000000000E+00  0.00000E+00  9.000E+00
      25     1     1     2     0     0  3.142448138E+01 -1.060256651E+02  3.729740403E+02  4.086117649E+02  1.250000000E+02  0.00000E+00  9.000E+00
      25     1     1     2     0     0  4.840578978E+00  2.427695186E+02  3.652897233E+02  4.560943458E+02  1.250000000E+02  0.00000E+00  9.000E+00
       2     1     1     2   501     0 -3.626506036E+01 -1.367438534E+02  4.031015528E+02  4.272059198E+02  0.000000000E+00  0.00000E+00  9.000E+00
#rwgt            1           1   4.0216768823720918E-002           2      168425           0
</event>
<event>
      5   9999  3.79277E-02  3.90447E+01 -1.00000E+00  1.45494E-01
      21    -1     0     0   502   501  0.000000000E+00  0.000000000E+00  2.236222119E+02  2.236222119E+02  0.000000000E+00  0.00000E+00  9.000E+00
      21    -1     0     0   511   502  0.000000000E+00  0.000000000E+00 -1.827159939E+02  1.827159939E+02  0.000000000E+00  0.00000E+00  9.000E+00
      25     1     1     2     0     0 -1.680560054E+01 -1.225075468E+02  1.045614129E+02  2.045693435E+02  1.250000000E+02  0.00000E+00  9.000E+00
      25     1     1     2     0     0  1.257758256E+00  8.669200246E+01 -4.608146993E+01  1.589515244E+02  1.250000000E+02  0.00000E+00  9.000E+00
      21     1     1     2   511   501  1.554784228E+01  3.581554432E+01 -1.757372496E+01  4.281733788E+01  7.152557373E-07  0.00000E+00  9.000E+00
#rwgt            2          11   2.7002580949611783E-003           2      168656           0
</event>
<event>
      5   9999  3.79277E-02  1.17117E+01 -1.00000E+00  1.88145E-01
      21    -1     0     0   512   501  0.000000000E+00  0.000000000E+00  1.433360979E+02  1.433360979E+02  0.000000000E+00  0.00000E+00  9.000E+00
      21    -1     0     0   501   502  0.000000000E+00  0.000000000E+00 -7.391021897E+02  7.391021897E+02  0.000000000E+00  0.00000E+00  9.000E+00
      25     1     1     2     0     0  1.425457617E+02  2.102469535E+02 -3.306094749E+02  4.352593486E+02  1.250000000E+02  0.00000E+00  9.000E+00
      25     1     1     2     0     0 -1.465414085E+02 -2.212560011E+02 -2.944461787E+02  4.156346407E+02  1.250000000E+02  0.00000E+00  9.000E+00
      21     1     1     2   512   502  3.995646719E+00  1.100904760E+01  2.928956179E+01  3.154429824E+01  6.743495762E-07  0.00000E+00  9.000E+00
#rwgt            1           1   2.8077849132749837E-002           2      168676           0
</event>
<event>
      5   9999  3.79277E-02  2.04079E+01 -1.00000E+00  1.65649E-01
      21    -1     0     0   502   501  0.000000000E+00  0.000000000E+00  6.328043942E+01  6.328043942E+01  0.000000000E+00  0.00000E+00  9.000E+00
      21    -1     0     0   501   511  0.000000000E+00  0.000000000E+00 -7.484738351E+02  7.484738351E+02  0.000000000E+00  0.00000E+00  9.000E+00
      25     1     1     2     0     0  4.831027188E+01  1.525294844E+02 -3.130369908E+02  3.731169838E+02  1.250000000E+02  0.00000E+00  9.000E+00
      25     1     1     2     0     0 -6.827302614E+01 -1.482903762E+02 -3.003470717E+02  3.639843475E+02  1.250000000E+02  0.00000E+00  9.000E+00
      21     1     1     2   502   511  1.996275426E+01 -4.239108221E+00 -7.180933317E+01  7.465294319E+01  0.000000000E+00  0.00000E+00  9.000E+00
#rwgt            1           1   3.8650571866268926E-002           2      168980           0
</event>
<event>
      5   9999  3.79277E-02  8.80569E+01 -1.00000E+00  1.26364E-01
      21    -1     0     0   502   501  0.000000000E+00  0.000000000E+00  7.743951506E+02  7.743951506E+02  0.000000000E+00  0.00000E+00  9.000E+00
      21    -1     0     0   512   502  0.000000000E+00  0.000000000E+00 -1.033733836E+02  1.033733836E+02  0.000000000E+00  0.00000E+00  9.000E+00
      25     1     1     2     0     0  4.110832406E+01  9.900833528E+01  2.205110689E+02  2.752138737E+02  1.250000000E+02  0.00000E+00  9.000E+00
      25     1     1     2     0     0  2.548744517E+01 -1.566193261E+02  4.706994523E+02  5.122130392E+02  1.250000000E+02  0.00000E+00  9.000E+00
      21     1     1     2   512   501 -6.659576923E+01  5.761099080E+01 -2.018875420E+01  9.034162128E+01  1.261592536E-06  0.00000E+00  9.000E+00
#rwgt            1           1   3.9494293369255147E-002           2      169285           0
</event>
<event>
      5   9999  3.79277E-02  1.63934E+01 -1.00000E+00  1.73825E-01
      21    -1     0     0   502   511  0.000000000E+00  0.000000000E+00  1.540049800E+03  1.540049800E+03  0.000000000E+00  0.00000E+00  9.000E+00
      21    -1     0     0   501   502  0.000000000E+00  0.000000000E+00 -8.015515900E+01  8.015515900E+01  0.000000000E+00  0.00000E+00  9.000E+00
      25     1     1     2     0     0 -9.984690518E+01 -8.116901007E+01  2.399076915E+02  2.995638715E+02  1.250000000E+02  0.00000E+00  9.000E+00
      25     1     1     2     0     0  1.155533540E+02  7.647305503E+01  1.229418248E+02  2.234734840E+02  1.250000000E+02  0.00000E+00  9.000E+00
      21     1     1     2   501   511 -1.570644882E+01  4.695955038E+00  1.097045125E+03  1.097167604E+03  0.000000000E+00  0.00000E+00  9.000E+00
#rwgt            1           1   4.2684352519125966E-002           2      169408           0
</event>
<event>
      5   9999  3.79277E-02  4.69967E+01 -1.00000E+00  1.40628E-01
      21    -1     0     0   512   501  0.000000000E+00  0.000000000E+00  3.773347457E+02  3.773347457E+02  0.000000000E+00  0.00000E+00  9.000E+00
      21    -1     0     0   501   502  0.000000000E+00  0.000000000E+00 -1.698295952E+02  1.698295952E+02  0.000000000E+00  0.00000E+00  9.000E+00
      25     1     1     2     0     0 -7.239171205E+01  1.125148760E+02  9.886652614E+01  2.080859132E+02  1.250000000E+02  0.00000E+00  9.000E+00
      25     1     1     2     0     0  4.040653440E+01 -1.469480040E+02 -2.380861461E+01  1.985403083E+02  1.250000000E+02  0.00000E+00  9.000E+00
      21     1     1     2   512   502  3.198517765E+01  3.443312801E+01  1.324472390E+02  1.405381194E+02  1.907348633E-06  0.00000E+00  9.000E+00
#rwgt            1           1   3.2649737938411152E-002           2      169535           0
</event>
<event>
      5   9999  3.79277E-02  3.06513E+01 -1.00000E+00  1.52395E-01
      21    -1     0     0   502   501  0.000000000E+00  0.000000000E+00  1.735624533E+02  1.735624533E+02  0.000000000E+00  0.00000E+00  9.000E+00
      21    -1     0     0   501   511  0.000000000E+00  0.000000000E+00 -6.791478364E+02  6.791478364E+02  0.000000000E+00  0.00000E+00  9.000E+00
      25     1     1     2     0     0 -1.791949969E+02 -9.201977445E+01  1.834095825E+01  2.377811526E+02  1.250000000E+02  0.00000E+00  9.000E+00
      25     1     1     2     0     0  1.815455429E+02  1.225808462E+02 -3.138617423E+02  4.026400890E+02  1.250000000E+02  0.00000E+00  9.000E+00
      21     1     1     2   502   511 -2.350546026E+00 -3.056107174E+01 -2.100645991E+02  2.122890481E+02  3.814697266E-06  0.00000E+00  9.000E+00
#rwgt            1           1   4.4476083007660108E-002           2      169685           0
</event>
<event>
      5   9999  3.79277E-02  5.36255E+01 -1.00000E+00  1.37363E-01
      21    -1     0     0   502   512  0.000000000E+00  0.000000000E+00  9.314057521E+02  9.314057521E+02  0.000000000E+00  0.00000E+00  9.000E+00
      21    -1     0     0   501   502  0.000000000E+00  0.000000000E+00 -5.653889807E+01  5.653889807E+01  0.000000000E+00  0.00000E+00  9.000E+00
      25     1     1     2     0     0 -1.546972782E+02  2.882847066E+01  4.405704616E+02  4.842413244E+02  1.250000000E+02  0.00000E+00  9.000E+00
      25     1     1     2     0     0  1.117273577E+02 -6.091082271E+01  2.222398509E+02  2.849713707E+02  1.250000000E+02  0.00000E+00  9.000E+00
      21     1     1     2   501   512  4.296992046E+01  3.208235204E+01  2.120565415E+02  2.187319551E+02  4.672030912E-06  0.00000E+00  9.000E+00
#rwgt            1           1   3.6050270501637706E-002           2      169886           0
</event>
<event>
      5   9999  3.79277E-02  6.78671E+01 -1.00000E+00  1.31905E-01
      21    -1     0     0   502   501  0.000000000E+00  0.000000000E+00  1.253718696E+02  1.253718696E+02  0.000000000E+00  0.00000E+00  9.000E+00
       2    -1     0     0   501     0  0.000000000E+00  0.000000000E+00 -8.087606556E+02  8.087606556E+02  0.000000000E+00  0.00000E+00  9.000E+00
      25     1     1     2     0     0 -1.646049300E+02  4.080369565E+01 -3.647026327E+01  2.138102071E+02  1.250000000E+02  0.00000E+00  9.000E+00
      25     1     1     2     0     0  1.422726739E+02  2.328389948E+01 -2.343365966E+02  3.021957879E+02  1.250000000E+02  0.00000E+00  9.000E+00
       2     1     1     2   502     0  2.233225605E+01 -6.408759513E+01 -4.125819262E+02  4.181265302E+02  5.394796609E-06  0.00000E+00  9.000E+00
#rwgt            1           1   2.4996653230992930E-002           2      169982           0
</event>
<event>
      5   9999  3.79277E-02  8.45295E+01 -1.00000E+00  1.27202E-01
      21    -1     0     0   502   511  0.000000000E+00  0.000000000E+00  2.636989107E+02  2.636989107E+02  0.000000000E+00  0.00000E+00  9.000E+00
      21    -1     0     0   501   502  0.000000000E+00  0.000000000E+00 -3.007581126E+02  3.007581126E+02  0.000000000E+00  0.00000E+00  9.000E+00
      25     1     1     2     0     0 -2.448269542E+01  1.487340587E+02  6.486341238E+01  2.062849603E+02  1.250000000E+02  0.00000E+00  9.000E+00
      25     1     1     2     0     0 -5.924576819E+01 -1.371242229E+02 -1.629209324E+02  2.539317699E+02  1.250000000E+02  0.00000E+00  9.000E+00
      21     1     1     2   501   511  8.372846361E+01 -1.160983585E+01  6.099831807E+01  1.042402931E+02  1.507891493E-06  0.00000E+00  9.000E+00
#rwgt            1           1   3.4696641800376786E-002           2      170109           0
</event>
<event>
      5   9999  3.79277E-02  2.23857E+01 -1.00000E+00  1.62430E-01
      -1    -1     0     0     0   501  0.000000000E+00  0.000000000E+00  4.066993726E+02  4.066993726E+02  0.000000000E+00  0.00000E+00  9.000E+00
      21    -1     0     0   501   502  0.000000000E+00  0.000000000E+00 -2.883624943E+02  2.883624943E+02  0.000000000E+00  0.00000E+00  9.000E+00
      25     1     1     2     0     0  1.552709124E+02 -7.069184831E+01  1.091079583E+02  2.379830670E+02  1.250000000E+02  0.00000E+00  9.000E+00
      25     1     1     2     0     0 -1.542887562E+02  9.305599340E+01 -1.693689162E+02  2.770835036E+02  1.250000000E+02  0.00000E+00  9.000E+00
      -1     1     1     2     0   502 -9.821562032E-01 -2.236414509E+01  1.785978362E+02  1.799952964E+02  1.907348633E-06  0.00000E+00  9.000E+00
#rwgt            1           1   6.9043731043307383E-002           2      170269           0
</event>
<event>
      5   9999  3.79277E-02  1.52826E+01 -1.00000E+00  1.76623E-01
      21    -1     0     0   502   511  0.000000000E+00  0.000000000E+00  8.190465886E+02  8.190465886E+02  0.000000000E+00  0.00000E+00  9.000E+00
      21    -1     0     0   501   502  0.000000000E+00  0.000000000E+00 -6.741381632E+01  6.741381632E+01  0.000000000E+00  0.00000E+00  9.000E+00
      25     1     1     2     0     0  3.242756715E+01  1.590207376E+02  4.845539822E+02  5.260767090E+02  1.250000000E+02  0.00000E+00  9.000E+00
      25     1     1     2     0     0 -4.468728787E+01 -1.681452566E+02  2.052193072E+02  2.966643643E+02  1.250000000E+02  0.00000E+00  9.000E+00
      21     1     1     2   501   511  1.225972072E+01  9.124518988E+00  6.185948287E+01  6.371933160E+01  9.536743164E-07  0.00000E+00  9.000E+00
#rwgt            1           1   3.9391466725774087E-002           2      170783           0
</event>
<event>
      5   9999  3.79277E-02  1.75580E+02 -1.00000E+00  1.13746E-01
      21    -1     0     0   502   512  0.000000000E+00  0.000000000E+00  2.195673892E+03  2.195673892E+03  0.000000000E+00  0.00000E+00  9.000E+00
      21    -1     0     0   501   502  0.000000000E+00  0.000000000E+00 -3.027452272E+02  3.027452272E+02  0.000000000E+00  0.00000E+00  9.000E+00
      25     1     1     2     0     0  2.486178021E+01  6.365917921E+01  3.016691880E+01  1.456215719E+02  1.250000000E+02  0.00000E+00  9.000E+00
      25     1     1     2     0     0  1.185352214E+02  3.766013978E+01 -2.090903151E+02  2.735190024E+02  1.250000000E+02  0.00000E+00  9.000E+00
      21     1     1     2   501   512 -1.433970016E+02 -1.013193190E+02  2.071852061E+03  2.079278545E+03  0.000000000E+00  0.00000E+00  9.000E+00
#rwgt            2          11   8.2918762242386989E-003           2      170918           0
</event>
<event>
      5   9999  3.79277E-02  4.94476E+01 -1.00000E+00  1.39351E-01
      21    -1     0     0   502   501  0.000000000E+00  0.000000000E+00  1.032021857E+02  1.032021857E+02  0.000000000E+00  0.00000E+00  9.000E+00
       3    -1     0     0   501     0  0.000000000E+00  0.000000000E+00 -7.605897805E+02  7.605897805E+02  0.000000000E+00  0.00000E+00  9.000E+00
      25     1     1     2     0     0  4.850371501E+01  4.984868349E+01 -1.981096168E+02  2.443561374E+02  1.250000000E+02  0.00000E+00  9.000E+00
      25     1     1     2     0     0 -9.168055858E+01 -7.394902383E+01 -1.499038122E+01  1.724050303E+02  1.250000000E+02  0.00000E+00  9.000E+00
       3     1     1     2   502     0  4.317684357E+01  2.410034033E+01 -4.442875967E+02  4.470307985E+02  0.000000000E+00  0.00000E+00  9.000E+00
#rwgt            1           1   4.3776602473032895E-002           2      170953           0
</event>
<event>
      5   9999  3.79277E-02  8.30381E+01 -1.00000E+00  1.27571E-01
      21    -1     0     0   502   501  0.000000000E+00  0.000000000E+00  1.607097922E+02  1.607097922E+02  0.000000000E+00  0.00000E+00  9.000E+00
      21    -1     0     0   501   511  0.000000000E+00  0.000000000E+00 -2.328745715E+03  2.328745715E+03  0.000000000E+00  0.00000E+00  9.000E+00
      25     1     1     2     0     0  7.362599075E+01 -1.698092348E+01  1.030702787E+01  1.464253158E+02  1.250000000E+02  0.00000E+00  9.000E+00
      25     1     1     2     0     0 -3.123442455E+01  8.838320567E+01  6.721491018E+00  1.563884867E+02  1.250000000E+02  0.00000E+00  9.000E+00
      21     1     1     2   502   511 -4.239156620E+01 -7.140228219E+01 -2.185064442E+03  2.186641705E+03  3.051757812E-05  0.00000E+00  9.000E+00
#rwgt            1           1   6.6154065254207015E-002           2      171099           0
</event>
<event>
      5   9999  3.79277E-02  1.06361E+02 -1.00000E+00  1.22635E-01
      21    -1     0     0   502   501  0.000000000E+00  0.000000000E+00  2.713700601E+02  2.713700601E+02  0.000000000E+00  0.00000E+00  9.000E+00
      21    -1     0     0   501   512  0.000000000E+00  0.000000000E+00 -3.896351609E+02  3.896351609E+02  0.000000000E+00  0.00000E+00  9.000E+00
      25     1     1     2     0     0  3.226546203E+01  1.012486392E+02  1.456238823E+02  2.193710602E+02  1.250000000E+02  0.00000E+00  9.000E+00
      25     1     1     2     0     0 -1.320893941E+02 -6.453550188E+01 -4.481474142E+01  1.981055276E+02  1.250000000E+02  0.00000E+00  9.000E+00
      21     1     1     2   502   512  9.982393202E+01 -3.671313727E+01 -2.190742416E+02  2.435286332E+02  2.697398305E-06  0.00000E+00  9.000E+00
#rwgt            1           1   3.4725921259584791E-002           2      171174           0
</event>
<event>
      5   9999  3.79277E-02  1.22478E+02 -1.00000E+00  1.19993E-01
      21    -1     0     0   502   501  0.000000000E+00  0.000000000E+00  1.343188359E+02  1.343188359E+02  0.000000000E+00  0.00000E+00  9.000E+00
      21    -1     0     0   501   511  0.000000000E+00  0.000000000E+00 -1.373797872E+03  1.373797872E+03  0.000000000E+00  0.00000E+00  9.000E+00
      25     1     1     2     0     0  9.555182437E+01 -2.248255164E+02 -1.410374753E+02  3.085340069E+02  1.250000000E+02  0.00000E+00  9.000E+00
      25     1     1     2     0     0 -2.162655637E+02  2.455384191E+02 -7.000052560E+02  7.827466178E+02  1.250000000E+02  0.00000E+00  9.000E+00
      21     1     1     2   502   511  1.207137393E+02 -2.071290262E+01 -3.984363051E+02  4.168360834E+02  5.394796609E-06  0.00000E+00  9.000E+00
#rwgt            1           1   2.6363741442646745E-002           2      171232           0
</event>
<event>
      5   9999  3.79277E-02  8.06470E+01 -1.00000E+00  1.28180E-01
      21    -1     0     0   502   512  0.000000000E+00  0.000000000E+00  1.985786672E+02  1.985786672E+02  0.000000000E+00  0.00000E+00  9.000E+00
      21    -1     0     0   501   502  0.000000000E+00  0.000000000E+00 -3.148833780E+02  3.148833780E+02  0.000000000E+00  0.00000E+00  9.000E+00
      25     1     1     2     0     0 -1.754327097E+01  1.398302025E+02 -9.002487018E+01  2.087815344E+02  1.250000000E+02  0.00000E+00  9.000E+00
      25     1     1     2     0     0 -6.254123807E+01 -1.493384767E+02 -6.580450953E+01  2.148688450E+02  1.250000000E+02  0.00000E+00  9.000E+00
      21     1     1     2   501   512  8.008450904E+01  9.508274193E+00  3.952466894E+01  8.981166584E+01  1.507891493E-06  0.00000E+00  9.000E+00
#rwgt            1           1   4.4756223656838963E-002           2      171321           0
</event>
<event>
      5   9999  3.79277E-02  5.79492E+01 -1.00000E+00  1.35515E-01
      21    -1     0     0   511   501  0.000000000E+00  0.000000000E+00  1.786653188E+02  1.786653188E+02  0.000000000E+00  0.00000E+00  9.000E+00
      21    -1     0     0   501   502  0.000000000E+00  0.000000000E+00 -7.078132292E+02  7.078132292E+02  0.000000000E+00  0.00000E+00  9.000E+00
      25     1     1     2     0     0 -2.493281852E+02 -6.484151158E+01 -3.656606108E+02  4.644369149E+02  1.250000000E+02  0.00000E+00  9.000E+00
      25     1     1     2     0     0  2.636507471E+02  8.690134253E+00 -1.997220698E+02  3.536963953E+02  1.250000000E+02  0.00000E+00  9.000E+00
      21     1     1     2   511   502 -1.432256192E+01  5.615137733E+01  3.623477019E+01  6.834523777E+01  1.261592536E-06  0.00000E+00  9.000E+00
#rwgt            1           1   3.3002298461081360E-002           2      171498           0
</event>
<event>
      5   9999  3.79277E-02  1.68481E+01 -1.00000E+00  1.72758E-01
      21    -1     0     0   502   501  0.000000000E+00  0.000000000E+00  1.142909609E+02  1.142909609E+02  0.000000000E+00  0.00000E+00  9.000E+00
      21    -1     0     0   501   512  0.000000000E+00  0.000000000E+00 -8.456501088E+02  8.456501088E+02  0.000000000E+00  0.00000E+00  9.000E+00
      25     1     1     2     0     0 -2.398260178E+01 -1.770021565E+02 -2.727445417E+02  3.491697490E+02  1.250000000E+02  0.00000E+00  9.000E+00
      25     1     1     2     0     0  2.550879740E+01  1.602232974E+02 -6.226773856E+01  2.140665201E+02  1.250000000E+02  0.00000E+00  9.000E+00
      21     1     1     2   502   512 -1.526195621E+00  1.677885906E+01 -3.963468676E+02  3.967048007E+02  0.000000000E+00  0.00000E+00  9.000E+00
#rwgt            1           1   4.6055836725256295E-002           2      171578           0
</event>
<event>
      5   9999  3.79277E-02  1.17708E+02 -1.00000E+00  1.20725E-01
      21    -1     0     0   511   501  0.000000000E+00  0.000000000E+00  2.574478429E+02  2.574478429E+02  0.000000000E+00  0.00000E+00  9.000E+00
      21    -1     0     0   501   502  0.000000000E+00  0.000000000E+00 -3.036375796E+02  3.036375796E+02  0.000000000E+00  0.00000E+00  9.000E+00
      25     1     1     2     0     0  1.076413576E+01 -6.897235642E+01 -2.055287141E+02  2.504797494E+02  1.250000000E+02  0.00000E+00  9.000E+00
      25     1     1     2     0     0  8.076850177E+01 -5.034298193E+00  8.986236488E+01  1.739227980E+02  1.250000000E+02  0.00000E+00  9.000E+00
      21     1     1     2   511   502 -9.153263753E+01  7.400665462E+01  6.947661255E+01  1.366828751E+02  1.348699152E-06  0.00000E+00  9.000E+00
#rwgt            1           1   3.9867399812846809E-002           2      171853           0
</event>
<event>
      5   9999  3.79277E-02  1.28503E+02 -1.00000E+00  1.19120E-01
      -1    -1     0     0     0   501  0.000000000E+00  0.000000000E+00  4.725640813E+02  4.725640813E+02  0.000000000E+00  0.00000E+00  9.000E+00
      21    -1     0     0   501   502  0.000000000E+00  0.000000000E+00 -7.086043828E+02  7.086043828E+02  0.000000000E+00  0.00000E+00  9.000E+00
      25     1     1     2     0     0  7.024470079E+00  2.064306587E+02 -6.883537340E+01  2.510503310E+02  1.250000000E+02  0.00000E+00  9.000E+00
      25     1     1     2     0     0  1.155978330E+02 -1.680022066E+02 -5.103929058E+02  5.636608188E+02  1.250000000E+02  0.00000E+00  9.000E+00
      -1     1     1     2     0   502 -1.226223031E+02 -3.842845211E+01  3.431879777E+02  3.664573143E+02  9.344061824E-06  0.00000E+00  9.000E+00
#rwgt            1           1   2.8378739263849241E-002           2      171938           0
</event>
<event>
      5   9999  3.79277E-02  7.41851E+01 -1.00000E+00  1.29956E-01
      21    -1     0     0   502   501  0.000000000E+00  0.000000000E+00  7.138246245E+02  7.138246245E+02  0.000000000E+00  0.00000E+00  9.000E+00
      21    -1     0     0   511   502  0.000000000E+00  0.000000000E+00 -2.718922925E+02  2.718922925E+02  0.000000000E+00  0.00000E+00  9.000E+00
      25     1     1     2     0     0 -8.312746081E+01  7.064011359E+01  5.125655758E+02  5.387473155E+02  1.250000000E+02  0.00000E+00  9.000E+00
      25     1     1     2     0     0  1.313247692E+01 -9.521908986E+01  1.478980898E+02  2.161896898E+02  1.250000000E+02  0.00000E+00  9.000E+00
      21     1     1     2   511   501  6.999498389E+01  2.457897627E+01 -2.185313337E+02  2.307799117E+02  4.672030912E-06  0.00000E+00  9.000E+00
#rwgt            1           1   5.4030739800837328E-002           2      172058           0
</event>
<event>
      5   9999  3.79277E-02  1.10323E+02 -1.00000E+00  1.21939E-01
      21    -1     0     0   512   501  0.000000000E+00  0.000000000E+00  2.565162287E+02  2.565162287E+02  0.000000000E+00  0.00000E+00  9.000E+00
      21    -1     0     0   501   502  0.000000000E+00  0.000000000E+00 -3.277586758E+02  3.277586758E+02  0.000000000E+00  0.00000E+00  9.000E+00
      25     1     1     2     0     0  6.130671193E+01 -1.944234089E+02 -2.761495760E+01  2.407209188E+02  1.250000000E+02  0.00000E+00  9.000E+00
      25     1     1     2     0     0  3.065443024E+01  1.334779887E+02 -1.092266822E+02  2.152011516E+02  1.250000000E+02  0.00000E+00  9.000E+00
      21     1     1     2   512   502 -9.196114217E+01  6.094542024E+01  6.559919279E+01  1.283528341E+02  1.907348633E-06  0.00000E+00  9.000E+00
#rwgt            1           1   3.6841974575451082E-002           2      172192           0
</event>
<event>
      5   9999  3.79277E-02  8.50931E+01 -1.00000E+00  1.27065E-01
      21    -1     0     0   502   501  0.000000000E+00  0.000000000E+00  1.939634114E+02  1.939634114E+02  0.000000000E+00  0.00000E+00  9.000E+00
      21    -1     0     0   501   511  0.000000000E+00  0.000000000E+00 -5.694922512E+02  5.694922512E+02  0.000000000E+00  0.00000E+00  9.000E+00
      25     1     1     2     0     0  2.430693491E+01  1.196012598E+02 -1.399807767E+02  2.238635886E+02  1.250000000E+02  0.00000E+00  9.000E+00
      25     1     1     2     0     0 -1.057394198E+02 -9.491156304E+01  8.535099786E+01  2.076025591E+02  1.250000000E+02  0.00000E+00  9.000E+00
      21     1     1     2   502   511  8.143248486E+01 -2.468969677E+01 -3.208990609E+02  3.319895149E+02  3.814697266E-06  0.00000E+00  9.000E+00
#rwgt            1           1   4.4552037093222654E-002           2      172389           0
</event>
<event>
      5   9999  3.79277E-02  4.20994E+01 -1.00000E+00  1.43476E-01
      21    -1     0     0   502   501  0.000000000E+00  0.000000000E+00  2.028282066E+02  2.028282066E+02  0.000000000E+00  0.00000E+00  9.000E+00
      21    -1     0     0   501   512  0.000000000E+00  0.000000000E+00 -4.316977565E+02  4.316977565E+02  0.000000000E+00  0.00000E+00  9.000E+00
      25     1     1     2     0     0  3.657886566E+01  9.690522941E+01  1.181770978E+02  2.007970701E+02  1.250000000E+02  0.00000E+00  9.000E+00
      25     1     1     2     0     0 -7.851098353E+01 -1.006549714E+02 -1.531656787E+02  2.353298174E+02  1.250000000E+02  0.00000E+00  9.000E+00
      21     1     1     2   502   512  4.193211787E+01  3.749741992E+00 -1.938809690E+02  1.983990756E+02  2.697398305E-06  0.00000E+00  9.000E+00
#rwgt            1           1   3.3138955708558418E-002           2      172472           0
</event>
<event>
      5   9999  3.79277E-02  1.06612E+02 -1.00000E+00  1.22590E-01
      21    -1     0     0   502   511  0.000000000E+00  0.000000000E+00  2.533713987E+02  2.533713987E+02  0.000000000E+00  0.00000E+00  9.000E+00
      21    -1     0     0   501   502  0.000000000E+00  0.000000000E+00 -3.668072533E+02  3.668072533E+02  0.000000000E+00  0.00000E+00  9.000E+00
      25     1     1     2     0     0  7.345113046E+01 -3.404615982E+00 -4.881758951E+01  1.530190087E+02  1.250000000E+02  0.00000E+00  9.000E+00
      25     1     1     2     0     0 -1.795547242E+02  1.380607059E+01 -1.986942686E+02  2.958630071E+02  1.250000000E+02  0.00000E+00  9.000E+00
      21     1     1     2   501   511  1.061035937E+02 -1.040145461E+01  1.340760035E+02  1.712966362E+02  1.907348633E-06  0.00000E+00  9.000E+00
#rwgt            1           1   3.6631374942484210E-002           2      172636           0
</event>
<event>
      5   9999  3.79277E-02  3.10804E+01 -1.00000E+00  1.51980E-01
      21    -1     0     0   502   501  0.000000000E+00  0.000000000E+00  4.103078315E+02  4.103078315E+02  0.000000000E+00  0.00000E+00  9.000E+00
      21    -1     0     0   501   512  0.000000000E+00  0.000000000E+00 -7.628515774E+01  7.628515774E+01  0.000000000E+00  0.00000E+00  9.000E+00
      25     1     1     2     0     0  9.642742819E+01 -1.564840162E+01  2.397409810E+02  2.874784502E+02  1.250000000E+02  0.00000E+00  9.000E+00
      25     1     1     2     0     0 -6.542395205E+01  1.346297208E+01  8.962359339E+01  1.676870109E+02  1.250000000E+02  0.00000E+00  9.000E+00
      21     1     1     2   502   512 -3.100347614E+01  2.185429533E+00  4.658099352E+00  3.142752813E+01  3.816559456E-07  0.00000E+00  9.000E+00
#rwgt            1           1   4.3482244638661342E-002           2      172726           0
</event>
<event>
      5   9999  3.79277E-02  2.66746E+01 -1.00000E+00  1.56670E-01
      21    -1     0     0   502   501  0.000000000E+00  0.000000000E+00  5.192994940E+02  5.192994940E+02  0.000000000E+00  0.00000E+00  9.000E+00
      21    -1     0     0   511   502  0.000000000E+00  0.000000000E+00 -1.011485756E+02  1.011485756E+02  0.000000000E+00  0.00000E+00  9.000E+00
      25     1     1     2     0     0 -2.307274711E+01 -1.670416697E+01  4.388186462E+02  4.571631931E+02  1.250000000E+02  0.00000E+00  9.000E+00
      25     1     1     2     0     0  3.812952942E+01 -5.314693156E+00 -2.148416704E+00  1.308117834E+02  1.250000000E+02  0.00000E+00  9.000E+00
      21     1     1     2   511   501 -1.505678231E+01  2.201886012E+01 -1.851931110E+01  3.247309314E+01  5.331201500E-07  0.00000E+00  9.000E+00
#rwgt            1           1   2.4014640011653605E-002           2      172844           0
</event>
<event>
      5   9999  3.79277E-02  9.00181E+01 -1.00000E+00  1.25917E-01
      21    -1     0     0   512   501  0.000000000E+00  0.000000000E+00  3.478283031E+02  3.478283031E+02  0.000000000E+00  0.00000E+00  9.000E+00
      21    -1     0     0   501   502  0.000000000E+00  0.000000000E+00 -3.465998850E+02  3.465998850E+02  0.000000000E+00  0.00000E+00  9.000E+00
      25     1     1     2     0     0 -9.868583797E+01 -7.015859268E+01 -5.925589401E+01  1.838406476E+02  1.250000000E+02  0.00000E+00  9.000E+00
      25     1     1     2     0     0  1.720942078E+02  1.805795150E+01 -1.636985184E+02  2.690068975E+02  1.250000000E+02  0.00000E+00  9.000E+00
      21     1     1     2   512   502 -7.340836982E+01  5.210064117E+01  2.241828305E+02  2.415806430E+02  0.000000000E+00  0.00000E+00  9.000E+00
#rwgt            1           1   4.2142319047925321E-002           2      172988           0
</event>
<event>
      5   9999  3.79277E-02  5.83538E+01 -1.00000E+00  1.35352E-01
      21    -1     0     0   502   511  0.000000000E+00  0.000000000E+00  3.854681971E+01  3.854681971E+01  0.000000000E+00  0.00000E+00  9.000E+00
      21    -1     0     0   501   502  0.000000000E+00  0.000000000E+00 -1.235632346E+03  1.235632346E+03  0.000000000E+00  0.00000E+00  9.000E+00
      25     1     1     2     0     0  8.840673641E+01 -1.043571353E+01 -8.164076317E+02  8.307051681E+02  1.250000000E+02  0.00000E+00  9.000E+00
      25     1     1     2     0     0 -8.171464906E+01  6.840452830E+01 -2.366192819E+02  2.880453921E+02  1.250000000E+02  0.00000E+00  9.000E+00
      21     1     1     2   501   511 -6.692087350E+00 -5.796881477E+01 -1.440586129E+02  1.554286057E+02  2.697398305E-06  0.00000E+00  9.000E+00
#rwgt            1           1   4.4292955209857210E-002           2      173078           0
</event>
<event>
      5   9999  3.79277E-02  2.55440E+01 -1.00000E+00  1.58054E-01
      21    -1     0     0   502   501  0.000000000E+00  0.000000000E+00  3.216162266E+02  3.216162266E+02  0.000000000E+00  0.00000E+00  9.000E+00
       2    -1     0     0   501     0  0.000000000E+00  0.000000000E+00 -9.375544482E+02  9.375544482E+02  0.000000000E+00  0.00000E+00  9.000E+00
      25     1     1     2     0     0 -3.805903597E+01 -1.177500957E+02  1.844616310E+02  2.548816756E+02  1.250000000E+02  0.00000E+00  9.000E+00
      25     1     1     2     0     0  5.112403534E+01  9.580012877E+01  3.438669475E+01  1.691117277E+02  1.250000000E+02  0.00000E+00  9.000E+00
       2     1     1     2   502     0 -1.306499937E+01  2.194996690E+01 -8.347865474E+02  8.351772716E+02  0.000000000E+00  0.00000E+00  9.000E+00
#rwgt            1           1   3.6733221311309815E-002           2      173223           0
</event>
<event>
      5   9999  3.79277E-02  1.38829E+02 -1.00000E+00  1.17741E-01
      21    -1     0     0   502   501  0.000000000E+00  0.000000000E+00  6.942156982E+01  6.942156982E+01  0.000000000E+00  0.00000E+00  9.000E+00
      21    -1     0     0   511   502  0.000000000E+00  0.000000000E+00 -1.798206543E+03  1.798206543E+03  0.000000000E+00  0.00000E+00  9.000E+00
      25     1     1     2     0     0 -8.919432387E+01  1.595537057E+02 -2.629423026E+02  3.437683332E+02  1.250000000E+02  0.00000E+00  9.000E+00
      25     1     1     2     0     0 -4.013774758E+01 -1.090893378E+02 -2.663009151E+02  3.163110807E+02  1.250000000E+02  0.00000E+00  9.000E+00
      21     1     1     2   511   501  1.293320715E+02 -5.046436792E+01 -1.199541756E+03  1.207548699E+03  1.525878906E-05  0.00000E+00  9.000E+00
#rwgt            2          11   8.6897992482805168E-004           2      173698           0
</event>
<event>
      5   9999 -3.79277E-02  6.06722E+01 -1.00000E+00  1.34445E-01
      21    -1     0     0   512   501  0.000000000E+00  0.000000000E+00  3.417786193E+01  3.417786193E+01  0.000000000E+00  0.00000E+00  9.000E+00
      21    -1     0     0   501   502  0.000000000E+00  0.000000000E+00 -2.113374916E+03  2.113374916E+03  0.000000000E+00  0.00000E+00  9.000E+00
      25     1     1     2     0     0  1.290352864E+02  1.238847723E+01 -1.609928267E+03  1.619968396E+03  1.250000000E+02  0.00000E+00  9.000E+00
      25     1     1     2     0     0 -8.427913832E+01  2.857492924E+01 -4.267480208E+02  4.534957254E+02  1.250000000E+02  0.00000E+00  9.000E+00
      21     1     1     2   512   502 -4.475614804E+01 -4.096340647E+01 -4.252076652E+01  7.408865664E+01  1.907348633E-06  0.00000E+00  9.000E+00
#rwgt            1           1 -0.30045254185223519                2      173823           0
</event>
<event>
      5   9999  3.79277E-02  1.12909E+01 -1.00000E+00  1.89853E-01
      21    -1     0     0   511   501  0.000000000E+00  0.000000000E+00  2.207573714E+02  2.207573714E+02  0.000000000E+00  0.00000E+00  9.000E+00
      21    -1     0     0   501   502  0.000000000E+00  0.000000000E+00 -1.947791688E+02  1.947791688E+02  0.000000000E+00  0.00000E+00  9.000E+00
      25     1     1     2     0     0 -7.089184300E+01 -2.787252222E+01  1.166699677E+02  1.871881734E+02  1.250000000E+02  0.00000E+00  9.000E+00
      25     1     1     2     0     0  6.922205526E+01  3.903926142E+01 -1.240018866E+02  1.931766672E+02  1.250000000E+02  0.00000E+00  9.000E+00
      21     1     1     2   511   502  1.669787740E+00 -1.116673919E+01  3.331012153E+01  3.517169959E+01  4.768371582E-07  0.00000E+00  9.000E+00
#rwgt            1           1   3.1478564789672620E-002           2      173873           0
</event>
<event>
      5   9999  3.79277E-02  3.15159E+01 -1.00000E+00  1.51568E-01
      21    -1     0     0   512   501  0.000000000E+00  0.000000000E+00  4.194613835E+02  4.194613835E+02  0.000000000E+00  0.00000E+00  9.000E+00
      21    -1     0     0   501   502  0.000000000E+00  0.000000000E+00 -3.417684144E+02  3.417684144E+02  0.000000000E+00  0.00000E+00  9.000E+00
      25     1     1     2     0     0  2.806852421E+02 -1.762699210E+02 -6.908829373E+01  3.609064734E+02  1.250000000E+02  0.00000E+00  9.000E+00
      25     1     1     2     0     0 -2.813584920E+02  1.447612376E+02  1.410461391E+02  3.682898726E+02  1.250000000E+02  0.00000E+00  9.000E+00
      21     1     1     2   512   502  6.732498800E-01  3.150868346E+01  5.735123765E+00  3.203345195E+01  6.743495762E-07  0.00000E+00  9.000E+00
#rwgt            1           1   4.2820080862183252E-002           2      174152           0
</event>
<event>
      5   9999  3.79277E-02  1.50718E+01 -1.00000E+00  1.77188E-01
       2    -1     0     0   502     0  0.000000000E+00  0.000000000E+00  3.943408956E+02  3.943408956E+02  0.000000000E+00  0.00000E+00  9.000E+00
      21    -1     0     0   501   502  0.000000000E+00  0.000000000E+00 -1.317389137E+03  1.317389137E+03  0.000000000E+00  0.00000E+00  9.000E+00
      25     1     1     2     0     0  1.597627791E+01  1.892006779E+02 -5.443105390E+02  5.898738008E+02  1.250000000E+02  0.00000E+00  9.000E+00
      25     1     1     2     0     0 -2.970900967E+01 -1.829900855E+02 -7.334756595E+02  7.667982393E+02  1.250000000E+02  0.00000E+00  9.000E+00
       2     1     1     2   501     0  1.373273176E+01 -6.210592369E+00  3.547379574E+02  3.550579922E+02  8.529922400E-06  0.00000E+00  9.000E+00
#rwgt            1           1   3.0125971429334774E-002           2      174439           0
</event>
<event>
      5   9999  3.79277E-02  3.47184E+01 -1.00000E+00  1.48760E-01
      21    -1     0     0   502   511  0.000000000E+00  0.000000000E+00  2.349296396E+02  2.349296396E+02  0.000000000E+00  0.00000E+00  9.000E+00
      21    -1     0     0   501   502  0.000000000E+00  0.000000000E+00 -2.882745794E+02  2.882745794E+02  0.000000000E+00  0.00000E+00  9.000E+00
      25     1     1     2     0     0 -7.174386818E+01  1.371124561E+02 -1.142474258E+02  2.294002671E+02  1.250000000E+02  0.00000E+00  9.000E+00
      25     1     1     2     0     0  1.055958968E+02 -1.448202124E+02 -5.817438903E+00  2.185914681E+02  1.250000000E+02  0.00000E+00  9.000E+00
      21     1     1     2   501   511 -3.385202864E+01  7.707756305E+00  6.671992489E+01  7.521248385E+01  9.536743164E-07  0.00000E+00  9.000E+00
#rwgt            1           1   4.2674676427752072E-002           2      174724           0
</event>
<event>
      5   9999  3.79277E-02  1.43750E+02 -1.00000E+00  1.17131E-01
      21    -1     0     0   502   501  0.000000000E+00  0.000000000E+00  1.445174019E+02  1.445174019E+02  0.000000000E+00  0.00000E+00  9.000E+00
       2    -1     0     0   501     0  0.000000000E+00  0.000000000E+00 -1.027183650E+03  1.027183650E+03  0.000000000E+00  0.00000E+00  9.000E+00
      25     1     1     2     0     0  7.042444565E+01  1.275508241E+02  1.660870759E+01  1.926905925E+02  1.250000000E+02  0.00000E+00  9.000E+00
      25     1     1     2     0     0  5.120366043E+01 -5.093051787E+01 -1.233559344E+02  1.898879118E+02  1.250000000E+02  0.00000E+00  9.000E+00
       2     1     1     2   502     0 -1.216281061E+02 -7.662030621E+01 -7.759190210E+02  7.891225473E+02  1.525878906E-05  0.00000E+00  9.000E+00
#rwgt            1           1   3.9471856217496618E-002           2      174892           0
</event>
<event>
      5   9999  3.79277E-02  1.21099E+01 -1.00000E+00  1.86613E-01
      21    -1     0     0   502   501  0.000000000E+00  0.000000000E+00  1.008377296E+02  1.008377296E+02  0.000000000E+00  0.00000E+00  9.000E+00
      21    -1     0     0   501   511  0.000000000E+00  0.000000000E+00 -6.182596421E+02  6.182596421E+02  0.000000000E+00  0.00000E+00  9.000E+00
      25     1     1     2     0     0  3.257623582E+01  6.508086158E+01 -5.231835239E+02  5.428100307E+02  1.250000000E+02  0.00000E+00  9.000E+00
      25     1     1     2     0     0 -4.385191787E+01 -6.949771872E+01  2.683677844E+01  1.519807102E+02  1.250000000E+02  0.00000E+00  9.000E+00
      21     1     1     2   502   511  1.127568205E+01  4.416857141E+00 -2.107516700E+01  2.430663072E+01  2.384185791E-07  0.00000E+00  9.000E+00
#rwgt            1           1   2.9504933405078045E-002           2      174927           0
</event>
<event>
      5   9999  3.79277E-02  2.96806E+01 -1.00000E+00  1.53363E-01
      21    -1     0     0   502   501  0.000000000E+00  0.000000000E+00  3.103986076E+02  3.103986076E+02  0.000000000E+00  0.00000E+00  9.000E+00
      21    -1     0     0   512   502  0.000000000E+00  0.000000000E+00 -1.894069549E+02  1.894069549E+02  0.000000000E+00  0.00000E+00  9.000E+00
      25     1     1     2     0     0  1.382913225E+02  4.593008553E+01  2.857802056E+01  1.941024623E+02  1.250000000E+02  0.00000E+00  9.000E+00
      25     1     1     2     0     0 -1.430210931E+02 -7.523140217E+01  1.413745634E+02  2.484483128E+02  1.250000000E+02  0.00000E+00  9.000E+00
      21     1     1     2   512   501  4.729770611E+00  2.930131664E+01 -4.896093124E+01  5.725478736E+01  1.168007728E-06  0.00000E+00  9.000E+00
#rwgt            1           1   4.0780473652475946E-002           2      175232           0
</event>
<event>
      5   9999  3.79277E-02  6.84764E+01 -1.00000E+00  1.31707E-01
      21    -1     0     0   502   501  0.000000000E+00  0.000000000E+00  4.445548378E+02  4.445548378E+02  0.000000000E+00  0.00000E+00  9.000E+00
      21    -1     0     0   511   502  0.000000000E+00  0.000000000E+00 -2.123223655E+02  2.123223655E+02  0.000000000E+00  0.00000E+00  9.000E+00
      25     1     1     2     0     0  6.027518918E+01 -1.511822556E+02 -1.489375594E+01  2.057571306E+02  1.250000000E+02  0.00000E+00  9.000E+00
      25     1     1     2     0     0  8.007047998E+00  1.460288403E+02  3.055721367E+02  3.610926000E+02  1.250000000E+02  0.00000E+00  9.000E+00
      21     1     1     2   511   501 -6.828223718E+01  5.153415336E+00 -5.844590849E+01  9.002747260E+01  6.743495762E-07  0.00000E+00  9.000E+00
#rwgt            1           1   3.9852089354775223E-002           2      175420           0
</event>
<event>
      5   9999  3.79277E-02  6.15205E+01 -1.00000E+00  1.34125E-01
      21    -1     0     0   502   501  0.000000000E+00  0.000000000E+00  9.703203433E+02  9.703203433E+02  0.000000000E+00  0.00000E+00  9.000E+00
      21    -1     0     0   512   502  0.000000000E+00  0.000000000E+00 -1.287759362E+02  1.287759362E+02  0.000000000E+00  0.00000E+00  9.000E+00
      25     1     1     2     0     0 -9.629148975E+01 -1.245482571E+02  3.775640790E+02  4.277428586E+02  1.250000000E+02  0.00000E+00  9.000E+00
      25     1     1     2     0     0  1.492540247E+02  9.324736015E+01  5.352885108E+02  5.771746909E+02  1.250000000E+02  0.00000E+00  9.000E+00
      21     1     1     2   512   501 -5.296253496E+01  3.130089692E+01 -7.130818268E+01  9.417872995E+01  1.907348633E-06  0.00000E+00  9.000E+00
#rwgt            2          11   2.4110793443816282E-003           2      175535           0
</event>
<event>
      5   9999  3.79277E-02  2.26071E+01 -1.00000E+00  1.62095E-01
      21    -1     0     0   502   511  0.000000000E+00  0.000000000E+00  1.839071538E+02  1.839071538E+02  0.000000000E+00  0.00000E+00  9.000E+00
      21    -1     0     0   501   502  0.000000000E+00  0.000000000E+00 -3.164961467E+02  3.164961467E+02  0.000000000E+00  0.00000E+00  9.000E+00
      25     1     1     2     0     0 -9.065946046E+01 -1.588565544E+02 -9.862747524E+01  2.425013846E+02  1.250000000E+02  0.00000E+00  9.000E+00
      25     1     1     2     0     0  1.131776916E+02  1.608591630E+02 -3.137664548E+01  2.351475155E+02  1.250000000E+02  0.00000E+00  9.000E+00
      21     1     1     2   501   511 -2.251823111E+01 -2.002608597E+00 -2.584872247E+00  2.275440042E+01  6.756653815E-07  0.00000E+00  9.000E+00
#rwgt            1           1   3.6221561920576156E-002           2      175585           0
</event>
<event>
      5   9999  3.79277E-02  5.97297E+01 -1.00000E+00  1.34808E-01
      21    -1     0     0   502   501  0.000000000E+00  0.000000000E+00  4.599559740E+02  4.599559740E+02  0.000000000E+00  0.00000E+00  9.000E+00
      21    -1     0     0   512   502  0.000000000E+00  0.000000000E+00 -1.792951927E+02  1.792951927E+02  0.000000000E+00  0.00000E+00  9.000E+00
      25     1     1     2     0     0 -6.570876306E+01  7.926956593E+01  1.061173166E+02  1.936160905E+02  1.250000000E+02  0.00000E+00  9.000E+00
      25     1     1     2     0     0  7.489076227E+01 -1.382893329E+02  2.678700676E+02  3.348312097E+02  1.250000000E+02  0.00000E+00  9.000E+00
      21     1     1     2   512   501 -9.181999215E+00  5.901976697E+01 -9.332660291E+01  1.108038664E+02  2.336015456E-06  0.00000E+00  9.000E+00
#rwgt            1           1   3.5005581514961581E-002           2      175832           0
</event>
<event>
      5   9999  3.79277E-02  7.88533E+01 -1.00000E+00  1.28654E-01
      21    -1     0     0   511   501  0.000000000E+00  0.000000000E+00  1.907879171E+02  1.907879171E+02  0.000000000E+00  0.00000E+00  9.000E+00
      21    -1     0     0   501   502  0.000000000E+00  0.000000000E+00 -2.011027794E+02  2.011027794E+02  0.000000000E+00  0.00000E+00  9.000E+00
      25     1     1     2     0     0  4.213174021E+01 -1.646973487E+01 -8.045493193E+01  1.553844644E+02  1.250000000E+02  0.00000E+00  9.000E+00
      25     1     1     2     0     0  1.812575833E+01  6.733109095E+01  6.580148491E+01  1.575336610E+02  1.250000000E+02  0.00000E+00  9.000E+00
      21     1     1     2   511   502 -6.025749854E+01 -5.086135608E+01  4.338584713E+00  7.897257112E+01  1.235988221E-06  0.00000E+00  9.000E+00
#rwgt            1           1   6.1255037374215879E-002           2      175917           0
</event>
<event>
      5   9999  3.79277E-02  5.39444E+01 -1.00000E+00  1.37220E-01
      21    -1     0     0   512   501  0.000000000E+00  0.000000000E+00  6.282217542E+02  6.282217542E+02  0.000000000E+00  0.00000E+00  9.000E+00
      21    -1     0     0   501   502  0.000000000E+00  0.000000000E+00 -6.356823050E+01  6.356823050E+01  0.000000000E+00  0.00000E+00  9.000E+00
      25     1     1     2     0     0 -1.106516394E+02  2.122315465E+01  1.248304250E+02  2.095276655E+02  1.250000000E+02  0.00000E+00  9.000E+00
      25     1     1     2     0     0  5.676498735E+01 -1.872761613E+01  3.616449889E+02  3.872790795E+02  1.250000000E+02  0.00000E+00  9.000E+00
      21     1     1     2   512   502  5.388665205E+01 -2.495538513E+00  7.817810972E+01  9.498323968E+01  0.000000000E+00  0.00000E+00  9.000E+00
#rwgt            1           1   5.3342393517998708E-002           2      175979           0
</event>
<event>
      5   9999  3.79277E-02  1.54050E+01 -1.00000E+00  1.76300E-01
      21    -1     0     0   502   511  0.000000000E+00  0.000000000E+00  6.767843059E+02  6.767843059E+02  0.000000000E+00  0.00000E+00  9.000E+00
      21    -1     0     0   501   502  0.000000000E+00  0.000000000E+00 -1.904634042E+02  1.904634042E+02  0.000000000E+00  0.00000E+00  9.000E+00
      25     1     1     2     0     0  1.849542966E+02  6.320227889E+01 -6.565131182E+01  2.411176365E+02  1.250000000E+02  0.00000E+00  9.000E+00
      25     1     1     2     0     0 -1.701014742E+02 -5.911474482E+01  2.891277554E+02  3.628345677E+02  1.250000000E+02  0.00000E+00  9.000E+00
      21     1     1     2   501   511 -1.485282234E+01 -4.087534064E+00  2.628444581E+02  2.632955059E+02  3.814697266E-06  0.00000E+00  9.000E+00
#rwgt            1           1   3.7509823851110527E-002           2      176112           0
</event>
<event>
      5   9999  3.79277E-02  1.87470E+01 -1.00000E+00  1.68721E-01
      21    -1     0     0   502   512  0.000000000E+00  0.000000000E+00  5.323673701E+02  5.323673701E+02  0.000000000E+00  0.00000E+00  9.000E+00
      21    -1     0     0   501   502  0.000000000E+00  0.000000000E+00 -6.186628205E+01  6.186628205E+01  0.000000000E+00  0.00000E+00  9.000E+00
      25     1     1     2     0     0 -9.195850025E+01 -1.075129574E+01  1.515891116E+02  2.172008630E+02  1.250000000E+02  0.00000E+00  9.000E+00
      25     1     1     2     0     0  9.249358856E+01  2.949068786E+01  1.923732464E+02  2.491128871E+02  1.250000000E+02  0.00000E+00  9.000E+00
      21     1     1     2   501   512 -5.350883033E-01 -1.873939212E+01  1.265387301E+02  1.279199021E+02  1.348699152E-06  0.00000E+00  9.000E+00
#rwgt            1           1   3.9806184237621792E-002           2      176419           0
</event>
<event>
      5   9999  3.79277E-02  2.73569E+01 -1.00000E+00  1.55875E-01
       2    -1     0     0   502     0  0.000000000E+00  0.000000000E+00  3.711449390E+03  3.711449390E+03  0.000000000E+00  0.00000E+00  9.000E+00
      21    -1     0     0   501   502  0.000000000E+00  0.000000000E+00 -8.860557361E+01  8.860557361E+01  0.000000000E+00  0.00000E+00  9.000E+00
      25     1     1     2     0     0  1.916236872E+02 -4.278978865E+02  2.250166435E+03  2.301888404E+03  1.250000000E+02  0.00000E+00  9.000E+00
      25     1     1     2     0     0 -2.173277123E+02  4.372627619E+02  9.572751144E+02  1.081864456E+03  1.250000000E+02  0.00000E+00  9.000E+00
       2     1     1     2   501     0  2.570402511E+01 -9.364875394E+00  4.154022670E+02  4.163021033E+02  5.394796609E-06  0.00000E+00  9.000E+00
#rwgt            1           1   3.8226049054262724E-002           2      176559           0
</event>
<event>
      5   9999  3.79277E-02  2.52656E+01 -1.00000E+00  1.58408E-01
      21    -1     0     0   511   501  0.000000000E+00  0.000000000E+00  3.482961609E+01  3.482961609E+01  0.000000000E+00  0.00000E+00  9.000E+00
      21    -1     0     0   501   502  0.000000000E+00  0.000000000E+00 -1.763745076E+03  1.763745076E+03  0.000000000E+00  0.00000E+00  9.000E+00
      25     1     1     2     0     0  4.573665938E+01  9.561904967E+01 -2.297297729E+02  2.821978264E+02  1.250000000E+02  0.00000E+00  9.000E+00
      25     1     1     2     0     0 -7.099044165E+01 -9.639162537E+01 -1.456701212E+03  1.466947310E+03  1.250000000E+02  0.00000E+00  9.000E+00
      21     1     1     2   511   502  2.525378227E+01  7.725756986E-01 -4.248447499E+01  4.942955601E+01  9.536743164E-07  0.00000E+00  9.000E+00
#rwgt            1           1   3.3781720620874679E-002           2      176819           0
</event>
<event>
      5   9999  3.79277E-02  2.30124E+01 -1.00000E+00  1.61494E-01
      21    -1     0     0   502   501  0.000000000E+00  0.000000000E+00  1.011912529E+02  1.011912529E+02  0.000000000E+00  0.00000E+00  9.000E+00
      21    -1     0     0   512   502  0.000000000E+00  0.000000000E+00 -4.425110182E+02  4.425110182E+02  0.000000000E+00  0.00000E+00  9.000E+00
      25     1     1     2     0     0  9.248403613E+01 -8.697213719E+01 -5.354856958E+01  1.860373589E+02  1.250000000E+02  0.00000E+00  9.000E+00
      25     1     1     2     0     0 -1.046623340E+02  6.744629085E+01 -1.989554010E+02  2.659162611E+02  1.250000000E+02  0.00000E+00  9.000E+00
      21     1     1     2   512   501  1.217829783E+01  1.952584634E+01 -8.881579473E+01  9.174865126E+01  0.000000000E+00  0.00000E+00  9.000E+00
#rwgt            1           1   4.6355049024521262E-002           2      177024           0
</event>
<event>
      5   9999  3.79277E-02  2.13506E+02 -1.00000E+00  1.10625E-01
      21    -1     0     0   502   501  0.000000000E+00  0.000000000E+00  4.414096251E+02  4.414096251E+02  0.000000000E+00  0.00000E+00  9.000E+00
      21    -1     0     0   501   511  0.000000000E+00  0.000000000E+00 -4.072522283E+02  4.072522283E+02  0.000000000E+00  0.00000E+00  9.000E+00
      25     1     1     2     0     0 -1.895581625E+02  3.436884364E+01  2.890030796E+02  3.691358753E+02  1.250000000E+02  0.00000E+00  9.000E+00
      25     1     1     2     0     0  6.964500422E+00 -1.450225030E+02 -1.028842929E+02  2.174631196E+02  1.250000000E+02  0.00000E+00  9.000E+00
      21     1     1     2   502   511  1.825936621E+02  1.106536594E+02 -1.519613899E+02  2.620628585E+02  6.031565972E-06  0.00000E+00  9.000E+00
#rwgt            2          11   1.8765969083645328E-003           2      177314           0
</event>
<event>
      5   9999  3.79277E-02  3.03244E+01 -1.00000E+00  1.52716E-01
      21    -1     0     0   502   501  0.000000000E+00  0.000000000E+00  1.662549059E+02  1.662549059E+02  0.000000000E+00  0.00000E+00  9.000E+00
      21    -1     0     0   501   512  0.000000000E+00  0.000000000E+00 -7.978523357E+02  7.978523357E+02  0.000000000E+00  0.00000E+00  9.000E+00
      25     1     1     2     0     0  2.896654866E+02  1.140090286E+02 -1.475489024E+02  3.664694139E+02  1.250000000E+02  0.00000E+00  9.000E+00
      25     1     1     2     0     0 -2.766006607E+02 -8.664335838E+01 -4.086297387E+02  5.163509082E+02  1.250000000E+02  0.00000E+00  9.000E+00
      21     1     1     2   502   512 -1.306482586E+01 -2.736567022E+01 -7.541878872E+01  8.128691945E+01  1.348699152E-06  0.00000E+00  9.000E+00
#rwgt            1           1  0.28531957473150354                2      177394           0
</event>
<event>
      5   9999  3.79277E-02  6.51853E+01 -1.00000E+00  1.32807E-01
      21    -1     0     0   502   501  0.000000000E+00  0.000000000E+00  1.550456362E+02  1.550456362E+02  0.000000000E+00  0.00000E+00  9.000E+00
       2    -1     0     0   501     0  0.000000000E+00  0.000000000E+00 -7.213789103E+02  7.213789103E+02  0.000000000E+00  0.00000E+00  9.000E+00
      25     1     1     2     0     0  1.668381662E+02 -6.085870596E+01 -2.799519377E+01  2.189691455E+02  1.250000000E+02  0.00000E+00  9.000E+00
      25     1     1     2     0     0 -1.148802037E+02  2.149514643E+01 -7.047124907E+01  1.850694450E+02  1.250000000E+02  0.00000E+00  9.000E+00
       2     1     1     2   502     0 -5.195796255E+01  3.936355953E+01 -4.678668312E+02  4.723859560E+02  9.344061824E-06  0.00000E+00  9.000E+00
#rwgt            1           1   4.6106314489240616E-002           2      177678           0
</event>
<event>
      5   9999  3.79277E-02  1.12236E+01 -1.00000E+00  1.90135E-01
      21    -1     0     0   502   501  0.000000000E+00  0.000000000E+00  1.282865373E+03  1.282865373E+03  0.000000000E+00  0.00000E+00  9.000E+00
      21    -1     0     0   511   502  0.000000000E+00  0.000000000E+00 -3.195677932E+01  3.195677932E+01  0.000000000E+00  0.00000E+00  9.000E+00
      25     1     1     2     0     0  1.223504196E+02 -6.936688783E+01  4.678345361E+02  5.042574178E+02  1.250000000E+02  0.00000E+00  9.000E+00
      25     1     1     2     0     0 -1.198552088E+02  8.030960795E+01  7.701147773E+02  7.934208684E+02  1.250000000E+02  0.00000E+00  9.000E+00
      21     1     1     2   511   501 -2.495210786E+00 -1.094272012E+01  1.295928066E+01  1.714386642E+01  4.129530925E-07  0.00000E+00  9.000E+00
#rwgt            1           1   2.3084971907787438E-002           2      177724           0
</event>
<event>
      5   9999  3.79277E-02  5.33812E+01 -1.00000E+00  1.37473E-01
      21    -1     0     0   502   501  0.000000000E+00  0.000000000E+00  4.002144708E+02  4.002144708E+02  0.000000000E+00  0.00000E+00  9.000E+00
      21    -1     0     0   501   512  0.000000000E+00  0.000000000E+00 -2.539723906E+02  2.539723906E+02  0.000000000E+00  0.00000E+00  9.000E+00
      25     1     1     2     0     0  1.684830269E+02 -1.282409844E+02  1.849868680E+02  3.076969641E+02  1.250000000E+02  0.00000E+00  9.000E+00
      25     1     1     2     0     0 -2.196088883E+02  1.435936410E+02 -2.751766134E+01  2.919407804E+02  1.250000000E+02  0.00000E+00  9.000E+00
      21     1     1     2   502   512  5.112586148E+01 -1.535265662E+01 -1.122712652E+01  5.454911683E+01  1.018524616E-06  0.00000E+00  9.000E+00
#rwgt            1           1   6.8086175576134916E-002           2      178045           0
</event>
<event>
      5   9999 -3.79277E-02  1.25555E+01 -1.00000E+00  1.84985E-01
      21    -1     0     0   502   511  0.000000000E+00  0.000000000E+00  7.320753560E+02  7.320753560E+02  0.000000000E+00  0.00000E+00  9.000E+00
      21    -1     0     0   501   502  0.000000000E+00  0.000000000E+00 -5.165893307E+01  5.165893307E+01  0.000000000E+00  0.00000E+00  9.000E+00
      25     1     1     2     0     0 -5.039751166E+01 -6.430086547E+01  1.083381552E+02  1.844902880E+02  1.250000000E+02  0.00000E+00  9.000E+00
      25     1     1     2     0     0  6.289754248E+01  6.547985047E+01  4.355393878E+02  4.621290621E+02  1.250000000E+02  0.00000E+00  9.000E+00
      21     1     1     2   501   511 -1.250003083E+01 -1.178985006E+00  1.365388800E+02  1.371149391E+02  1.907348633E-06  0.00000E+00  9.000E+00
#rwgt            1           1  -2.0207843885905456E-002           2      178241           0
</event>
<event>
      5   9999  3.79277E-02  8.73189E+01 -1.00000E+00  1.26536E-01
      21    -1     0     0   512   501  0.000000000E+00  0.000000000E+00  9.977201244E+01  9.977201244E+01  0.000000000E+00  0.00000E+00  9.000E+00
      21    -1     0     0   501   502  0.000000000E+00  0.000000000E+00 -6.608748995E+02  6.608748995E+02  0.000000000E+00  0.00000E+00  9.000E+00
      25     1     1     2     0     0  8.591584011E+01  1.155791726E+02 -2.462390315E+02  3.114462030E+02  1.250000000E+02  0.00000E+00  9.000E+00
      25     1     1     2     0     0 -1.711697802E+02 -9.670195394E+01 -2.336825790E+02  3.299741040E+02  1.250000000E+02  0.00000E+00  9.000E+00
      21     1     1     2   512   502  8.525394006E+01 -1.887721864E+01 -8.118127647E+01  1.192266050E+02  2.523185073E-06  0.00000E+00  9.000E+00
#rwgt            1           1   3.3303848774633542E-002           2      178424           0
</event>
<event>
      5   9999  3.79277E-02  4.66617E+01 -1.00000E+00  1.40810E-01
      21    -1     0     0   502   501  0.000000000E+00  0.000000000E+00  4.805734953E+02  4.805734953E+02  0.000000000E+00  0.00000E+00  9.000E+00
      21    -1     0     0   511   502  0.000000000E+00  0.000000000E+00 -9.766530954E+02  9.766530954E+02  0.000000000E+00  0.00000E+00  9.000E+00
      25     1     1     2     0     0  2.738500529E+02  7.196309953E+01  2.604504317E+01  3.106056720E+02  1.250000000E+02  0.00000E+00  9.000E+00
      25     1     1     2     0     0 -2.292828348E+02 -8.578623449E+01  2.509153667E+02  3.721739077E+02  1.250000000E+02  0.00000E+00  9.000E+00
      21     1     1     2   511   501 -4.456721814E+01  1.382313495E+01 -7.730400099E+02  7.744470110E+02  1.078959322E-05  0.00000E+00  9.000E+00
#rwgt            1           1   4.6701080102174483E-002           2      178546           0
</event>
<event>
      5   9999  3.79277E-02  3.66475E+01 -1.00000E+00  1.47238E-01
       2    -1     0     0   502     0  0.000000000E+00  0.000000000E+00  2.272061172E+03  2.272061172E+03  0.000000000E+00  0.00000E+00  9.000E+00
      21    -1     0     0   501   502  0.000000000E+00  0.000000000E+00 -2.560724586E+02  2.560724586E+02  0.000000000E+00  0.00000E+00  9.000E+00
      25     1     1     2     0     0  1.178331077E+02 -3.152016833E+02  1.094653135E+02  3.752924157E+02  1.250000000E+02  0.00000E+00  9.000E+00
      25     1     1     2     0     0 -1.077321993E+02  3.504296198E+02  1.820678787E+02  4.279963290E+02  1.250000000E+02  0.00000E+00  9.000E+00
       2     1     1     2   501     0 -1.010090842E+01 -3.522793651E+01  1.724455522E+03  1.724844886E+03  2.157918644E-05  0.00000E+00  9.000E+00
#rwgt            2          18   9.9480802824813909E-004           2      179157           0
</event>
<event>
      5   9999  3.79277E-02  1.25420E+01 -1.00000E+00  1.85033E-01
      21    -1     0     0   502   501  0.000000000E+00  0.000000000E+00  1.181757598E+02  1.181757598E+02  0.000000000E+00  0.00000E+00  9.000E+00
      21    -1     0     0   511   502  0.000000000E+00  0.000000000E+00 -5.640873536E+02  5.640873536E+02  0.000000000E+00  0.00000E+00  9.000E+00
      25     1     1     2     0     0  1.035430538E+02  4.804747518E+01 -2.303461241E+02  2.858567137E+02  1.250000000E+02  0.00000E+00  9.000E+00
      25     1     1     2     0     0 -9.985366955E+01 -6.003454720E+01  9.355804370E+00  1.711357159E+02  1.250000000E+02  0.00000E+00  9.000E+00
      21     1     1     2   511   501 -3.689384274E+00  1.198707201E+01 -2.249212741E+02  2.252706838E+02  2.697398305E-06  0.00000E+00  9.000E+00
#rwgt            1           1   4.0355942519066872E-002           2      179191           0
</event>
<event>
      5   9999  3.79277E-02  1.08860E+01 -1.00000E+00  1.91590E-01
      21    -1     0     0   502   501  0.000000000E+00  0.000000000E+00  1.174292698E+02  1.174292698E+02  0.000000000E+00  0.00000E+00  9.000E+00
       1    -1     0     0   501     0  0.000000000E+00  0.000000000E+00 -1.449346769E+03  1.449346769E+03  0.000000000E+00  0.00000E+00  9.000E+00
      25     1     1     2     0     0  7.870800206E+01  1.380653002E+02 -2.546869182E+02  3.251882578E+02  1.250000000E+02  0.00000E+00  9.000E+00
      25     1     1     2     0     0 -7.243190310E+01 -1.291706209E+02 -3.214163507E+01  1.964421406E+02  1.250000000E+02  0.00000E+00  9.000E+00
       1     1     1     2   502     0 -6.276098954E+00 -8.894679297E+00 -1.045088946E+03  1.045145641E+03  1.525878906E-05  0.00000E+00  9.000E+00
#rwgt            1           1   3.0149450101052782E-002           2      179425           0
</event>
<event>
      5   9999  3.79277E-02  3.11459E+01 -1.00000E+00  1.51918E-01
      21    -1     0     0   502   501  0.000000000E+00  0.000000000E+00  5.557336716E+02  5.557336716E+02  0.000000000E+00  0.00000E+00  9.000E+00
      21    -1     0     0   511   502  0.000000000E+00  0.000000000E+00 -1.173051285E+02  1.173051285E+02  0.000000000E+00  0.00000E+00  9.000E+00
      25     1     1     2     0     0  6.040243657E+01 -1.536626035E+02  3.687787093E+02  4.229460799E+02  1.250000000E+02  0.00000E+00  9.000E+00
      25     1     1     2     0     0 -3.632283869E+01  1.339080473E+02  9.537614110E+01  2.096957845E+02  1.250000000E+02  0.00000E+00  9.000E+00
      21     1     1     2   511   501 -2.407959788E+01  1.975455622E+01 -2.572630732E+01  4.039693570E+01  1.011524364E-06  0.00000E+00  9.000E+00
#rwgt            1           1   4.5353953936893919E-002           2      179921           0
</event>
<event>
      5   9999  3.79277E-02  1.71147E+02 -1.00000E+00  1.14168E-01
      21    -1     0     0   512   501  0.000000000E+00  0.000000000E+00  1.259068295E+02  1.259068295E+02  0.000000000E+00  0.00000E+00  9.000E+00
      21    -1     0     0   501   502  0.000000000E+00  0.000000000E+00 -1.345565693E+03  1.345565693E+03  0.000000000E+00  0.00000E+00  9.000E+00
      25     1     1     2     0     0  3.291359156E+02 -2.458086806E+01 -9.409651449E+02  1.004975161E+03  1.250000000E+02  0.00000E+00  9.000E+00
      25     1     1     2     0     0 -1.580396324E+02  2.039493940E+01 -1.399702317E+02  2.461892458E+02  1.250000000E+02  0.00000E+00  9.000E+00
      21     1     1     2   512   502 -1.710962832E+02  4.185928660E+00 -1.387234872E+02  2.203081161E+02  1.907348633E-06  0.00000E+00  9.000E+00
#rwgt            1           1   4.0053628983851362E-002           2      180226           0
</event>
<event>
      5   9999  3.79277E-02  2.96129E+01 -1.00000E+00  1.53433E-01
      21    -1     0     0   502   501  0.000000000E+00  0.000000000E+00  1.713069747E+02  1.713069747E+02  0.000000000E+00  0.00000E+00  9.000E+00
      21    -1     0     0   511   502  0.000000000E+00  0.000000000E+00 -2.627782350E+02  2.627782350E+02  0.000000000E+00  0.00000E+00  9.000E+00
      25     1     1     2     0     0  8.623633420E+01  1.947365952E+01 -4.258248722E+01  1.589156914E+02  1.250000000E+02  0.00000E+00  9.000E+00
      25     1     1     2     0     0 -1.111219257E+02 -3.422733737E+00  4.785351232E+01  1.739964256E+02  1.250000000E+02  0.00000E+00  9.000E+00
      21     1     1     2   511   501  2.488559154E+01 -1.605092578E+01 -9.674228546E+01  1.011730927E+02  1.348699152E-06  0.00000E+00  9.000E+00
#rwgt            1           1   5.1825827597538766E-002           2      180322           0
</event>
<event>
      5   9999  3.79277E-02  5.47375E+01 -1.00000E+00  1.36869E-01
      21    -1     0     0   502   501  0.000000000E+00  0.000000000E+00  1.361056343E+03  1.361056343E+03  0.000000000E+00  0.00000E+00  9.000E+00
       2    -1     0     0   501     0  0.000000000E+00  0.000000000E+00 -1.043224641E+03  1.043224641E+03  0.000000000E+00  0.00000E+00  9.000E+00
      25     1     1     2     0     0  2.136285882E+02 -3.461279351E+02  6.215687295E+02  7.532691462E+02  1.250000000E+02  0.00000E+00  9.000E+00
      25     1     1     2     0     0 -2.654579329E+02  3.637321404E+02  5.916506653E+02  7.539525807E+02  1.250000000E+02  0.00000E+00  9.000E+00
       2     1     1     2   502     0  5.182934471E+01 -1.760420528E+01 -8.953876933E+02  8.970592568E+02  0.000000000E+00  0.00000E+00  9.000E+00
#rwgt            1           1   2.7594397023001937E-002           2      180502           0
</event>
<event>
      5   9999 -3.79277E-02  2.36282E+01 -1.00000E+00  1.60609E-01
      21    -1     0     0   502   511  0.000000000E+00  0.000000000E+00  1.185024232E+02  1.185024232E+02  0.000000000E+00  0.00000E+00  9.000E+00
      21    -1     0     0   501   502  0.000000000E+00  0.000000000E+00 -5.401531730E+02  5.401531730E+02  0.000000000E+00  0.00000E+00  9.000E+00
      25     1     1     2     0     0  1.075951637E+02 -3.094317939E+01 -1.802855140E+02  2.462967035E+02  1.250000000E+02  0.00000E+00  9.000E+00
      25     1     1     2     0     0 -1.135551169E+02  5.380739221E+01 -3.003889290E+02  3.487814627E+02  1.250000000E+02  0.00000E+00  9.000E+00
      21     1     1     2   501   511  5.959953246E+00 -2.286421283E+01  5.902369311E+01  6.357743011E+01  1.168007728E-06  0.00000E+00  9.000E+00
#rwgt            1           1  -3.3650646089572370E-002           2      180652           0
</event>
<event>
      5   9999  3.79277E-02  2.22564E+01 -1.00000E+00  1.62627E-01
      21    -1     0     0   502   512  0.000000000E+00  0.000000000E+00  2.618563312E+02  2.618563312E+02  0.000000000E+00  0.00000E+00  9.000E+00
      21    -1     0     0   501   502  0.000000000E+00  0.000000000E+00 -2.315035256E+02  2.315035256E+02  0.000000000E+00  0.00000E+00  9.000E+00
      25     1     1     2     0     0 -1.801361170E+02 -1.443155258E+01 -4.048189959E+01  2.234302454E+02  1.250000000E+02  0.00000E+00  9.000E+00
      25     1     1     2     0     0  1.858822934E+02  3.593343067E+01  3.764552858E+01  2.299687462E+02  1.250000000E+02  0.00000E+00  9.000E+00
      21     1     1     2   501   512 -5.746176346E+00 -2.150187809E+01  3.318917656E+01  3.996086517E+01  4.768371582E-07  0.00000E+00  9.000E+00
#rwgt            1           1   2.9034233910616863E-002           2      180805           0
</event>
<event>
      5   9999  3.79277E-02  8.73121E+00 -1.00000E+00  2.02825E-01
      21    -1     0     0   502   511  0.000000000E+00  0.000000000E+00  1.423369791E+02  1.423369791E+02  0.000000000E+00  0.00000E+00  9.000E+00
      21    -1     0     0   501   502  0.000000000E+00  0.000000000E+00 -4.721857348E+02  4.721857348E+02  0.000000000E+00  0.00000E+00  9.000E+00
      25     1     1     2     0     0  5.284584423E+01 -7.807763606E+01  4.643280166E+01  1.633089268E+02  1.250000000E+02  0.00000E+00  9.000E+00
      25     1     1     2     0     0 -5.485132062E+01  6.957986363E+01 -3.987155385E+02  4.271406156E+02  1.250000000E+02  0.00000E+00  9.000E+00
      21     1     1     2   501   511  2.005476383E+00  8.497772424E+00  2.243398123E+01  2.407317149E+01  3.371747881E-07  0.00000E+00  9.000E+00
#rwgt            1           1   4.9195960211745084E-002           2      181011           0
</event>
<event>
      5   9999  3.79277E-02  1.18634E+02 -1.00000E+00  1.20580E-01
      21    -1     0     0   502   512  0.000000000E+00  0.000000000E+00  2.595780176E+02  2.595780176E+02  0.000000000E+00  0.00000E+00  9.000E+00
      21    -1     0     0   501   502  0.000000000E+00  0.000000000E+00 -3.282816868E+02  3.282816868E+02  0.000000000E+00  0.00000E+00  9.000E+00
      25     1     1     2     0     0 -6.198593098E+01  1.230862726E+02 -1.463364682E+02  2.367104731E+02  1.250000000E+02  0.00000E+00  9.000E+00
      25     1     1     2     0     0  1.664004801E+02 -6.676999921E+01  7.928333614E+01  2.325041935E+02  1.250000000E+02  0.00000E+00  9.000E+00
      21     1     1     2   501   512 -1.044145492E+02 -5.631627338E+01 -1.650537120E+00  1.186450378E+02  9.947013419E-07  0.00000E+00  9.000E+00
#rwgt            1           1   1.8340501636081780E-002           2      181363           0
</event>
<event>
      5   9999  3.79277E-02  6.43148E+01 -1.00000E+00  1.33111E-01
      21    -1     0     0   511   501  0.000000000E+00  0.000000000E+00  4.215049802E+02  4.215049802E+02  0.000000000E+00  0.00000E+00  9.000E+00
      21    -1     0     0   501   502  0.000000000E+00  0.000000000E+00 -2.086568082E+02  2.086568082E+02  0.000000000E+00  0.00000E+00  9.000E+00
      25     1     1     2     0     0  6.393369218E+01 -8.894755814E+01 -4.746424776E+00  1.662730094E+02  1.250000000E+02  0.00000E+00  9.000E+00
      25     1     1     2     0     0 -1.962439743E+01  1.355639198E+02 -4.723583134E+01  1.913606989E+02  1.250000000E+02  0.00000E+00  9.000E+00
      21     1     1     2   511   502 -4.430929475E+01 -4.661636162E+01  2.648304282E+02  2.725280801E+02  5.394796609E-06  0.00000E+00  9.000E+00
#rwgt            1           1   3.6090942551323529E-002           2      181515           0
</event>
<event>
      5   9999  3.79277E-02  7.47626E+01 -1.00000E+00  1.29789E-01
      21    -1     0     0   502   501  0.000000000E+00  0.000000000E+00  1.373417918E+02  1.373417918E+02  0.000000000E+00  0.00000E+00  9.000E+00
      21    -1     0     0   512   502  0.000000000E+00  0.000000000E+00 -1.017082908E+03  1.017082908E+03  0.000000000E+00  0.00000E+00  9.000E+00
      25     1     1     2     0     0  1.623893633E+02  1.690671214E+02 -3.973886584E+02  4.780133289E+02  1.250000000E+02  0.00000E+00  9.000E+00
      25     1     1     2     0     0 -9.252962574E+01 -1.956953746E+02 -7.317128586E+01  2.604562312E+02  1.250000000E+02  0.00000E+00  9.000E+00
      21     1     1     2   512   501 -6.985973754E+01  2.662825321E+01 -4.091811718E+02  4.159551395E+02  5.394796609E-06  0.00000E+00  9.000E+00
#rwgt            1           1   3.0764180821054320E-002           2      181622           0
</event>
<event>
      5   9999  3.79277E-02  7.38351E+00 -1.00000E+00  2.12331E-01
      21    -1     0     0   502   511  0.000000000E+00  0.000000000E+00  5.449498093E+02  5.449498093E+02  0.000000000E+00  0.00000E+00  9.000E+00
      21    -1     0     0   501   502  0.000000000E+00  0.000000000E+00 -5.730875950E+01  5.730875950E+01  0.000000000E+00  0.00000E+00  9.000E+00
      25     1     1     2     0     0  1.011631918E+02  6.531716919E+01  2.041591960E+02  2.679669779E+02  1.250000000E+02  0.00000E+00  9.000E+00
      25     1     1     2     0     0 -9.565885148E+01 -6.039594901E+01  2.618097810E+02  3.113962876E+02  1.250000000E+02  0.00000E+00  9.000E+00
      21     1     1     2   501   511 -5.504340274E+00 -4.921220186E+00  2.167207287E+01  2.289530329E+01  3.371747881E-07  0.00000E+00  9.000E+00
#rwgt            1           1   2.9875686827531386E-002           2      181843           0
</event>
<event>
      5   9999  3.79277E-02  3.74242E+01 -1.00000E+00  1.46656E-01
      21    -1     0     0   502   501  0.000000000E+00  0.000000000E+00  5.462512333E+02  5.462512333E+02  0.000000000E+00  0.00000E+00  9.000E+00
       2    -1     0     0   501     0  0.000000000E+00  0.000000000E+00 -3.122335054E+02  3.122335054E+02  0.000000000E+00  0.00000E+00  9.000E+00
      25     1     1     2     0     0 -1.926449130E+02  1.674560295E+02  3.219022399E+02  4.294177877E+02  1.250000000E+02  0.00000E+00  9.000E+00
      25     1     1     2     0     0  1.751915804E+02 -1.343508615E+02  7.290930122E+01  2.639753967E+02  1.250000000E+02  0.00000E+00  9.000E+00
       2     1     1     2   502     0  1.745333255E+01 -3.310516795E+01 -1.607938132E+02  1.650915544E+02  0.000000000E+00  0.00000E+00  9.000E+00
#rwgt            1           1   4.3812527333271171E-002           2      182144           0
</event>
<event>
      5   9999  3.79277E-02  3.22010E+01 -1.00000E+00  1.50934E-01
      21    -1     0     0   502   501  0.000000000E+00  0.000000000E+00  3.208588180E+02  3.208588180E+02  0.000000000E+00  0.00000E+00  9.000E+00
      21    -1     0     0   501   511  0.000000000E+00  0.000000000E+00 -8.628076887E+01  8.628076887E+01  0.000000000E+00  0.00000E+00  9.000E+00
      25     1     1     2     0     0  3.888512006E+01  1.220701716E+01  2.029299012E+02  2.417986945E+02  1.250000000E+02  0.00000E+00  9.000E+00
      25     1     1     2     0     0 -1.237497585E+01 -3.048593107E+01  1.856723213E+01  1.305843564E+02  1.250000000E+02  0.00000E+00  9.000E+00
      21     1     1     2   502   511 -2.651014421E+01  1.827891391E+01  1.308091578E+01  3.475653604E+01  0.000000000E+00  0.00000E+00  9.000E+00
#rwgt            1           1  0.10411911535904612                2      182247           0
</event>
<event>
      5   9999  3.79277E-02  4.65052E+01 -1.00000E+00  1.40895E-01
       2    -1     0     0   502     0  0.000000000E+00  0.000000000E+00  1.622598352E+03  1.622598352E+03  0.000000000E+00  0.00000E+00  9.000E+00
      21    -1     0     0   501   502  0.000000000E+00  0.000000000E+00 -1.340730172E+02  1.340730172E+02  0.000000000E+00  0.00000E+00  9.000E+00
      25     1     1     2     0     0  9.780630972E+00 -1.042954240E+02 -2.581041269E+01  1.651192709E+02  1.250000000E+02  0.00000E+00  9.000E+00
      25     1     1     2     0     0 -5.498278381E+01  9.336374533E+01  1.408063675E+02  2.172356522E+02  1.250000000E+02  0.00000E+00  9.000E+00
       2     1     1     2   501     0  4.520215284E+01  1.093167871E+01  1.373529380E+03  1.374316446E+03  2.642899792E-05  0.00000E+00  9.000E+00
#rwgt            1           1   5.1942088250212209E-002           2      182372           0
</event>
<event>
      5   9999  3.79277E-02  8.35321E+01 -1.00000E+00  1.27448E-01
      21    -1     0     0   502   501  0.000000000E+00  0.000000000E+00  1.339066625E+02  1.339066625E+02  0.000000000E+00  0.00000E+00  9.000E+00
       2    -1     0     0   501     0  0.000000000E+00  0.000000000E+00 -8.532408675E+02  8.532408675E+02  0.000000000E+00  0.00000E+00  9.000E+00
      25     1     1     2     0     0  9.629328326E+01 -6.249676743E+01 -1.791505546E+02  2.467755327E+02  1.250000000E+02  0.00000E+00  9.000E+00
      25     1     1     2     0     0 -7.185248930E+01  1.423733445E+02 -9.177002556E+00  2.028353195E+02  1.250000000E+02  0.00000E+00  9.000E+00
       2     1     1     2   502     0 -2.444079395E+01 -7.987657710E+01 -5.310066478E+02  5.375366778E+02  0.000000000E+00  0.00000E+00  9.000E+00
#rwgt            1           1   4.5508746866967494E-002           2      182476           0
</event>
<event>
      5   9999  3.79277E-02  1.68448E+01 -1.00000E+00  1.72766E-01
      21    -1     0     0   502   501  0.000000000E+00  0.000000000E+00  3.678244820E+01  3.678244820E+01  0.000000000E+00  0.00000E+00  9.000E+00
      21    -1     0     0   501   511  0.000000000E+00  0.000000000E+00 -1.223905729E+03  1.223905729E+03  0.000000000E+00  0.00000E+00  9.000E+00
      25     1     1     2     0     0 -4.357529256E+01  5.057530027E+01 -7.568414507E+02  7.699939276E+02  1.250000000E+02  0.00000E+00  9.000E+00
      25     1     1     2     0     0  5.079912247E+01 -6.579250518E+01 -1.581794065E+02  2.180709270E+02  1.250000000E+02  0.00000E+00  9.000E+00
      21     1     1     2   502   511 -7.223829915E+00  1.521720491E+01 -2.721024233E+02  2.726233222E+02  3.814697266E-06  0.00000E+00  9.000E+00
#rwgt            1           1   5.8899054931480406E-002           2      182746           0
</event>
<event>
      5   9999 -3.79277E-02  6.26653E+01 -1.00000E+00  1.33702E-01
      21    -1     0     0   502   501  0.000000000E+00  0.000000000E+00  1.257082708E+02  1.257082708E+02  0.000000000E+00  0.00000E+00  9.000E+00
      21    -1     0     0   501   512  0.000000000E+00  0.000000000E+00 -1.256070783E+03  1.256070783E+03  0.000000000E+00  0.00000E+00  9.000E+00
      25     1     1     2     0     0 -1.105491783E+02 -2.446368078E+02 -9.162583682E+02  9.629240291E+02  1.250000000E+02  0.00000E+00  9.000E+00
      25     1     1     2     0     0  1.346268739E+02  1.867817799E+02 -8.514252751E+01  2.754742792E+02  1.250000000E+02  0.00000E+00  9.000E+00
      21     1     1     2   502   512 -2.407769560E+01  5.785502794E+01 -1.289616169E+02  1.433807460E+02  0.000000000E+00  0.00000E+00  9.000E+00
#rwgt            1           1 -0.19131124683049414                2      183017           0
</event>
<event>
      5   9999  3.79277E-02  6.59218E+01 -1.00000E+00  1.32555E-01
      21    -1     0     0   502   501  0.000000000E+00  0.000000000E+00  2.723482220E+02  2.723482220E+02  0.000000000E+00  0.00000E+00  9.000E+00
      21    -1     0     0   511   502  0.000000000E+00  0.000000000E+00 -7.989410426E+02  7.989410426E+02  0.000000000E+00  0.00000E+00  9.000E+00
      25     1     1     2     0     0 -5.249236638E+01  3.226799516E+01  2.219929105E+02  2.621116639E+02  1.250000000E+02  0.00000E+00  9.000E+00
      25     1     1     2     0     0  1.180880119E+02 -2.571825865E+01 -2.401428131E+02  2.964789673E+02  1.250000000E+02  0.00000E+00  9.000E+00
      21     1     1     2   511   501 -6.559564557E+01 -6.549736513E+00 -5.084429181E+02  5.126986334E+02  1.206313194E-05  0.00000E+00  9.000E+00
#rwgt            1           1   3.4071756294282406E-002           2      183133           0
</event>
<event>
      5   9999  3.79277E-02  6.27515E+01 -1.00000E+00  1.33671E-01
      21    -1     0     0   502   501  0.000000000E+00  0.000000000E+00  1.582450671E+03  1.582450671E+03  0.000000000E+00  0.00000E+00  9.000E+00
      21    -1     0     0   512   502  0.000000000E+00  0.000000000E+00 -4.689285869E+01  4.689285869E+01  0.000000000E+00  0.00000E+00  9.000E+00
      25     1     1     2     0     0 -6.692370402E+01  7.940737381E+01  1.493198155E+02  2.206937255E+02  1.250000000E+02  0.00000E+00  9.000E+00
      25     1     1     2     0     0  2.940039856E+01 -2.911070176E+01  1.267764279E+03  1.274583494E+03  1.250000000E+02  0.00000E+00  9.000E+00
      21     1     1     2   512   501  3.752330545E+01 -5.029667206E+01  1.184737175E+02  1.340663098E+02  0.000000000E+00  0.00000E+00  9.000E+00
#rwgt            1           1   3.4714381610758925E-002           2      183306           0
</event>
<event>
      5   9999  3.79277E-02  2.36328E+01 -1.00000E+00  1.60602E-01
      21    -1     0     0   502   501  0.000000000E+00  0.000000000E+00  9.043973951E+02  9.043973951E+02  0.000000000E+00  0.00000E+00  9.000E+00
      21    -1     0     0   501   511  0.000000000E+00  0.000000000E+00 -3.872054152E+01  3.872054152E+01  0.000000000E+00  0.00000E+00  9.000E+00
      25     1     1     2     0     0  2.586087962E+01  6.830994249E+01  6.277786961E+02  6.442562569E+02  1.250000000E+02  0.00000E+00  9.000E+00
      25     1     1     2     0     0 -4.174042989E+01 -8.581280523E+01  2.066379703E+02  2.596735485E+02  1.250000000E+02  0.00000E+00  9.000E+00
      21     1     1     2   502   511  1.587955027E+01  1.750286274E+01  3.126018722E+01  3.918813118E+01  3.371747881E-07  0.00000E+00  9.000E+00
#rwgt            1           1   4.8285242568006294E-002           2      183449           0
</event>
<event>
      5   9999  3.79277E-02  3.72151E+01 -1.00000E+00  1.46811E-01
      21    -1     0     0   512   501  0.000000000E+00  0.000000000E+00  2.956707797E+02  2.956707797E+02  0.000000000E+00  0.00000E+00  9.000E+00
      21    -1     0     0   501   502  0.000000000E+00  0.000000000E+00 -2.615236694E+02  2.615236694E+02  0.000000000E+00  0.00000E+00  9.000E+00
      25     1     1     2     0     0 -1.580785474E+02 -7.479575669E+01  7.072687388E+01  2.262974217E+02  1.250000000E+02  0.00000E+00  9.000E+00
      25     1     1     2     0     0  1.411111670E+02  4.167374060E+01 -1.283718704E+02  2.318477932E+02  1.250000000E+02  0.00000E+00  9.000E+00
      21     1     1     2   512   502  1.696738042E+01  3.312201610E+01  9.179210675E+01  9.904923428E+01  0.000000000E+00  0.00000E+00  9.000E+00
#rwgt            1           1   4.2815644305812556E-002           2      183647           0
</event>
<event>
      5   9999  3.79277E-02  2.93119E+01 -1.00000E+00  1.53743E-01
       2    -1     0     0   502     0  0.000000000E+00  0.000000000E+00  7.651840501E+02  7.651840501E+02  0.000000000E+00  0.00000E+00  9.000E+00
      21    -1     0     0   501   502  0.000000000E+00  0.000000000E+00 -2.951222905E+02  2.951222905E+02  0.000000000E+00  0.00000E+00  9.000E+00
      25     1     1     2     0     0  2.027236007E+02  3.098812011E+01  1.458215371E+02  2.809733840E+02  1.250000000E+02  0.00000E+00  9.000E+00
      25     1     1     2     0     0 -2.165789064E+02 -5.157553816E+00 -1.582358955E+02  2.959672646E+02  1.250000000E+02  0.00000E+00  9.000E+00
       2     1     1     2   501     0  1.385530578E+01 -2.583056630E+01  4.824761180E+02  4.833656919E+02  5.394796609E-06  0.00000E+00  9.000E+00
#rwgt            1           1   3.4148358820853535E-002           2      183730           0
</event>
<event>
      5   9999  3.79277E-02  4.89852E+01 -1.00000E+00  1.39586E-01
      21    -1     0     0   502   511  0.000000000E+00  0.000000000E+00  3.149515640E+02  3.149515640E+02  0.000000000E+00  0.00000E+00  9.000E+00
      21    -1     0     0   501   502  0.000000000E+00  0.000000000E+00 -1.526703181E+02  1.526703181E+02  0.000000000E+00  0.00000E+00  9.000E+00
      25     1     1     2     0     0 -9.056473559E+01  6.478246794E+01  1.116612102E+02  2.012261548E+02  1.250000000E+02  0.00000E+00  9.000E+00
      25     1     1     2     0     0  4.671847295E+01 -8.662395809E+01 -3.940839100E+01  1.639034689E+02  1.250000000E+02  0.00000E+00  9.000E+00
      21     1     1     2   501   511  4.384626264E+01  2.184149016E+01  9.002842666E+01  1.024922585E+02  9.536743164E-07  0.00000E+00  9.000E+00
#rwgt            1           1   3.2247007175759380E-002           2      183984           0
</event>
<event>
      5   9999  3.79277E-02  7.85735E+01 -1.00000E+00  1.28729E-01
      21    -1     0     0   512   501  0.000000000E+00  0.000000000E+00  7.079137911E+02  7.079137911E+02  0.000000000E+00  0.00000E+00  9.000E+00
      21    -1     0     0   501   502  0.000000000E+00  0.000000000E+00 -2.870913466E+02  2.870913466E+02  0.000000000E+00  0.00000E+00  9.000E+00
      25     1     1     2     0     0  1.496441368E+02 -1.859058136E+02  2.664735960E+02  3.789294348E+02  1.250000000E+02  0.00000E+00  9.000E+00
      25     1     1     2     0     0 -1.264164349E+02  1.108440582E+02 -1.777859638E+02  2.747733050E+02  1.250000000E+02  0.00000E+00  9.000E+00
      21     1     1     2   512   502 -2.322770190E+01  7.506175542E+01  3.321348122E+02  3.413023978E+02  3.814697266E-06  0.00000E+00  9.000E+00
#rwgt            1           1   4.9508057371934998E-002           2      184108           0
</event>
<event>
      5   9999  3.79277E-02  1.92393E+01 -1.00000E+00  1.67771E-01
      21    -1     0     0   511   501  0.000000000E+00  0.000000000E+00  1.683683365E+02  1.683683365E+02  0.000000000E+00  0.00000E+00  9.000E+00
      21    -1     0     0   501   502  0.000000000E+00  0.000000000E+00 -2.855330250E+02  2.855330250E+02  0.000000000E+00  0.00000E+00  9.000E+00
      25     1     1     2     0     0 -4.966995877E+01 -1.439200761E+02 -2.823397308E+01  1.990031415E+02  1.250000000E+02  0.00000E+00  9.000E+00
      25     1     1     2     0     0  4.335807725E+01  1.257456380E+02 -1.199374268E+02  2.184075884E+02  1.250000000E+02  0.00000E+00  9.000E+00
      21     1     1     2   511   502  6.311881525E+00  1.817443804E+01  3.100671127E+01  3.649063154E+01  4.768371582E-07  0.00000E+00  9.000E+00
#rwgt            1           1   4.6729294942864180E-002           2      184226           0
</event>
<event>
      5   9999  3.79277E-02  2.43027E+01 -1.00000E+00  1.59677E-01
      21    -1     0     0   512   501  0.000000000E+00  0.000000000E+00  2.032056065E+02  2.032056065E+02  0.000000000E+00  0.00000E+00  9.000E+00
      21    -1     0     0   501   502  0.000000000E+00  0.000000000E+00 -3.649612020E+02  3.649612020E+02  0.000000000E+00  0.00000E+00  9.000E+00
      25     1     1     2     0     0  1.622934737E+02  4.548295526E+01 -7.766508688E+01  2.237515062E+02  1.250000000E+02  0.00000E+00  9.000E+00
      25     1     1     2     0     0 -1.476926889E+02 -2.605520487E+01 -1.676835615E+02  2.573611876E+02  1.250000000E+02  0.00000E+00  9.000E+00
      21     1     1     2   512   502 -1.460078477E+01 -1.942775039E+01  8.359305291E+01  8.705411475E+01  9.536743164E-07  0.00000E+00  9.000E+00
#rwgt            1           1   4.2868103798290452E-002           2      184453           0
</event>
<event>
      5   9999  3.79277E-02  4.08666E+01 -1.00000E+00  1.44265E-01
      21    -1     0     0   502   511  0.000000000E+00  0.000000000E+00  3.834785507E+02  3.834785507E+02  0.000000000E+00  0.00000E+00  9.000E+00
      21    -1     0     0   501   502  0.000000000E+00  0.000000000E+00 -1.891196727E+02  1.891196727E+02  0.000000000E+00  0.00000E+00  9.000E+00
      25     1     1     2     0     0  8.472350911E+01 -6.593749882E+01  2.668763494E+02  3.136459989E+02  1.250000000E+02  0.00000E+00  9.000E+00
      25     1     1     2     0     0 -8.305229091E+01  1.067698808E+02 -1.001228336E+02  2.096355701E+02  1.250000000E+02  0.00000E+00  9.000E+00
      21     1     1     2   501   511 -1.671218208E+00 -4.083238195E+01  2.760536212E+01  4.931665443E+01  6.743495762E-07  0.00000E+00  9.000E+00
#rwgt            1           1   4.1234209148828797E-002           2      184654           0
</event>
<event>
      5   9999  3.79277E-02  1.73872E+02 -1.00000E+00  1.13907E-01
      21    -1     0     0   502   501  0.000000000E+00  0.000000000E+00  9.770800141E+02  9.770800141E+02  0.000000000E+00  0.00000E+00  9.000E+00
      21    -1     0     0   501   512  0.000000000E+00  0.000000000E+00 -4.240488382E+02  4.240488382E+02  0.000000000E+00  0.00000E+00  9.000E+00
      25     1     1     2     0     0 -1.252335247E+02  1.205210466E+02  1.645942374E+02  2.700463319E+02  1.250000000E+02  0.00000E+00  9.000E+00
      25     1     1     2     0     0  7.579373180E+01 -2.872164166E+02  7.020542943E+02  7.724915481E+02  1.250000000E+02  0.00000E+00  9.000E+00
      21     1     1     2   502   512  4.943979286E+01  1.666953700E+02 -3.136173559E+02  3.585909723E+02  5.394796609E-06  0.00000E+00  9.000E+00
#rwgt            1           1   3.4169375258726493E-002           2      184777           0
</event>
<event>
      5   9999  3.79277E-02  2.40651E+01 -1.00000E+00  1.60001E-01
      21    -1     0     0   502   501  0.000000000E+00  0.000000000E+00  3.271399497E+02  3.271399497E+02  0.000000000E+00  0.00000E+00  9.000E+00
      21    -1     0     0   511   502  0.000000000E+00  0.000000000E+00 -2.933625344E+02  2.933625344E+02  0.000000000E+00  0.00000E+00  9.000E+00
      25     1     1     2     0     0 -9.496005086E+01 -6.749966663E+01  1.499530922E+02  2.273423544E+02  1.250000000E+02  0.00000E+00  9.000E+00
      25     1     1     2     0     0  7.218544452E+01  7.527448087E+01  8.970785478E+01  1.858749178E+02  1.250000000E+02  0.00000E+00  9.000E+00
      21     1     1     2   511   501  2.277460634E+01 -7.774814239E+00 -2.058835316E+02  2.072852118E+02  3.814697266E-06  0.00000E+00  9.000E+00
#rwgt            1           1   3.1587647871947545E-002           2      184847           0
</event>
<event>
      5   9999  3.79277E-02  6.92667E+01 -1.00000E+00  1.31453E-01
      21    -1     0     0   502   501  0.000000000E+00  0.000000000E+00  4.317552793E+01  4.317552793E+01  0.000000000E+00  0.00000E+00  9.000E+00
      21    -1     0     0   501   512  0.000000000E+00  0.000000000E+00 -1.217723300E+03  1.217723300E+03  0.000000000E+00  0.00000E+00  9.000E+00
      25     1     1     2     0     0  1.275311834E+02 -1.135025189E+02 -4.041508509E+02  4.561906782E+02  1.250000000E+02  0.00000E+00  9.000E+00
      25     1     1     2     0     0 -6.660403470E+01  8.055167691E+01 -5.226303207E+02  5.474414326E+02  1.250000000E+02  0.00000E+00  9.000E+00
      21     1     1     2   502   512 -6.092714869E+01  3.295084200E+01 -2.477666007E+02  2.572667174E+02  4.672030912E-06  0.00000E+00  9.000E+00
#rwgt            1           1   4.1452800147562814E-002           2      185017           0
</event>
<event>
      5   9999  3.79277E-02  2.62497E+01 -1.00000E+00  1.57180E-01
      21    -1     0     0   502   501  0.000000000E+00  0.000000000E+00  1.698078047E+03  1.698078047E+03  0.000000000E+00  0.00000E+00  9.000E+00
      21    -1     0     0   501   511  0.000000000E+00  0.000000000E+00 -1.908122828E+02  1.908122828E+02  0.000000000E+00  0.00000E+00  9.000E+00
      25     1     1     2     0     0 -2.014229828E+00  5.043014892E+01  1.598636898E+03  1.604310503E+03  1.250000000E+02  0.00000E+00  9.000E+00
      25     1     1     2     0     0  1.668502439E+01 -2.866286641E+01  5.158514567E+01  1.392335348E+02  1.250000000E+02  0.00000E+00  9.000E+00
      21     1     1     2   502   511 -1.467079456E+01 -2.176728252E+01 -1.429562796E+02  1.453462923E+02  3.303624740E-06  0.00000E+00  9.000E+00
#rwgt            1           1   3.4683437235263653E-002           2      185193           0
</event>
<event>
      5   9999  3.79277E-02  8.43174E+01 -1.00000E+00  1.27254E-01
      21    -1     0     0   512   501  0.000000000E+00  0.000000000E+00  6.783139784E+01  6.783139784E+01  0.000000000E+00  0.00000E+00  9.000E+00
      21    -1     0     0   501   502  0.000000000E+00  0.000000000E+00 -1.005138944E+03  1.005138944E+03  0.000000000E+00  0.00000E+00  9.000E+00
      25     1     1     2     0     0  8.537686313E+01 -1.979415967E+02 -4.412035955E+02  5.067106641E+02  1.250000000E+02  0.00000E+00  9.000E+00
      25     1     1     2     0     0 -3.968480091E+01  1.270778774E+02 -3.907700645E+02  4.313350364E+02  1.250000000E+02  0.00000E+00  9.000E+00
      21     1     1     2   512   502 -4.569206222E+01  7.086371926E+01 -1.053338862E+02  1.349246414E+02  3.015782986E-06  0.00000E+00  9.000E+00
#rwgt            1           1   4.0944872446687174E-002           2      185416           0
</event>
<event>
      5   9999  3.79277E-02  6.56689E+01 -1.00000E+00  1.32641E-01
      21    -1     0     0   502   511  0.000000000E+00  0.000000000E+00  4.720015072E+02  4.720015072E+02  0.000000000E+00  0.00000E+00  9.000E+00
      21    -1     0     0   501   502  0.000000000E+00  0.000000000E+00 -1.765980406E+02  1.765980406E+02  0.000000000E+00  0.00000E+00  9.000E+00
      25     1     1     2     0     0 -1.405827981E+02  3.323736564E+01  3.159813415E+02  3.692390198E+02  1.250000000E+02  0.00000E+00  9.000E+00
      25     1     1     2     0     0  8.434411987E+01  6.685433450E-01 -9.646041599E+01  1.790083500E+02  1.250000000E+02  0.00000E+00  9.000E+00
      21     1     1     2   501   511  5.623867822E+01 -3.390590899E+01  7.588254115E+01  1.003521781E+02  0.000000000E+00  0.00000E+00  9.000E+00
#rwgt            1           1   1.4361666526672947E-002           2      185484           0
</event>
<event>
      5   9999  3.79277E-02  4.41930E+01 -1.00000E+00  1.42205E-01
      21    -1     0     0   502   501  0.000000000E+00  0.000000000E+00  7.994609419E+02  7.994609419E+02  0.000000000E+00  0.00000E+00  9.000E+00
      21    -1     0     0   501   512  0.000000000E+00  0.000000000E+00 -9.693964450E+01  9.693964450E+01  0.000000000E+00  0.00000E+00  9.000E+00
      25     1     1     2     0     0  8.402361791E+00  1.469324467E+02  1.280075633E+02  2.316693330E+02  1.250000000E+02  0.00000E+00  9.000E+00
      25     1     1     2     0     0  3.569446671E+01 -1.440178272E+02  5.874709185E+02  6.186778723E+02  1.250000000E+02  0.00000E+00  9.000E+00
      21     1     1     2   502   512 -4.409682850E+01 -2.914619483E+00 -1.295718441E+01  4.605338118E+01  1.052827938E-06  0.00000E+00  9.000E+00
#rwgt            1           1   4.5625706197654749E-002           2      185583           0
</event>
<event>
      5   9999  3.79277E-02  3.14075E+01 -1.00000E+00  1.51670E-01
      21    -1     0     0   511   501  0.000000000E+00  0.000000000E+00  1.896378902E+03  1.896378902E+03  0.000000000E+00  0.00000E+00  9.000E+00
      21    -1     0     0   501   502  0.000000000E+00  0.000000000E+00 -2.693999341E+01  2.693999341E+01  0.000000000E+00  0.00000E+00  9.000E+00
      25     1     1     2     0     0 -1.008313621E+02 -5.956131945E+01  1.394253364E+03  1.404735547E+03  1.250000000E+02  0.00000E+00  9.000E+00
      25     1     1     2     0     0  7.040523874E+01  5.177163925E+01  2.625099926E+02  3.036012129E+02  1.250000000E+02  0.00000E+00  9.000E+00
      21     1     1     2   511   502  3.042612337E+01  7.789680195E+00  2.126755520E+02  2.149821354E+02  0.000000000E+00  0.00000E+00  9.000E+00
#rwgt            1           1   4.5240018289699695E-002           2      185874           0
</event>
<event>
      5   9999  3.79277E-02  4.50113E+01 -1.00000E+00  1.41731E-01
      21    -1     0     0   502   501  0.000000000E+00  0.000000000E+00  4.264595330E+02  4.264595330E+02  0.000000000E+00  0.00000E+00  9.000E+00
      21    -1     0     0   512   502  0.000000000E+00  0.000000000E+00 -1.891881163E+02  1.891881163E+02  0.000000000E+00  0.00000E+00  9.000E+00
      25     1     1     2     0     0  5.358249001E+01  7.169089325E+01 -2.939853207E+01  1.565245703E+02  1.250000000E+02  0.00000E+00  9.000E+00
      25     1     1     2     0     0 -8.461992332E+01 -1.042898944E+02  3.322737345E+02  3.795625747E+02  1.250000000E+02  0.00000E+00  9.000E+00
      21     1     1     2   512   501  3.103743331E+01  3.259900112E+01 -6.560378574E+01  7.956050430E+01  2.132480600E-06  0.00000E+00  9.000E+00
#rwgt            1           1   3.9214279477936216E-002           2      186140           0
</event>
<event>
      5   9999  3.79277E-02  4.91840E+01 -1.00000E+00  1.39484E-01
      21    -1     0     0   502   501  0.000000000E+00  0.000000000E+00  1.946473374E+03  1.946473374E+03  0.000000000E+00  0.00000E+00  9.000E+00
      21    -1     0     0   511   502  0.000000000E+00  0.000000000E+00 -2.732523285E+01  2.732523285E+01  0.000000000E+00  0.00000E+00  9.000E+00
      25     1     1     2     0     0 -1.178413171E+02  6.779733170E+01  1.042061069E+03  1.058300206E+03  1.250000000E+02  0.00000E+00  9.000E+00
      25     1     1     2     0     0  8.420156123E+01 -1.036781421E+02  8.199483875E+02  8.401067898E+02  1.250000000E+02  0.00000E+00  9.000E+00
      21     1     1     2   511   501  3.363975591E+01  3.588081044E+01  5.713868403E+01  7.539161060E+01  2.336015456E-06  0.00000E+00  9.000E+00
#rwgt            1           1  0.10170920858552041                2      186292           0
</event>
<event>
      5   9999  3.79277E-02  2.02463E+02 -1.00000E+00  1.11455E-01
      21    -1     0     0   512   501  0.000000000E+00  0.000000000E+00  2.432836347E+02  2.432836347E+02  0.000000000E+00  0.00000E+00  9.000E+00
      21    -1     0     0   501   502  0.000000000E+00  0.000000000E+00 -7.508652540E+02  7.508652540E+02  0.000000000E+00  0.00000E+00  9.000E+00
      25     1     1     2     0     0  9.441842989E+01  1.943942650E+02 -2.180517307E+01  2.506081319E+02  1.250000000E+02  0.00000E+00  9.000E+00
      25     1     1     2     0     0 -7.187972794E+01  6.809920796E+00 -5.187056885E+02  5.384177389E+02  1.250000000E+02  0.00000E+00  9.000E+00
      21     1     1     2   512   502 -2.253870196E+01 -2.012041858E+02  3.292924230E+01  2.051230179E+02  4.317944116E-06  0.00000E+00  9.000E+00
#rwgt            2          11   2.3230147208516414E-003           2      186481           0
</event>
<event>
      5   9999  3.79277E-02  6.40661E+01 -1.00000E+00  1.33199E-01
      21    -1     0     0   502   501  0.000000000E+00  0.000000000E+00  4.752921353E+02  4.752921353E+02  0.000000000E+00  0.00000E+00  9.000E+00
      21    -1     0     0   501   511  0.000000000E+00  0.000000000E+00 -1.265010855E+02  1.265010855E+02  0.000000000E+00  0.00000E+00  9.000E+00
      25     1     1     2     0     0  1.269420567E+02 -4.493408296E+01  2.070149174E+02  2.767914985E+02  1.250000000E+02  0.00000E+00  9.000E+00
      25     1     1     2     0     0 -1.778994163E+02  6.103443701E+00  1.440678275E+02  2.608946018E+02  1.250000000E+02  0.00000E+00  9.000E+00
      21     1     1     2   502   511  5.095735957E+01  3.883063926E+01 -2.291695053E+00  6.410712055E+01  1.162672591E-06  0.00000E+00  9.000E+00
#rwgt            1           1   4.3126536737722820E-002           2      186576           0
</event>
<event>
      5   9999  3.79277E-02  6.51892E+01 -1.00000E+00  1.32806E-01
      21    -1     0     0   512   501  0.000000000E+00  0.000000000E+00  5.538709741E+02  5.538709741E+02  0.000000000E+00  0.00000E+00  9.000E+00
      21    -1     0     0   501   502  0.000000000E+00  0.000000000E+00 -1.067148100E+02  1.067148100E+02  0.000000000E+00  0.00000E+00  9.000E+00
      25     1     1     2     0     0  5.519038423E+01 -1.792093295E+02  1.349397817E+02  2.626703390E+02  1.250000000E+02  0.00000E+00  9.000E+00
      25     1     1     2     0     0 -1.117798479E+01  1.311203953E+02  2.306377900E+02  2.934898560E+02  1.250000000E+02  0.00000E+00  9.000E+00
      21     1     1     2   512   502 -4.401239944E+01  4.808893422E+01  8.157859250E+01  1.044255891E+02  9.536743164E-07  0.00000E+00  9.000E+00
#rwgt            1           1   4.1859239808093834E-002           2      186661           0
</event>
<event>
      5   9999  3.79277E-02  2.24679E+01 -1.00000E+00  1.62305E-01
      21    -1     0     0   502   501  0.000000000E+00  0.000000000E+00  2.183406933E+02  2.183406933E+02  0.000000000E+00  0.00000E+00  9.000E+00
      21    -1     0     0   501   511  0.000000000E+00  0.000000000E+00 -3.304159940E+02  3.304159940E+02  0.000000000E+00  0.00000E+00  9.000E+00
      25     1     1     2     0     0  1.670944570E+02  1.112849328E+02 -1.498083228E+01  2.369690258E+02  1.250000000E+02  0.00000E+00  9.000E+00
      25     1     1     2     0     0 -1.580577728E+02 -1.318554170E+02 -3.201179303E+01  2.429359286E+02  1.250000000E+02  0.00000E+00  9.000E+00
      21     1     1     2   502   511 -9.036684222E+00  2.057048417E+01 -6.508267540E+01  6.885173286E+01  1.348699152E-06  0.00000E+00  9.000E+00
#rwgt            1           1   3.9618642239893975E-002           2      186748           0
</event>
<event>
      5   9999  3.79277E-02  6.70188E+01 -1.00000E+00  1.32185E-01
      21    -1     0     0   502   501  0.000000000E+00  0.000000000E+00  5.491874732E+02  5.491874732E+02  0.000000000E+00  0.00000E+00  9.000E+00
      -4    -1     0     0     0   502  0.000000000E+00  0.000000000E+00 -1.648866556E+02  1.648866556E+02  0.000000000E+00  0.00000E+00  9.000E+00
      25     1     1     2     0     0  1.251980254E+02 -2.471382333E+01  4.338869404E+02  4.692208389E+02  1.250000000E+02  0.00000E+00  9.000E+00
      25     1     1     2     0     0 -1.014194588E+02 -3.794473394E+01 -7.162132943E+00  1.655355116E+02  1.250000000E+02  0.00000E+00  9.000E+00
      -4     1     1     2     0   501 -2.377856663E+01  6.265855728E+01 -4.242398984E+01  7.931777824E+01  9.536743164E-07  0.00000E+00  9.000E+00
#rwgt            1           1   4.1514752234790023E-002           2      187025           0
</event>
<event>
      5   9999  3.79277E-02  3.43989E+01 -1.00000E+00  1.49024E-01
      21    -1     0     0   502   511  0.000000000E+00  0.000000000E+00  1.272818640E+02  1.272818640E+02  0.000000000E+00  0.00000E+00  9.000E+00
      21    -1     0     0   501   502  0.000000000E+00  0.000000000E+00 -6.011636682E+02  6.011636682E+02  0.000000000E+00  0.00000E+00  9.000E+00
      25     1     1     2     0     0  2.239645547E+02  3.526411368E+01 -2.719604022E+02  3.754878691E+02  1.250000000E+02  0.00000E+00  9.000E+00
      25     1     1     2     0     0 -1.895740125E+02 -3.450464620E+01 -2.164636500E+02  3.156111351E+02  1.250000000E+02  0.00000E+00  9.000E+00
      21     1     1     2   501   511 -3.439054217E+01 -7.594674755E-01  1.454224799E+01  3.734652806E+01  4.129530925E-07  0.00000E+00  9.000E+00
#rwgt            1           1   3.3242938985673889E-002           2      187246           0
</event>
<event>
      5   9999  3.79277E-02  5.59661E+01 -1.00000E+00  1.36339E-01
      -1    -1     0     0     0   501  0.000000000E+00  0.000000000E+00  8.876124614E+02  8.876124614E+02  0.000000000E+00  0.00000E+00  9.000E+00
      21    -1     0     0   501   502  0.000000000E+00  0.000000000E+00 -7.776628564E+01  7.776628564E+01  0.000000000E+00  0.00000E+00  9.000E+00
      25     1     1     2     0     0 -5.619171746E+01  9.440817293E+01  7.166210611E+02  7.356909388E+02  1.250000000E+02  0.00000E+00  9.000E+00
      25     1     1     2     0     0  1.319451003E+00 -8.339733510E+01  4.806071540E+01  1.577710012E+02  1.250000000E+02  0.00000E+00  9.000E+00
      -1     1     1     2     0   502  5.487226645E+01 -1.101083783E+01  4.516439928E+01  7.191680706E+01  1.430511475E-06  0.00000E+00  9.000E+00
#rwgt            1           1   4.4164076983139046E-002           2      187355           0
</event>
<event>
      5   9999  3.79277E-02  1.12703E+02 -1.00000E+00  1.21536E-01
       2    -1     0     0   502     0  0.000000000E+00  0.000000000E+00  1.540995074E+03  1.540995074E+03  0.000000000E+00  0.00000E+00  9.000E+00
      21    -1     0     0   501   502  0.000000000E+00  0.000000000E+00 -7.208996933E+01  7.208996933E+01  0.000000000E+00  0.00000E+00  9.000E+00
      25     1     1     2     0     0  8.476246989E+01 -1.491661086E+02  2.964774568E+02  3.646355532E+02  1.250000000E+02  0.00000E+00  9.000E+00
      25     1     1     2     0     0 -2.249393463E+01  5.522725324E+01  1.017459415E+02  1.718524461E+02  1.250000000E+02  0.00000E+00  9.000E+00
       2     1     1     2   501     0 -6.226853525E+01  9.393885538E+01  1.070681706E+03  1.076597044E+03  0.000000000E+00  0.00000E+00  9.000E+00
#rwgt            2          18   4.9743349418645015E-004           2      187465           0
</event>
<event>
      5   9999  3.79277E-02  6.89517E+01 -1.00000E+00  1.31553E-01
      21    -1     0     0   502   501  0.000000000E+00  0.000000000E+00  8.725836472E+02  8.725836472E+02  0.000000000E+00  0.00000E+00  9.000E+00
      21    -1     0     0   501   511  0.000000000E+00  0.000000000E+00 -1.891843041E+02  1.891843041E+02  0.000000000E+00  0.00000E+00  9.000E+00
      25     1     1     2     0     0 -1.214546122E+01 -1.481846732E+02  7.388827089E+02  7.639887873E+02  1.250000000E+02  0.00000E+00  9.000E+00
      25     1     1     2     0     0  8.043169716E+01  1.577408573E+02 -6.911377390E+01  2.274931861E+02  1.250000000E+02  0.00000E+00  9.000E+00
      21     1     1     2   502   511 -6.828623594E+01 -9.556184081E+00  1.363040808E+01  7.028597796E+01  1.854461334E-06  0.00000E+00  9.000E+00
#rwgt            1           1   5.2835602557192995E-002           2      187724           0
</event>
<event>
      5   9999  3.79277E-02  4.25148E+01 -1.00000E+00  1.43217E-01
      21    -1     0     0   502   501  0.000000000E+00  0.000000000E+00  2.371203803E+02  2.371203803E+02  0.000000000E+00  0.00000E+00  9.000E+00
      21    -1     0     0   501   512  0.000000000E+00  0.000000000E+00 -3.120417490E+02  3.120417490E+02  0.000000000E+00  0.00000E+00  9.000E+00
      25     1     1     2     0     0  6.979697887E+01  2.010082471E+02  6.367644066E+01  2.548639299E+02  1.250000000E+02  0.00000E+00  9.000E+00
      25     1     1     2     0     0 -4.561204465E+01 -1.660425588E+02 -9.380152647E+01  2.325388490E+02  1.250000000E+02  0.00000E+00  9.000E+00
      21     1     1     2   502   512 -2.418493421E+01 -3.496568830E+01 -4.479628286E+01  6.175935038E+01  8.259061849E-07  0.00000E+00  9.000E+00
#rwgt            1           1   9.7660533857646267E-002           2      187993           0
</event>
<event>
      5   9999  3.79277E-02  4.30529E+01 -1.00000E+00  1.42887E-01
      21    -1     0     0   502   511  0.000000000E+00  0.000000000E+00  8.433910136E+01  8.433910136E+01  0.000000000E+00  0.00000E+00  9.000E+00
      21    -1     0     0   501   502  0.000000000E+00  0.000000000E+00 -6.136099209E+02  6.136099209E+02  0.000000000E+00  0.00000E+00  9.000E+00
      25     1     1     2     0     0  6.916162763E+01  5.153720352E+01 -4.370616357E+02  4.626956748E+02  1.250000000E+02  0.00000E+00  9.000E+00
      25     1     1     2     0     0 -7.440446515E+01 -9.426969740E+01 -7.220803260E+01  1.877812564E+02  1.250000000E+02  0.00000E+00  9.000E+00
      21     1     1     2   501   511  5.242837518E+00  4.273249388E+01 -2.000115125E+01  4.747209106E+01  2.384185791E-07  0.00000E+00  9.000E+00
#rwgt            1           1   3.4227387332618972E-002           2      188145           0
</event>
<event>
      5   9999 -3.79277E-02  4.18424E+01 -1.00000E+00  1.43638E-01
      21    -1     0     0   502   501  0.000000000E+00  0.000000000E+00  4.687373043E+02  4.687373043E+02  0.000000000E+00  0.00000E+00  9.000E+00
      21    -1     0     0   501   512  0.000000000E+00  0.000000000E+00 -1.215750742E+02  1.215750742E+02  0.000000000E+00  0.00000E+00  9.000E+00
      25     1     1     2     0     0  5.846548973E+01  2.319998428E+01 -3.896990240E+01  1.452587555E+02  1.250000000E+02  0.00000E+00  9.000E+00
      25     1     1     2     0     0 -7.816593448E+01 -6.011449138E+01  3.649238375E+02  3.981432815E+02  1.250000000E+02  0.00000E+00  9.000E+00
      21     1     1     2   502   512  1.970044475E+01  3.691450710E+01  2.120829497E+01  4.691034143E+01  1.118282261E-06  0.00000E+00  9.000E+00
#rwgt            1           1  -8.6979863479470412E-002           2      188321           0
</event>
<event>
      5   9999  3.79277E-02  4.20997E+01 -1.00000E+00  1.43476E-01
      21    -1     0     0   502   501  0.000000000E+00  0.000000000E+00  2.849329014E+02  2.849329014E+02  0.000000000E+00  0.00000E+00  9.000E+00
      21    -1     0     0   511   502  0.000000000E+00  0.000000000E+00 -5.072292516E+02  5.072292516E+02  0.000000000E+00  0.00000E+00  9.000E+00
      25     1     1     2     0     0  7.378014038E-01 -2.222155900E+02  2.186493461E+01  2.558972219E+02  1.250000000E+02  0.00000E+00  9.000E+00
      25     1     1     2     0     0  2.677606561E+01  2.540804408E+02  4.102614102E+00  2.844567797E+02  1.250000000E+02  0.00000E+00  9.000E+00
      21     1     1     2   511   501 -2.751386701E+01 -3.186485077E+01 -2.482638990E+02  2.518081514E+02  0.000000000E+00  0.00000E+00  9.000E+00
#rwgt            1           1   4.3150266947305109E-002           2      188451           0
</event>
<event>
      5   9999  3.79277E-02  2.42617E+02 -1.00000E+00  1.08677E-01
      21    -1     0     0   512   501  0.000000000E+00  0.000000000E+00  8.066178921E+02  8.066178921E+02  0.000000000E+00  0.00000E+00  9.000E+00
      21    -1     0     0   501   502  0.000000000E+00  0.000000000E+00 -2.362661333E+02  2.362661333E+02  0.000000000E+00  0.00000E+00  9.000E+00
      25     1     1     2     0     0 -6.684108554E+01  3.782820916E+01  4.816386257E+01  1.544132824E+02  1.250000000E+02  0.00000E+00  9.000E+00
      25     1     1     2     0     0  2.183440353E+02 -2.273276449E+02  3.083367943E+01  3.404815585E+02  1.250000000E+02  0.00000E+00  9.000E+00
      21     1     1     2   512   502 -1.515029497E+02  1.894994357E+02  4.913542168E+02  5.479891845E+02  5.394796609E-06  0.00000E+00  9.000E+00
#rwgt            1           1   4.2827211162624057E-002           2      188566           0
</event>
<event>
      5   9999  3.79277E-02  4.18220E+01 -1.00000E+00  1.43651E-01
      21    -1     0     0   502   511  0.000000000E+00  0.000000000E+00  5.848552290E+02  5.848552290E+02  0.000000000E+00  0.00000E+00  9.000E+00
      21    -1     0     0   501   502  0.000000000E+00  0.000000000E+00 -1.835756604E+02  1.835756604E+02  0.000000000E+00  0.00000E+00  9.000E+00
      25     1     1     2     0     0  1.897209818E+02  3.694022167E+01  4.213983889E+02  4.801668805E+02  1.250000000E+02  0.00000E+00  9.000E+00
      25     1     1     2     0     0 -1.568519016E+02 -1.108090907E+01 -7.916195427E+01  2.159095195E+02  1.250000000E+02  0.00000E+00  9.000E+00
      21     1     1     2   501   511 -3.286908019E+01 -2.585931261E+01  5.904313393E+01  7.235448946E+01  6.743495762E-07  0.00000E+00  9.000E+00
#rwgt            1           1  0.33978872266573135                2      188645           0
</event>
<event>
      5   9999  3.79277E-02  4.38131E+01 -1.00000E+00  1.42430E-01
      21    -1     0     0   512   501  0.000000000E+00  0.000000000E+00  1.551956376E+03  1.551956376E+03  0.000000000E+00  0.00000E+00  9.000E+00
      21    -1     0     0   501   502  0.000000000E+00  0.000000000E+00 -1.116355542E+02  1.116355542E+02  0.000000000E+00  0.00000E+00  9.000E+00
      25     1     1     2     0     0 -6.506211437E+01  3.512995742E+02  7.331470712E+02  8.250903572E+02  1.250000000E+02  0.00000E+00  9.000E+00
      25     1     1     2     0     0  3.522363522E+01 -3.833815419E+02  6.123246304E+02  7.340221823E+02  1.250000000E+02  0.00000E+00  9.000E+00
      21     1     1     2   512   502  2.983847915E+01  3.208196765E+01  9.484912015E+01  1.044793907E+02  0.000000000E+00  0.00000E+00  9.000E+00
#rwgt            1           1   4.9048068060376385E-002           2      188888           0
</event>
<event>
      5   9999  3.79277E-02  7.19317E+01 -1.00000E+00  1.30625E-01
      21    -1     0     0   502   501  0.000000000E+00  0.000000000E+00  1.094732235E+03  1.094732235E+03  0.000000000E+00  0.00000E+00  9.000E+00
      21    -1     0     0   511   502  0.000000000E+00  0.000000000E+00 -1.547394722E+02  1.547394722E+02  0.000000000E+00  0.00000E+00  9.000E+00
      25     1     1     2     0     0  9.715981865E+01  3.290570706E+02  6.336272096E+02  7.313186903E+02  1.250000000E+02  0.00000E+00  9.000E+00
      25     1     1     2     0     0 -1.489154954E+02 -2.791018344E+02  2.831282620E+02  4.425610370E+02  1.250000000E+02  0.00000E+00  9.000E+00
      21     1     1     2   511   501  5.175567675E+01 -4.995523613E+01  2.323729083E+01  7.559197959E+01  8.920806376E-07  0.00000E+00  9.000E+00
#rwgt            1           1  0.42992342226384972                2      189274           0
</event>
<event>
      5   9999  3.79277E-02  6.10563E+01 -1.00000E+00  1.34300E-01
      21    -1     0     0   502   501  0.000000000E+00  0.000000000E+00  1.633095753E+03  1.633095753E+03  0.000000000E+00  0.00000E+00  9.000E+00
      21    -1     0     0   512   502  0.000000000E+00  0.000000000E+00 -5.101836097E+01  5.101836097E+01  0.000000000E+00  0.00000E+00  9.000E+00
      25     1     1     2     0     0 -1.833103009E+02  1.017599648E+02  9.072831312E+02  9.395453352E+02  1.250000000E+02  0.00000E+00  9.000E+00
      25     1     1     2     0     0  1.232722803E+02 -9.065568585E+01  6.487830406E+02  6.782027294E+02  1.250000000E+02  0.00000E+00  9.000E+00
      21     1     1     2   512   501  6.003802067E+01 -1.110427896E+01  2.601122049E+01  6.636604952E+01  1.877309769E-06  0.00000E+00  9.000E+00
#rwgt            2          11   1.8614053385851792E-003           2      189543           0
</event>
<event>
      5   9999  3.79277E-02  1.67167E+01 -1.00000E+00  1.73062E-01
      21    -1     0     0   511   501  0.000000000E+00  0.000000000E+00  8.045563472E+02  8.045563472E+02  0.000000000E+00  0.00000E+00  9.000E+00
      21    -1     0     0   501   502  0.000000000E+00  0.000000000E+00 -1.245325933E+02  1.245325933E+02  0.000000000E+00  0.00000E+00  9.000E+00
      25     1     1     2     0     0  1.269228762E+02  4.522305526E+01 -2.102501748E+01  1.849907906E+02  1.250000000E+02  0.00000E+00  9.000E+00
      25     1     1     2     0     0 -1.190283189E+02 -3.048789463E+01  3.387172803E+02  3.813812376E+02  1.250000000E+02  0.00000E+00  9.000E+00
      21     1     1     2   511   502 -7.894557285E+00 -1.473516063E+01  3.623314911E+02  3.627169123E+02  9.344061824E-06  0.00000E+00  9.000E+00
#rwgt            1           1   4.4958677621794167E-002           2      189563           0
</event>
<event>
      5   9999  3.79277E-02  2.11419E+01 -1.00000E+00  1.64404E-01
      -3    -1     0     0     0   501  0.000000000E+00  0.000000000E+00  1.469600524E+02  1.469600524E+02  0.000000000E+00  0.00000E+00  9.000E+00
      21    -1     0     0   501   502  0.000000000E+00  0.000000000E+00 -4.385187949E+02  4.385187949E+02  0.000000000E+00  0.00000E+00  9.000E+00
      25     1     1     2     0     0  1.327872193E+01  4.882768248E+01 -2.256569101E+01  1.367284807E+02  1.250000000E+02  0.00000E+00  9.000E+00
      25     1     1     2     0     0 -3.441462859E+01 -4.933133677E+01 -3.439494177E+02  3.708694506E+02  1.250000000E+02  0.00000E+00  9.000E+00
      -3     1     1     2     0   502  2.113590666E+01  5.036542960E-01  7.495636623E+01  7.788091587E+01  1.348699152E-06  0.00000E+00  9.000E+00
#rwgt            1           1   3.6806415175245882E-002           2      189737           0
</event>
<event>
      5   9999  3.79277E-02  7.86902E+01 -1.00000E+00  1.28697E-01
      21    -1     0     0   502   501  0.000000000E+00  0.000000000E+00  6.387575563E+02  6.387575563E+02  0.000000000E+00  0.00000E+00  9.000E+00
      21    -1     0     0   501   511  0.000000000E+00  0.000000000E+00 -1.161342271E+02  1.161342271E+02  0.000000000E+00  0.00000E+00  9.000E+00
      25     1     1     2     0     0  3.476195802E+01 -6.879170806E+01  4.141045400E+02  4.393725787E+02  1.250000000E+02  0.00000E+00  9.000E+00
      25     1     1     2     0     0  4.051180237E+01  9.172674594E+01  1.559762212E+02  2.236259905E+02  1.250000000E+02  0.00000E+00  9.000E+00
      21     1     1     2   502   511 -7.527376039E+01 -2.293503789E+01 -4.745743195E+01  9.189321419E+01  1.784161275E-06  0.00000E+00  9.000E+00
#rwgt            1           1   4.0202138450201472E-002           2      189898           0
</event>
<event>
      5   9999  3.79277E-02  3.02616E+01 -1.00000E+00  1.52778E-01
      21    -1     0     0   502   501  0.000000000E+00  0.000000000E+00  1.033530575E+02  1.033530575E+02  0.000000000E+00  0.00000E+00  9.000E+00
      21    -1     0     0   512   502  0.000000000E+00  0.000000000E+00 -3.973875331E+02  3.973875331E+02  0.000000000E+00  0.00000E+00  9.000E+00
      25     1     1     2     0     0 -1.031810469E+02 -6.478724081E+01 -7.510617568E+01  1.900254000E+02  1.250000000E+02  0.00000E+00  9.000E+00
      25     1     1     2     0     0  1.320777204E+02  5.580125889E+01 -1.880961316E+02  2.675134752E+02  1.250000000E+02  0.00000E+00  9.000E+00
      21     1     1     2   512   501 -2.889667351E+01  8.985981919E+00 -3.083216831E+01  4.320171540E+01  5.840038640E-07  0.00000E+00  9.000E+00
#rwgt            1           1   3.9253522535102892E-002           2      189982           0
</event>
<event>
      5   9999 -3.79277E-02  8.28203E+01 -1.00000E+00  1.27625E-01
      21    -1     0     0   502   511  0.000000000E+00  0.000000000E+00  5.597033463E+01  5.597033463E+01  0.000000000E+00  0.00000E+00  9.000E+00
      21    -1     0     0   501   502  0.000000000E+00  0.000000000E+00 -1.104748908E+03  1.104748908E+03  0.000000000E+00  0.00000E+00  9.000E+00
      25     1     1     2     0     0  1.044530876E+02 -6.424987780E+01 -4.163854400E+02  4.517082343E+02  1.250000000E+02  0.00000E+00  9.000E+00
      25     1     1     2     0     0 -1.543426714E+02  1.303576181E+02 -4.795722057E+02  5.351908719E+02  1.250000000E+02  0.00000E+00  9.000E+00
      21     1     1     2   501   511  4.988958383E+01 -6.610774032E+01 -1.528209275E+02  1.738201363E+02  3.814697266E-06  0.00000E+00  9.000E+00
#rwgt            1           1  -9.2819396981024538E-002           2      190146           0
</event>
<event>
      5   9999  3.79277E-02  5.26795E+01 -1.00000E+00  1.37794E-01
      21    -1     0     0   512   501  0.000000000E+00  0.000000000E+00  1.639997442E+02  1.639997442E+02  0.000000000E+00  0.00000E+00  9.000E+00
      21    -1     0     0   501   502  0.000000000E+00  0.000000000E+00 -4.644718962E+02  4.644718962E+02  0.000000000E+00  0.00000E+00  9.000E+00
      25     1     1     2     0     0 -1.187261938E+02  1.065806128E+02 -2.692925670E+02  3.370442445E+02  1.250000000E+02  0.00000E+00  9.000E+00
      25     1     1     2     0     0  1.133054330E+02 -1.589804813E+02 -3.327619497E+00  2.318382790E+02  1.250000000E+02  0.00000E+00  9.000E+00
      21     1     1     2   512   502  5.420760827E+00  5.239986852E+01 -2.785196548E+01  5.958911687E+01  1.011524364E-06  0.00000E+00  9.000E+00
#rwgt            1           1   4.4990563094937056E-002           2      190280           0
</event>
<event>
      5   9999  3.79277E-02  4.71167E+01 -1.00000E+00  1.40563E-01
      21    -1     0     0   511   501  0.000000000E+00  0.000000000E+00  5.929342564E+01  5.929342564E+01  0.000000000E+00  0.00000E+00  9.000E+00
      21    -1     0     0   501   502  0.000000000E+00  0.000000000E+00 -9.831625780E+02  9.831625780E+02  0.000000000E+00  0.00000E+00  9.000E+00
      25     1     1     2     0     0  1.740861991E+02  6.241452671E+01 -4.177569683E+02  4.736533146E+02  1.250000000E+02  0.00000E+00  9.000E+00
      25     1     1     2     0     0 -1.328979340E+02 -8.529492507E+01 -4.631294891E+02  5.050257506E+02  1.250000000E+02  0.00000E+00  9.000E+00
      21     1     1     2   511   502 -4.118826510E+01  2.288039836E+01 -4.298269493E+01  6.377693842E+01  1.168007728E-06  0.00000E+00  9.000E+00
#rwgt            1           1   4.4422207739019753E-002           2      190386           0
</event>
<event>
      5   9999  3.79277E-02  2.35991E+01 -1.00000E+00  1.60650E-01
       2    -1     0     0   502     0  0.000000000E+00  0.000000000E+00  6.788525095E+02  6.788525095E+02  0.000000000E+00  0.00000E+00  9.000E+00
      21    -1     0     0   501   502  0.000000000E+00  0.000000000E+00 -2.886539283E+02  2.886539283E+02  0.000000000E+00  0.00000E+00  9.000E+00
      25     1     1     2     0     0 -1.088890740E+02  4.117440325E+01  7.166595501E+01  1.852381468E+02  1.250000000E+02  0.00000E+00  9.000E+00
      25     1     1     2     0     0  1.066427839E+02 -1.768241161E+01 -2.021205411E+02  2.610805703E+02  1.250000000E+02  0.00000E+00  9.000E+00
       2     1     1     2   501     0  2.246290130E+00 -2.349199164E+01  5.206531674E+02  5.211877207E+02  0.000000000E+00  0.00000E+00  9.000E+00
#rwgt            1           1   2.5137497018471434E-002           2      190517           0
</event>
<event>
      5   9999  3.79277E-02  4.78998E+00 -1.00000E+00  2.46294E-01
      21    -1     0     0   502   511  0.000000000E+00  0.000000000E+00  1.884801868E+02  1.884801868E+02  0.000000000E+00  0.00000E+00  9.000E+00
      21    -1     0     0   501   502  0.000000000E+00  0.000000000E+00 -2.403412055E+02  2.403412055E+02  0.000000000E+00  0.00000E+00  9.000E+00
      25     1     1     2     0     0 -9.731736938E+01  3.889773720E+01 -1.705001597E-01  1.631218361E+02  1.250000000E+02  0.00000E+00  9.000E+00
      25     1     1     2     0     0  9.259821552E+01 -3.971841281E+01 -1.179787624E+02  1.992384758E+02  1.250000000E+02  0.00000E+00  9.000E+00
      21     1     1     2   501   511  4.719153862E+00  8.206756098E-01  6.628824391E+01  6.646108036E+01  1.651812370E-06  0.00000E+00  9.000E+00
#rwgt            1           1   5.7548069879367447E-002           2      190702           0
</event>
<event>
      5   9999  3.79277E-02  3.46259E+02 -1.00000E+00  1.03607E-01
      21    -1     0     0   502   501  0.000000000E+00  0.000000000E+00  6.295409229E+01  6.295409229E+01  0.000000000E+00  0.00000E+00  9.000E+00
      21    -1     0     0   501   512  0.000000000E+00  0.000000000E+00 -3.077200725E+03  3.077200725E+03  0.000000000E+00  0.00000E+00  9.000E+00
      25     1     1     2     0     0  3.231111508E+02  1.768241256E+02 -1.079208615E+03  1.147163380E+03  1.250000000E+02  0.00000E+00  9.000E+00
      25     1     1     2     0     0 -5.935831657E+00 -3.791608765E+01 -5.123258365E+02  5.287491149E+02  1.250000000E+02  0.00000E+00  9.000E+00
      21     1     1     2   502   512 -3.171753192E+02 -1.389080380E+02 -1.422712181E+03  1.464242322E+03  1.525878906E-05  0.00000E+00  9.000E+00
#rwgt            2          11   7.8017959310175319E-005           2      191199           0
</event>
<event>
      5   9999  3.79277E-02  7.70979E+01 -1.00000E+00  1.29131E-01
      21    -1     0     0   502   511  0.000000000E+00  0.000000000E+00  2.327992548E+02  2.327992548E+02  0.000000000E+00  0.00000E+00  9.000E+00
      21    -1     0     0   501   502  0.000000000E+00  0.000000000E+00 -8.159683885E+02  8.159683885E+02  0.000000000E+00  0.00000E+00  9.000E+00
      25     1     1     2     0     0  1.345223722E+02 -9.023831778E+01 -1.115923935E+02  2.330602602E+02  1.250000000E+02  0.00000E+00  9.000E+00
      25     1     1     2     0     0 -1.511374417E+02  1.655245786E+02 -6.074746572E+02  6.594629417E+02  1.250000000E+02  0.00000E+00  9.000E+00
      21     1     1     2   501   511  1.661506947E+01 -7.528626081E+01  1.358979170E+02  1.562444414E+02  2.697398305E-06  0.00000E+00  9.000E+00
#rwgt            1           1   5.0401315771573023E-002           2      191264           0
</event>
<event>
      5   9999  3.79277E-02  1.05765E+02 -1.00000E+00  1.22743E-01
      21    -1     0     0   502   501  0.000000000E+00  0.000000000E+00  1.502990884E+02  1.502990884E+02  0.000000000E+00  0.00000E+00  9.000E+00
       2    -1     0     0   501     0  0.000000000E+00  0.000000000E+00 -2.037674033E+03  2.037674033E+03  0.000000000E+00  0.00000E+00  9.000E+00
      25     1     1     2     0     0  1.527108881E+02 -1.017591029E+02  1.423532881E+01  2.224930896E+02  1.250000000E+02  0.00000E+00  9.000E+00
      25     1     1     2     0     0 -9.059834020E+01  1.873639797E+02 -4.612226954E+02  5.212146341E+02  1.250000000E+02  0.00000E+00  9.000E+00
       2     1     1     2   502     0 -6.211254787E+01 -8.560487684E+01 -1.440387578E+03  1.444265397E+03  2.157918644E-05  0.00000E+00  9.000E+00
#rwgt            1           1   3.7867438756591293E-002           2      191365           0
</event>
<event>
      5   9999  3.79277E-02  2.96146E+01 -1.00000E+00  1.53431E-01
      21    -1     0     0   502   501  0.000000000E+00  0.000000000E+00  3.971627806E+02  3.971627806E+02  0.000000000E+00  0.00000E+00  9.000E+00
      21    -1     0     0   501   511  0.000000000E+00  0.000000000E+00 -1.573316297E+02  1.573316297E+02  0.000000000E+00  0.00000E+00  9.000E+00
      25     1     1     2     0     0  1.633181683E+02  5.568312968E+01  8.374603257E+01  2.289363077E+02  1.250000000E+02  0.00000E+00  9.000E+00
      25     1     1     2     0     0 -1.892933382E+02 -4.145929195E+01  1.758114654E+02  2.899750198E+02  1.250000000E+02  0.00000E+00  9.000E+00
      21     1     1     2   502   511  2.597516988E+01 -1.422383774E+01 -1.972634709E+01  3.558308277E+01  7.907449699E-07  0.00000E+00  9.000E+00
#rwgt            1           1   3.5625074921839667E-002           2      191713           0
</event>
<event>
      5   9999  3.79277E-02  3.37551E+01 -1.00000E+00  1.49565E-01
      21    -1     0     0   502   501  0.000000000E+00  0.000000000E+00  1.684049000E+02  1.684049000E+02  0.000000000E+00  0.00000E+00  9.000E+00
      21    -1     0     0   501   512  0.000000000E+00  0.000000000E+00 -1.707455390E+03  1.707455390E+03  0.000000000E+00  0.00000E+00  9.000E+00
      25     1     1     2     0     0  1.664084745E+02 -5.588379785E+01 -5.217430429E+01  2.217249135E+02  1.250000000E+02  0.00000E+00  9.000E+00
      25     1     1     2     0     0 -1.567925774E+02  2.352728710E+01 -3.870844393E+01  2.055742912E+02  1.250000000E+02  0.00000E+00  9.000E+00
      21     1     1     2   502   512 -9.615897043E+00  3.235651075E+01 -1.448167742E+03  1.448561085E+03  2.157918644E-05  0.00000E+00  9.000E+00
#rwgt            1           1   3.5113379904523630E-002           2      191987           0
</event>
<event>
      5   9999  3.79277E-02  1.49857E+02 -1.00000E+00  1.16410E-01
      21    -1     0     0   502   501  0.000000000E+00  0.000000000E+00  5.835812837E+02  5.835812837E+02  0.000000000E+00  0.00000E+00  9.000E+00
      21    -1     0     0   511   502  0.000000000E+00  0.000000000E+00 -5.261717021E+02  5.261717021E+02  0.000000000E+00  0.00000E+00  9.000E+00
      25     1     1     2     0     0  2.265415976E+02 -9.249624930E+00 -6.256953610E+01  2.663580257E+02  1.250000000E+02  0.00000E+00  9.000E+00
      25     1     1     2     0     0 -3.296334289E+02 -9.951228622E+01  3.897008020E+02  5.348388614E+02  1.250000000E+02  0.00000E+00  9.000E+00
      21     1     1     2   511   501  1.030918313E+02  1.087619112E+02 -2.697216844E+02  3.085560987E+02  5.394796609E-06  0.00000E+00  9.000E+00
#rwgt            1           1   3.5121803811191593E-002           2      192125           0
</event>
<event>
      5   9999 -3.79277E-02  1.35290E+01 -1.00000E+00  1.81713E-01
      21    -1     0     0   502   501  0.000000000E+00  0.000000000E+00  1.865778880E+03  1.865778880E+03  0.000000000E+00  0.00000E+00  9.000E+00
      21    -1     0     0   501   512  0.000000000E+00  0.000000000E+00 -1.220461860E+02  1.220461860E+02  0.000000000E+00  0.00000E+00  9.000E+00
      25     1     1     2     0     0  6.571396288E+01  2.087176819E+02  6.983294068E+02  7.424084833E+02  1.250000000E+02  0.00000E+00  9.000E+00
      25     1     1     2     0     0 -6.735071242E+01 -1.952880200E+02  1.132155430E+03  1.157615846E+03  1.250000000E+02  0.00000E+00  9.000E+00
      21     1     1     2   502   512  1.636749534E+00 -1.342966191E+01 -8.675214372E+01  8.780073581E+01  9.536743164E-07  0.00000E+00  9.000E+00
#rwgt            1           1 -0.21428609667080201                2      192200           0
</event>
<event>
      5   9999 -3.79277E-02  7.18586E+01 -1.00000E+00  1.30647E-01
      21    -1     0     0   502   501  0.000000000E+00  0.000000000E+00  3.030045484E+02  3.030045484E+02  0.000000000E+00  0.00000E+00  9.000E+00
      21    -1     0     0   511   502  0.000000000E+00  0.000000000E+00 -3.940885420E+02  3.940885420E+02  0.000000000E+00  0.00000E+00  9.000E+00
      25     1     1     2     0     0  7.604371977E+01 -1.203250823E+02  1.134633664E+02  2.208160054E+02  1.250000000E+02  0.00000E+00  9.000E+00
      25     1     1     2     0     0 -1.105396030E+02  1.833623119E+02  1.190497164E+01  2.482085204E+02  1.250000000E+02  0.00000E+00  9.000E+00
      21     1     1     2   511   501  3.449588326E+01 -6.303722961E+01 -2.164523316E+02  2.280685645E+02  3.814697266E-06  0.00000E+00  9.000E+00
#rwgt            1           1 -0.28172717009551318                2      192419           0
</event>
<event>
      5   9999  3.79277E-02  3.68512E+01 -1.00000E+00  1.47084E-01
      21    -1     0     0   502   501  0.000000000E+00  0.000000000E+00  1.671858247E+02  1.671858247E+02  0.000000000E+00  0.00000E+00  9.000E+00
      21    -1     0     0   512   502  0.000000000E+00  0.000000000E+00 -1.894398274E+02  1.894398274E+02  0.000000000E+00  0.00000E+00  9.000E+00
      25     1     1     2     0     0  6.147776108E+01  8.182471700E+01 -2.216890206E+01  1.630682668E+02  1.250000000E+02  0.00000E+00  9.000E+00
      25     1     1     2     0     0 -5.642714232E+01 -4.532128673E+01  2.811868494E+01  1.471519686E+02  1.250000000E+02  0.00000E+00  9.000E+00
      21     1     1     2   512   501 -5.050618752E+00 -3.650343027E+01 -2.820378559E+01  4.640541664E+01  4.768371582E-07  0.00000E+00  9.000E+00
#rwgt            1           1   3.2324366393653402E-002           2      192534           0
</event>
<event>
      5   9999  3.79277E-02  4.28855E+01 -1.00000E+00  1.42989E-01
      21    -1     0     0   502   501  0.000000000E+00  0.000000000E+00  3.050636600E+01  3.050636600E+01  0.000000000E+00  0.00000E+00  9.000E+00
      21    -1     0     0   501   511  0.000000000E+00  0.000000000E+00 -2.891224377E+03  2.891224377E+03  0.000000000E+00  0.00000E+00  9.000E+00
      25     1     1     2     0     0  6.661438201E+01  7.251052009E+01 -2.088882855E+02  2.625920167E+02  1.250000000E+02  0.00000E+00  9.000E+00
      25     1     1     2     0     0 -3.397067532E+01 -4.469769842E+01 -1.428414963E+03  1.434972542E+03  1.250000000E+02  0.00000E+00  9.000E+00
      21     1     1     2   502   511 -3.264370669E+01 -2.781282167E+01 -1.223414762E+03  1.224166184E+03  0.000000000E+00  0.00000E+00  9.000E+00
#rwgt            1           1   1.8819130723175627E-002           2      192759           0
</event>
<event>
      5   9999  3.79277E-02  2.25369E+01 -1.00000E+00  1.62201E-01
       2    -1     0     0   502     0  0.000000000E+00  0.000000000E+00  1.272149195E+03  1.272149195E+03  0.000000000E+00  0.00000E+00  9.000E+00
      21    -1     0     0   501   502  0.000000000E+00  0.000000000E+00 -1.525234729E+02  1.525234729E+02  0.000000000E+00  0.00000E+00  9.000E+00
      25     1     1     2     0     0  2.905869022E+01  1.740127688E+02  8.193396251E+00  2.163723248E+02  1.250000000E+02  0.00000E+00  9.000E+00
      25     1     1     2     0     0 -4.500350968E+01 -1.580856366E+02  1.724177622E+02  2.690153697E+02  1.250000000E+02  0.00000E+00  9.000E+00
       2     1     1     2   501     0  1.594481946E+01 -1.592713216E+01  9.390145635E+02  9.392849734E+02  0.000000000E+00  0.00000E+00  9.000E+00
#rwgt            1           1   4.1525603946373967E-002           2      192894           0
</event>
<event>
      5   9999  3.79277E-02  2.83396E+01 -1.00000E+00  1.54777E-01
      21    -1     0     0   502   501  0.000000000E+00  0.000000000E+00  2.151406254E+02  2.151406254E+02  0.000000000E+00  0.00000E+00  9.000E+00
      21    -1     0     0   501   511  0.000000000E+00  0.000000000E+00 -2.179070840E+02  2.179070840E+02  0.000000000E+00  0.00000E+00  9.000E+00
      25     1     1     2     0     0 -4.059551966E+01  2.487891442E+01  1.438786665E+02  1.964510811E+02  1.250000000E+02  0.00000E+00  9.000E+00
      25     1     1     2     0     0  6.711282700E+01 -3.487716659E+01 -8.569157273E+01  1.693770762E+02  1.250000000E+02  0.00000E+00  9.000E+00
      21     1     1     2   502   511 -2.651730734E+01  9.998252170E+00 -6.095355239E+01  6.721955210E+01  1.507891493E-06  0.00000E+00  9.000E+00
#rwgt            1           1   4.9655239494306197E-002           2      193103           0
</event>
<event>
      5   9999  3.79277E-02  1.81843E+01 -1.00000E+00  1.69853E-01
      21    -1     0     0   512   501  0.000000000E+00  0.000000000E+00  7.669524542E+01  7.669524542E+01  0.000000000E+00  0.00000E+00  9.000E+00
      21    -1     0     0   501   502  0.000000000E+00  0.000000000E+00 -1.073594083E+03  1.073594083E+03  0.000000000E+00  0.00000E+00  9.000E+00
      25     1     1     2     0     0 -1.800577203E+02  8.107890058E+01 -2.602914698E+02  3.498159802E+02  1.250000000E+02  0.00000E+00  9.000E+00
      25     1     1     2     0     0  1.940113108E+02 -9.273933185E+01 -7.411139118E+02  7.817389607E+02  1.250000000E+02  0.00000E+00  9.000E+00
      21     1     1     2   512   502 -1.395359047E+01  1.166043127E+01  4.506543875E+00  1.873438769E+01  4.768371582E-07  0.00000E+00  9.000E+00
#rwgt            1           1   2.1131850107221163E-002           2      193231           0
</event>
<event>
      5   9999  3.79277E-02  5.86193E+01 -1.00000E+00  1.35246E-01
      21    -1     0     0   502   511  0.000000000E+00  0.000000000E+00  1.660499945E+03  1.660499945E+03  0.000000000E+00  0.00000E+00  9.000E+00
      21    -1     0     0   501   502  0.000000000E+00  0.000000000E+00 -4.246574712E+02  4.246574712E+02  0.000000000E+00  0.00000E+00  9.000E+00
      25     1     1     2     0     0 -5.486139013E+01 -2.395150703E+02 -2.328019051E+02  3.608309411E+02  1.250000000E+02  0.00000E+00  9.000E+00
      25     1     1     2     0     0  9.885828303E+01  2.782513625E+02  7.482215202E+01  3.292721295E+02  1.250000000E+02  0.00000E+00  9.000E+00
      21     1     1     2   501   511 -4.399689290E+01 -3.873629220E+01  1.393822227E+03  1.395054346E+03  0.000000000E+00  0.00000E+00  9.000E+00
#rwgt            1           1   2.5939626907560243E-002           2      193394           0
</event>
<event>
      5   9999  3.79277E-02  2.84387E+02 -1.00000E+00  1.06352E-01
      21    -1     0     0   502   501  0.000000000E+00  0.000000000E+00  4.461944387E+02  4.461944387E+02  0.000000000E+00  0.00000E+00  9.000E+00
       1    -1     0     0   501     0  0.000000000E+00  0.000000000E+00 -1.872954971E+03  1.872954971E+03  0.000000000E+00  0.00000E+00  9.000E+00
      25     1     1     2     0     0  4.673661374E+02 -4.320590477E+02 -1.496745619E+02  6.656828085E+02  1.250000000E+02  0.00000E+00  9.000E+00
      25     1     1     2     0     0 -3.673230201E+02  1.658494511E+02 -8.826152131E+01  4.311001481E+02  1.250000000E+02  0.00000E+00  9.000E+00
       1     1     1     2   502     0 -1.000431173E+02  2.662095966E+02 -1.188824449E+03  1.222366453E+03  1.525878906E-05  0.00000E+00  9.000E+00
#rwgt            1           1   9.8676898388684667E-002           2      193562           0
</event>
<event>
      5   9999  3.79277E-02  9.44540E+00 -1.00000E+00  1.98666E-01
      21    -1     0     0   502   501  0.000000000E+00  0.000000000E+00  7.029072037E+01  7.029072037E+01  0.000000000E+00  0.00000E+00  9.000E+00
      21    -1     0     0   501   511  0.000000000E+00  0.000000000E+00 -4.654092982E+02  4.654092982E+02  0.000000000E+00  0.00000E+00  9.000E+00
      25     1     1     2     0     0  1.123483765E+02 -5.541505445E+01 -1.621009504E+02  2.399889666E+02  1.250000000E+02  0.00000E+00  9.000E+00
      25     1     1     2     0     0 -1.040399740E+02  5.092217263E+01 -2.075635853E+02  2.685610280E+02  1.250000000E+02  0.00000E+00  9.000E+00
      21     1     1     2   502   511 -8.308402487E+00  4.492881824E+00 -2.545404216E+01  2.715002397E+01  3.371747881E-07  0.00000E+00  9.000E+00
#rwgt            1           1   4.3702468443523263E-003           2      193641           0
</event>
<event>
      5   9999  3.79277E-02  6.21497E+00 -1.00000E+00  2.23123E-01
      21    -1     0     0   502   512  0.000000000E+00  0.000000000E+00  3.521766027E+01  3.521766027E+01  0.000000000E+00  0.00000E+00  9.000E+00
      21    -1     0     0   501   502  0.000000000E+00  0.000000000E+00 -7.993003871E+02  7.993003871E+02  0.000000000E+00  0.00000E+00  9.000E+00
      25     1     1     2     0     0 -1.123347722E+01 -1.041639373E+02 -3.595980390E+02  3.948570203E+02  1.250000000E+02  0.00000E+00  9.000E+00
      25     1     1     2     0     0  1.635144188E+01  1.076898896E+02 -3.941383670E+02  4.275915508E+02  1.250000000E+02  0.00000E+00  9.000E+00
      21     1     1     2   501   512 -5.117964659E+00 -3.525952328E+00 -1.034632088E+01  1.206947629E+01  2.384185791E-07  0.00000E+00  9.000E+00
#rwgt            1           1   4.2474501473420571E-002           2      193898           0
</event>
<event>
      5   9999  3.79277E-02  4.94897E+01 -1.00000E+00  1.39330E-01
      21    -1     0     0   511   501  0.000000000E+00  0.000000000E+00  9.521338304E+02  9.521338304E+02  0.000000000E+00  0.00000E+00  9.000E+00
      21    -1     0     0   501   502  0.000000000E+00  0.000000000E+00 -4.301610531E+01  4.301610531E+01  0.000000000E+00  0.00000E+00  9.000E+00
      25     1     1     2     0     0 -1.390164370E+01 -6.056361446E+01  4.701886440E+02  4.904728005E+02  1.250000000E+02  0.00000E+00  9.000E+00
      25     1     1     2     0     0  6.199769222E+01  7.222537445E+01  1.710180877E+02  2.322335137E+02  1.250000000E+02  0.00000E+00  9.000E+00
      21     1     1     2   511   502 -4.809604852E+01 -1.166175999E+01  2.679109934E+02  2.724436215E+02  5.394796609E-06  0.00000E+00  9.000E+00
#rwgt            1           1   5.3090168185905354E-002           2      194231           0
</event>
<event>
      5   9999 -3.79277E-02  1.46713E+02 -1.00000E+00  1.16776E-01
      21    -1     0     0   502   501  0.000000000E+00  0.000000000E+00  1.006386815E+03  1.006386815E+03  0.000000000E+00  0.00000E+00  9.000E+00
      21    -1     0     0   512   502  0.000000000E+00  0.000000000E+00 -1.514335788E+02  1.514335788E+02  0.000000000E+00  0.00000E+00  9.000E+00
      25     1     1     2     0     0 -1.065453448E+02  1.545447475E+02  2.116636832E+02  3.092935568E+02  1.250000000E+02  0.00000E+00  9.000E+00
      25     1     1     2     0     0  2.378256669E+02 -2.200446294E+02  6.038713405E+02  6.966105674E+02  1.250000000E+02  0.00000E+00  9.000E+00
      21     1     1     2   512   501 -1.312803221E+02  6.549988185E+01  3.941821247E+01  1.519162696E+02  3.053247565E-06  0.00000E+00  9.000E+00
#rwgt            1           1  -8.1342957523886567E-002           2      194455           0
</event>
<event>
      5   9999  3.79277E-02  7.44780E+01 -1.00000E+00  1.29871E-01
      21    -1     0     0   502   511  0.000000000E+00  0.000000000E+00  4.531513444E+02  4.531513444E+02  0.000000000E+00  0.00000E+00  9.000E+00
      21    -1     0     0   501   502  0.000000000E+00  0.000000000E+00 -7.860402251E+02  7.860402251E+02  0.000000000E+00  0.00000E+00  9.000E+00
      25     1     1     2     0     0 -2.470344251E+01  1.340215961E+02 -6.458070528E+02  6.717617121E+02  1.250000000E+02  0.00000E+00  9.000E+00
      25     1     1     2     0     0  3.871752468E+01 -2.071692314E+02 -7.527229220E-01  2.450381680E+02  1.250000000E+02  0.00000E+00  9.000E+00
      21     1     1     2   501   511 -1.401408217E+01  7.314763532E+01  3.136708950E+02  3.223916895E+02  5.394796609E-06  0.00000E+00  9.000E+00
#rwgt            1           1   4.0544392202637433E-002           2      194535           0
</event>
<event>
      5   9999  3.79277E-02  4.20636E+00 -1.00000E+00  2.58427E-01
      21    -1     0     0   512   501  0.000000000E+00  0.000000000E+00  2.561680124E+02  2.561680124E+02  0.000000000E+00  0.00000E+00  9.000E+00
      21    -1     0     0   501   502  0.000000000E+00  0.000000000E+00 -1.712338535E+02  1.712338535E+02  0.000000000E+00  0.00000E+00  9.000E+00
      25     1     1     2     0     0  1.514035058E+02 -3.213134410E+00  1.123045964E+02  2.262093460E+02  1.250000000E+02  0.00000E+00  9.000E+00
      25     1     1     2     0     0 -1.472644241E+02  3.962437371E+00 -3.095327643E+01  1.956671072E+02  1.250000000E+02  0.00000E+00  9.000E+00
      21     1     1     2   512   502 -4.139081753E+00 -7.493029602E-01  3.582838888E+00  5.525412852E+00  5.960464478E-08  0.00000E+00  9.000E+00
#rwgt            1           1   3.8022955790085376E-002           2      194670           0
</event>
<event>
      5   9999  3.79277E-02  7.46928E+01 -1.00000E+00  1.29809E-01
      21    -1     0     0   502   501  0.000000000E+00  0.000000000E+00  1.746937745E+02  1.746937745E+02  0.000000000E+00  0.00000E+00  9.000E+00
      21    -1     0     0   511   502  0.000000000E+00  0.000000000E+00 -3.310400132E+02  3.310400132E+02  0.000000000E+00  0.00000E+00  9.000E+00
      25     1     1     2     0     0 -3.524606568E+01  1.823210167E+02 -1.187153400E+02  2.533802878E+02  1.250000000E+02  0.00000E+00  9.000E+00
      25     1     1     2     0     0  3.093348834E+01 -1.077528311E+02  1.748853349E+00  1.679154901E+02  1.250000000E+02  0.00000E+00  9.000E+00
      21     1     1     2   511   501  4.312577334E+00 -7.456818562E+01 -3.937975211E+01  8.443800984E+01  1.719260824E-06  0.00000E+00  9.000E+00
#rwgt            1           1   3.4656369845626728E-002           2      195049           0
</event>
<event>
      5   9999  3.79277E-02  3.01571E+01 -1.00000E+00  1.52882E-01
      21    -1     0     0   502   512  0.000000000E+00  0.000000000E+00  1.426520677E+02  1.426520677E+02  0.000000000E+00  0.00000E+00  9.000E+00
      21    -1     0     0   501   502  0.000000000E+00  0.000000000E+00 -3.475303881E+02  3.475303881E+02  0.000000000E+00  0.00000E+00  9.000E+00
      25     1     1     2     0     0  1.691235134E+02  2.848640340E+00 -6.407995996E+01  2.198684125E+02  1.250000000E+02  0.00000E+00  9.000E+00
      25     1     1     2     0     0 -1.440582918E+02  1.391991630E+01 -1.448279752E+02  2.398889283E+02  1.250000000E+02  0.00000E+00  9.000E+00
      21     1     1     2   501   512 -2.506522164E+01 -1.676855664E+01  4.029614725E+00  3.042511500E+01  1.685873940E-07  0.00000E+00  9.000E+00
#rwgt            1           1   4.1046133739328403E-002           2      195093           0
</event>
<event>
      5   9999  3.79277E-02  6.25776E+01 -1.00000E+00  1.33734E-01
      21    -1     0     0   502   511  0.000000000E+00  0.000000000E+00  4.965515335E+02  4.965515335E+02  0.000000000E+00  0.00000E+00  9.000E+00
      21    -1     0     0   501   502  0.000000000E+00  0.000000000E+00 -2.753804445E+02  2.753804445E+02  0.000000000E+00  0.00000E+00  9.000E+00
      25     1     1     2     0     0 -2.240989682E+01  1.103617997E+01  9.995248206E+01  1.619861087E+02  1.250000000E+02  0.00000E+00  9.000E+00
      25     1     1     2     0     0  7.592762299E+01 -4.346775344E+01 -2.173976263E+02  2.655958913E+02  1.250000000E+02  0.00000E+00  9.000E+00
      21     1     1     2   501   511 -5.351772616E+01  3.243157347E+01  3.386162333E+02  3.443499781E+02  0.000000000E+00  0.00000E+00  9.000E+00
#rwgt            1           1   2.8318666364735318E-002           2      195209           0
</event>
<event>
      5   9999  3.79277E-02  2.00788E+01 -1.00000E+00  1.66228E-01
      21    -1     0     0   502   512  0.000000000E+00  0.000000000E+00  3.165480091E+02  3.165480091E+02  0.000000000E+00  0.00000E+00  9.000E+00
      21    -1     0     0   501   502  0.000000000E+00  0.000000000E+00 -1.484671431E+02  1.484671431E+02  0.000000000E+00  0.00000E+00  9.000E+00
      25     1     1     2     0     0  6.172331399E+00 -1.381689414E+02  7.924567871E+00  1.865919420E+02  1.250000000E+02  0.00000E+00  9.000E+00
      25     1     1     2     0     0 -1.500718675E+01  1.561995723E+02  1.206428931E+02  2.341008964E+02  1.250000000E+02  0.00000E+00  9.000E+00
      21     1     1     2   501   512  8.834855352E+00 -1.803063091E+01  3.951340505E+01  4.432231378E+01  6.743495762E-07  0.00000E+00  9.000E+00
#rwgt            1           1   4.0327540199184352E-002           2      195295           0
</event>
<event>
      5   9999  3.79277E-02  1.27752E+02 -1.00000E+00  1.19226E-01
      21    -1     0     0   502   501  0.000000000E+00  0.000000000E+00  3.236023001E+03  3.236023001E+03  0.000000000E+00  0.00000E+00  9.000E+00
      21    -1     0     0   501   511  0.000000000E+00  0.000000000E+00 -3.543149787E+02  3.543149787E+02  0.000000000E+00  0.00000E+00  9.000E+00
      25     1     1     2     0     0 -9.078857337E+01  6.637795769E+02  1.928668382E+03  2.045539689E+03  1.250000000E+02  0.00000E+00  9.000E+00
      25     1     1     2     0     0 -3.574731891E+01 -6.461930502E+02  1.140897492E+03  1.317617325E+03  1.250000000E+02  0.00000E+00  9.000E+00
      21     1     1     2   502   511  1.265358923E+02 -1.758652671E+01 -1.878578524E+02  2.271809645E+02  9.725607898E-06  0.00000E+00  9.000E+00
#rwgt            1           1   3.0655662723740453E-002           2      195572           0
</event>
<event>
      5   9999  3.79277E-02  8.32646E+01 -1.00000E+00  1.27514E-01
      21    -1     0     0   512   501  0.000000000E+00  0.000000000E+00  1.024058956E+03  1.024058956E+03  0.000000000E+00  0.00000E+00  9.000E+00
      21    -1     0     0   501   502  0.000000000E+00  0.000000000E+00 -1.799502705E+02  1.799502705E+02  0.000000000E+00  0.00000E+00  9.000E+00
      25     1     1     2     0     0 -2.205261587E+02  2.558665776E+02  1.811923025E+02  4.031812777E+02  1.250000000E+02  0.00000E+00  9.000E+00
      25     1     1     2     0     0  1.545804929E+02 -3.067012667E+02  5.241764763E+02  6.390201672E+02  1.250000000E+02  0.00000E+00  9.000E+00
      21     1     1     2   512   502  6.594566577E+01  5.083468915E+01  1.387399062E+02  1.618077811E+02  1.907348633E-06  0.00000E+00  9.000E+00
#rwgt            1           1   1.4675327227560018E-002           2      195727           0
</event>
<event>
      5   9999  3.79277E-02  4.27340E+01 -1.00000E+00  1.43082E-01
      21    -1     0     0   502   511  0.000000000E+00  0.000000000E+00  1.039848653E+02  1.039848653E+02  0.000000000E+00  0.00000E+00  9.000E+00
      21    -1     0     0   501   502  0.000000000E+00  0.000000000E+00 -2.794181851E+02  2.794181851E+02  0.000000000E+00  0.00000E+00  9.000E+00
      25     1     1     2     0     0 -1.032091811E+01  2.505812747E+01 -5.818126553E+01  1.405150909E+02  1.250000000E+02  0.00000E+00  9.000E+00
      25     1     1     2     0     0  3.725566730E+01 -5.823517386E+01 -1.350668177E+02  1.965893320E+02  1.250000000E+02  0.00000E+00  9.000E+00
      21     1     1     2   501   511 -2.693474919E+01  3.317704639E+01  1.781476331E+01  4.629862755E+01  1.348699152E-06  0.00000E+00  9.000E+00
#rwgt            1           1   2.9117760237193258E-002           2      195972           0
</event>
<event>
      5   9999  3.79277E-02  1.01484E+02 -1.00000E+00  1.23541E-01
       2    -1     0     0   502     0  0.000000000E+00  0.000000000E+00  3.172660469E+03  3.172660469E+03  0.000000000E+00  0.00000E+00  9.000E+00
      21    -1     0     0   501   502  0.000000000E+00  0.000000000E+00 -3.208048593E+01  3.208048593E+01  0.000000000E+00  0.00000E+00  9.000E+00
      25     1     1     2     0     0  1.096959792E+02  1.284248712E+02  4.981476098E+02  5.406497910E+02  1.250000000E+02  0.00000E+00  9.000E+00
      25     1     1     2     0     0 -1.756528088E+01 -1.709799406E+02  1.247647898E+03  1.265619594E+03  1.250000000E+02  0.00000E+00  9.000E+00
       2     1     1     2   501     0 -9.213069833E+01  4.255506941E+01  1.394784476E+03  1.398471570E+03  2.157918644E-05  0.00000E+00  9.000E+00
#rwgt            1           1   4.6654739594630297E-002           2      196059           0
</event>
<event>
      5   9999  3.79277E-02  6.37319E+01 -1.00000E+00  1.33318E-01
      21    -1     0     0   511   501  0.000000000E+00  0.000000000E+00  2.070428726E+03  2.070428726E+03  0.000000000E+00  0.00000E+00  9.000E+00
      21    -1     0     0   501   502  0.000000000E+00  0.000000000E+00 -4.699691179E+01  4.699691179E+01  0.000000000E+00  0.00000E+00  9.000E+00
      25     1     1     2     0     0  5.935466370E+01 -2.190877487E+02  5.800876703E+02  6.353338673E+02  1.250000000E+02  0.00000E+00  9.000E+00
      25     1     1     2     0     0 -1.941483334E+01  1.694232373E+02  5.967270888E+02  6.330792902E+02  1.250000000E+02  0.00000E+00  9.000E+00
      21     1     1     2   511   502 -3.993983036E+01  4.966451145E+01  8.466170551E+02  8.490124803E+02  1.868812365E-05  0.00000E+00  9.000E+00
#rwgt            1           1   4.0105881350916445E-002           2      196155           0
</event>
<event>
      5   9999  3.79277E-02  3.79628E+01 -1.00000E+00  1.46262E-01
      21    -1     0     0   512   501  0.000000000E+00  0.000000000E+00  9.338145753E+02  9.338145753E+02  0.000000000E+00  0.00000E+00  9.000E+00
      21    -1     0     0   501   502  0.000000000E+00  0.000000000E+00 -8.199750884E+01  8.199750884E+01  0.000000000E+00  0.00000E+00  9.000E+00
      25     1     1     2     0     0 -2.072107148E+02 -1.049628525E+02  3.286718714E+02  4.214305159E+02  1.250000000E+02  0.00000E+00  9.000E+00
      25     1     1     2     0     0  1.976360050E+02  6.822734605E+01  4.386693992E+02  5.017676783E+02  1.250000000E+02  0.00000E+00  9.000E+00
      21     1     1     2   512   502  9.574709823E+00  3.673550646E+01  8.447579589E+01  9.261388985E+01  0.000000000E+00  0.00000E+00  9.000E+00
#rwgt            1           1   2.9458111573495316E-002           2      196246           0
</event>
<event>
      5   9999  3.79277E-02  1.25353E+02 -1.00000E+00  1.19569E-01
      21    -1     0     0   502   511  0.000000000E+00  0.000000000E+00  7.551323552E+01  7.551323552E+01  0.000000000E+00  0.00000E+00  9.000E+00
      21    -1     0     0   501   502  0.000000000E+00  0.000000000E+00 -1.811721472E+03  1.811721472E+03  0.000000000E+00  0.00000E+00  9.000E+00
      25     1     1     2     0     0  1.323738757E+02 -2.256395417E+02 -1.385386419E+03  1.415399794E+03  1.250000000E+02  0.00000E+00  9.000E+00
      25     1     1     2     0     0 -4.455798357E+01  1.361868372E+02 -2.136978919E+02  2.860490474E+02  1.250000000E+02  0.00000E+00  9.000E+00
      21     1     1     2   501   511 -8.781589213E+01  8.945270454E+01 -1.371239259E+02  1.857858668E+02  4.672030912E-06  0.00000E+00  9.000E+00
#rwgt            1           1   4.4400074306781737E-002           2      196359           0
</event>
<event>
      5   9999  3.79277E-02  5.49555E+01 -1.00000E+00  1.36774E-01
      21    -1     0     0   512   501  0.000000000E+00  0.000000000E+00  5.696794304E+02  5.696794304E+02  0.000000000E+00  0.00000E+00  9.000E+00
      21    -1     0     0   501   502  0.000000000E+00  0.000000000E+00 -1.569753862E+02  1.569753862E+02  0.000000000E+00  0.00000E+00  9.000E+00
      25     1     1     2     0     0 -1.990182524E+01  1.281286442E+02  3.718295333E+01  1.839037904E+02  1.250000000E+02  0.00000E+00  9.000E+00
      25     1     1     2     0     0  1.235033198E+01 -1.825628404E+02  7.009773437E+01  2.324229200E+02  1.250000000E+02  0.00000E+00  9.000E+00
      21     1     1     2   512   502  7.551493260E+00  5.443419614E+01  3.054233566E+02  3.103281062E+02  3.814697266E-06  0.00000E+00  9.000E+00
#rwgt            1           1   3.5778273685039608E-002           2      196504           0
</event>
<event>
      5   9999  3.79277E-02  6.81730E+01 -1.00000E+00  1.31805E-01
      21    -1     0     0   502   501  0.000000000E+00  0.000000000E+00  7.281523837E+02  7.281523837E+02  0.000000000E+00  0.00000E+00  9.000E+00
       2    -1     0     0   501     0  0.000000000E+00  0.000000000E+00 -1.991944230E+02  1.991944230E+02  0.000000000E+00  0.00000E+00  9.000E+00
      25     1     1     2     0     0  2.061974359E+02 -8.795817634E+01  3.341124213E+02  4.213195147E+02  1.250000000E+02  0.00000E+00  9.000E+00
      25     1     1     2     0     0 -2.241811692E+02  2.220000284E+01  2.906792901E+02  3.884192149E+02  1.250000000E+02  0.00000E+00  9.000E+00
       2     1     1     2   502     0  1.798373327E+01  6.575817349E+01 -9.583375073E+01  1.176080772E+02  1.907348633E-06  0.00000E+00  9.000E+00
#rwgt            2          13   9.1620370435246720E-005           2      196589           0
</event>
<event>
      5   9999  3.79277E-02  1.75794E+01 -1.00000E+00  1.71128E-01
      21    -1     0     0   502   501  0.000000000E+00  0.000000000E+00  6.815770976E+01  6.815770976E+01  0.000000000E+00  0.00000E+00  9.000E+00
      21    -1     0     0   511   502  0.000000000E+00  0.000000000E+00 -1.046326647E+03  1.046326647E+03  0.000000000E+00  0.00000E+00  9.000E+00
      25     1     1     2     0     0  1.206169287E+02 -1.440968052E+02 -2.934391991E+02  3.701944034E+02  1.250000000E+02  0.00000E+00  9.000E+00
      25     1     1     2     0     0 -1.361640712E+02  1.358917598E+02 -4.166614066E+02  4.756458266E+02  1.250000000E+02  0.00000E+00  9.000E+00
      21     1     1     2   511   501  1.554714249E+01  8.205045385E+00 -2.680683318E+02  2.686441269E+02  5.394796609E-06  0.00000E+00  9.000E+00
#rwgt            1           1   3.8487358406703448E-002           2      196608           0
</event>
<event>
      5   9999  3.79277E-02  5.86593E+01 -1.00000E+00  1.35230E-01
      21    -1     0     0   502   501  0.000000000E+00  0.000000000E+00  8.038594448E+01  8.038594448E+01  0.000000000E+00  0.00000E+00  9.000E+00
      21    -1     0     0   512   502  0.000000000E+00  0.000000000E+00 -1.289639075E+03  1.289639075E+03  0.000000000E+00  0.00000E+00  9.000E+00
      25     1     1     2     0     0  1.938378292E+02  1.315081376E+02 -8.857572538E+02  9.246936827E+02  1.250000000E+02  0.00000E+00  9.000E+00
      25     1     1     2     0     0 -1.517980185E+02 -9.059886482E+01 -1.532338401E+02  2.652478134E+02  1.250000000E+02  0.00000E+00  9.000E+00
      21     1     1     2   512   501 -4.203981068E+01 -4.090927281E+01 -1.702620370E+02  1.800835237E+02  3.303624740E-06  0.00000E+00  9.000E+00
#rwgt            1           1   4.3836289624227913E-002           2      196846           0
</event>
<event>
      5   9999  3.79277E-02  2.33463E+01 -1.00000E+00  1.61010E-01
      21    -1     0     0   502   501  0.000000000E+00  0.000000000E+00  2.594929074E+02  2.594929074E+02  0.000000000E+00  0.00000E+00  9.000E+00
      21    -1     0     0   511   502  0.000000000E+00  0.000000000E+00 -3.522978022E+02  3.522978022E+02  0.000000000E+00  0.00000E+00  9.000E+00
      25     1     1     2     0     0  8.610853530E+01 -9.599922325E+01 -1.022383065E+02  2.066596284E+02  1.250000000E+02  0.00000E+00  9.000E+00
      25     1     1     2     0     0 -9.652698297E+01  7.510651156E+01  1.693972625E+02  2.434725427E+02  1.250000000E+02  0.00000E+00  9.000E+00
      21     1     1     2   511   501  1.041844767E+01  2.089271169E+01 -1.599638509E+02  1.616585384E+02  2.697398305E-06  0.00000E+00  9.000E+00
#rwgt            1           1   3.6545437795440394E-002           2      196936           0
</event>
<event>
      5   9999  3.79277E-02  1.81165E+01 -1.00000E+00  1.69993E-01
      21    -1     0     0   512   501  0.000000000E+00  0.000000000E+00  6.217125090E+02  6.217125090E+02  0.000000000E+00  0.00000E+00  9.000E+00
      21    -1     0     0   501   502  0.000000000E+00  0.000000000E+00 -6.572014440E+01  6.572014440E+01  0.000000000E+00  0.00000E+00  9.000E+00
      25     1     1     2     0     0 -5.245902829E+01  8.059990584E+01  4.576220420E+02  4.840363910E+02  1.250000000E+02  0.00000E+00  9.000E+00
      25     1     1     2     0     0  3.438126866E+01 -8.178386771E+01  6.724932518E+01  1.673862133E+02  1.250000000E+02  0.00000E+00  9.000E+00
      21     1     1     2   512   502  1.807775963E+01  1.183961871E+00  3.112099739E+01  3.601004912E+01  3.371747881E-07  0.00000E+00  9.000E+00
#rwgt            1           1   4.9866457226583803E-002           2      197064           0
</event>
<event>
      5   9999  3.79277E-02  4.11274E+01 -1.00000E+00  1.44095E-01
      21    -1     0     0   502   501  0.000000000E+00  0.000000000E+00  1.696610147E+02  1.696610147E+02  0.000000000E+00  0.00000E+00  9.000E+00
      21    -1     0     0   511   502  0.000000000E+00  0.000000000E+00 -2.754040311E+03  2.754040311E+03  0.000000000E+00  0.00000E+00  9.000E+00
      25     1     1     2     0     0  1.499265051E+02  2.918969710E+02 -1.309531952E+02  3.747739825E+02  1.250000000E+02  0.00000E+00  9.000E+00
      25     1     1     2     0     0 -1.242473272E+02 -2.597715370E+02 -4.707057165E+02  5.657804533E+02  1.250000000E+02  0.00000E+00  9.000E+00
      21     1     1     2   511   501 -2.567917790E+01 -3.212543407E+01 -1.982720384E+03  1.983146890E+03  3.051757812E-05  0.00000E+00  9.000E+00
#rwgt            1           1   4.2123676430014870E-002           2      197303           0
</event>
<event>
      5   9999  3.79277E-02  3.20107E+01 -1.00000E+00  1.51108E-01
      21    -1     0     0   512   501  0.000000000E+00  0.000000000E+00  6.441167167E+01  6.441167167E+01  0.000000000E+00  0.00000E+00  9.000E+00
      21    -1     0     0   501   502  0.000000000E+00  0.000000000E+00 -5.871332546E+02  5.871332546E+02  0.000000000E+00  0.00000E+00  9.000E+00
      25     1     1     2     0     0  1.067657190E+02  2.966511261E+01 -3.245769404E+02  3.650398991E+02  1.250000000E+02  0.00000E+00  9.000E+00
      25     1     1     2     0     0 -1.045330528E+02 -6.159786153E+01 -1.581963581E+02  2.353137127E+02  1.250000000E+02  0.00000E+00  9.000E+00
      21     1     1     2   512   502 -2.232666157E+00  3.193274892E+01 -3.994828446E+01  5.119131452E+01  4.768371582E-07  0.00000E+00  9.000E+00
#rwgt            1           1   4.4018685008383407E-002           2      197509           0
</event>
<event>
      5   9999  3.79277E-02  2.00044E+01 -1.00000E+00  1.66361E-01
      21    -1     0     0   502   511  0.000000000E+00  0.000000000E+00  3.232829218E+02  3.232829218E+02  0.000000000E+00  0.00000E+00  9.000E+00
      21    -1     0     0   501   502  0.000000000E+00  0.000000000E+00 -2.615214839E+02  2.615214839E+02  0.000000000E+00  0.00000E+00  9.000E+00
      25     1     1     2     0     0  1.871005052E+02  8.500751029E+01  1.464281788E+01  2.409819246E+02  1.250000000E+02  0.00000E+00  9.000E+00
      25     1     1     2     0     0 -1.747294540E+02 -6.928707798E+01 -6.103013521E+01  2.338391726E+02  1.250000000E+02  0.00000E+00  9.000E+00
      21     1     1     2   501   511 -1.237105121E+01 -1.572043231E+01  1.081487552E+02  1.099833085E+02  1.348699152E-06  0.00000E+00  9.000E+00
#rwgt            1           1   4.6893540652905817E-002           2      197613           0
</event>
<event>
      5   9999  3.79277E-02  2.14320E+01 -1.00000E+00  1.63929E-01
       2    -1     0     0   502     0  0.000000000E+00  0.000000000E+00  2.005925335E+02  2.005925335E+02  0.000000000E+00  0.00000E+00  9.000E+00
      21    -1     0     0   501   502  0.000000000E+00  0.000000000E+00 -3.841589453E+02  3.841589453E+02  0.000000000E+00  0.00000E+00  9.000E+00
      25     1     1     2     0     0  9.935658114E+01  6.296675860E+01 -1.851762906E+02  2.524911909E+02  1.250000000E+02  0.00000E+00  9.000E+00
      25     1     1     2     0     0 -1.076750876E+02 -4.321492678E+01 -1.201552289E+02  2.086234249E+02  1.250000000E+02  0.00000E+00  9.000E+00
       2     1     1     2   501     0  8.318506483E+00 -1.975183182E+01  1.217651077E+02  1.236368629E+02  2.336015456E-06  0.00000E+00  9.000E+00
#rwgt            1           1   4.3344601218630360E-002           2      197979           0
</event>
<event>
      5   9999  3.79277E-02  4.01570E+01 -1.00000E+00  1.44735E-01
      21    -1     0     0   502   501  0.000000000E+00  0.000000000E+00  1.003592457E+03  1.003592457E+03  0.000000000E+00  0.00000E+00  9.000E+00
       2    -1     0     0   501     0  0.000000000E+00  0.000000000E+00 -1.637278593E+03  1.637278593E+03  0.000000000E+00  0.00000E+00  9.000E+00
      25     1     1     2     0     0  1.333607503E+02  1.929884654E+02  4.245789372E+02  5.009210631E+02  1.250000000E+02  0.00000E+00  9.000E+00
      25     1     1     2     0     0 -9.329942318E+01 -1.957591939E+02  5.116118249E+02  5.695595700E+02  1.250000000E+02  0.00000E+00  9.000E+00
       2     1     1     2   502     0 -4.006132717E+01  2.770728570E+00 -1.569876898E+03  1.570390417E+03  2.157918644E-05  0.00000E+00  9.000E+00
#rwgt            1           1   3.5233660989184151E-002           2      198136           0
</event>
<event>
      5   9999  3.79277E-02  9.83856E+01 -1.00000E+00  1.24147E-01
      21    -1     0     0   502   511  0.000000000E+00  0.000000000E+00  1.106118230E+02  1.106118230E+02  0.000000000E+00  0.00000E+00  9.000E+00
      21    -1     0     0   501   502  0.000000000E+00  0.000000000E+00 -5.083335897E+02  5.083335897E+02  0.000000000E+00  0.00000E+00  9.000E+00
      25     1     1     2     0     0  7.195979690E+01 -1.885398806E+01 -2.007223421E+02  2.478873612E+02  1.250000000E+02  0.00000E+00  9.000E+00
      25     1     1     2     0     0 -1.637533357E+02 -1.655321788E+01 -1.736453233E+02  2.699386269E+02  1.250000000E+02  0.00000E+00  9.000E+00
      21     1     1     2   501   511  9.179353879E+01  3.540720594E+01 -2.335410135E+01  1.011194247E+02  1.469710828E-06  0.00000E+00  9.000E+00
#rwgt            1           1   4.6277355253327317E-002           2      198284           0
</event>
<event>
      5   9999  3.79277E-02  1.29244E+01 -1.00000E+00  1.83702E-01
      21    -1     0     0   512   501  0.000000000E+00  0.000000000E+00  1.157234337E+02  1.157234337E+02  0.000000000E+00  0.00000E+00  9.000E+00
      21    -1     0     0   501   502  0.000000000E+00  0.000000000E+00 -3.505754196E+02  3.505754196E+02  0.000000000E+00  0.00000E+00  9.000E+00
      25     1     1     2     0     0  1.064662690E+02 -3.147005237E+01 -4.456839134E+00  1.672432182E+02  1.250000000E+02  0.00000E+00  9.000E+00
      25     1     1     2     0     0 -9.359420744E+01  3.030850920E+01 -2.362946681E+02  2.848484713E+02  1.250000000E+02  0.00000E+00  9.000E+00
      21     1     1     2   512   502 -1.287206156E+01  1.161543175E+00  5.899521359E+00  1.420716381E+01  2.064765462E-07  0.00000E+00  9.000E+00
#rwgt            1           1   3.7457373216143328E-002           2      198395           0
</event>
<event>
      5   9999  3.79277E-02  1.25505E+02 -1.00000E+00  1.19547E-01
      21    -1     0     0   511   501  0.000000000E+00  0.000000000E+00  1.828796087E+02  1.828796087E+02  0.000000000E+00  0.00000E+00  9.000E+00
      21    -1     0     0   501   502  0.000000000E+00  0.000000000E+00 -6.744590600E+02  6.744590600E+02  0.000000000E+00  0.00000E+00  9.000E+00
      25     1     1     2     0     0 -2.712567098E+02 -1.319946696E+02 -3.465453090E+02  4.761527555E+02  1.250000000E+02  0.00000E+00  9.000E+00
      25     1     1     2     0     0  1.462940383E+02  1.203352860E+02 -9.006414682E+01  2.441701809E+02  1.250000000E+02  0.00000E+00  9.000E+00
      21     1     1     2   511   502  1.249626714E+02  1.165938358E+01 -5.496999551E+01  1.370157323E+02  2.431401974E-06  0.00000E+00  9.000E+00
#rwgt            1           1   4.9413970351838872E-002           2      198559           0
</event>
<event>
      5   9999  3.79277E-02  4.82382E+01 -1.00000E+00  1.39970E-01
      21    -1     0     0   502   501  0.000000000E+00  0.000000000E+00  8.631000277E+02  8.631000277E+02  0.000000000E+00  0.00000E+00  9.000E+00
      21    -1     0     0   512   502  0.000000000E+00  0.000000000E+00 -9.040213635E+01  9.040213635E+01  0.000000000E+00  0.00000E+00  9.000E+00
      25     1     1     2     0     0 -2.859087773E+00  6.249652004E+01 -1.017572919E+01  1.401518279E+02  1.250000000E+02  0.00000E+00  9.000E+00
      25     1     1     2     0     0 -5.638223183E+00 -1.501260948E+01  7.337805980E+02  7.445240990E+02  1.250000000E+02  0.00000E+00  9.000E+00
      21     1     1     2   512   501  8.497310956E+00 -4.748391056E+01  4.909302255E+01  6.882623714E+01  6.743495762E-07  0.00000E+00  9.000E+00
#rwgt            1           1   3.4948672355558680E-002           2      198788           0
</event>
<event>
      5   9999  3.79277E-02  1.88740E+01 -1.00000E+00  1.68473E-01
      21    -1     0     0   502   501  0.000000000E+00  0.000000000E+00  2.839134975E+02  2.839134975E+02  0.000000000E+00  0.00000E+00  9.000E+00
      21    -1     0     0   501   511  0.000000000E+00  0.000000000E+00 -1.804571432E+02  1.804571432E+02  0.000000000E+00  0.00000E+00  9.000E+00
      25     1     1     2     0     0  1.508128022E+02 -1.889309889E+01  5.925135894E+01  2.055168461E+02  1.250000000E+02  0.00000E+00  9.000E+00
      25     1     1     2     0     0 -1.346771550E+02  9.101777798E+00  9.328388547E+01  2.062708456E+02  1.250000000E+02  0.00000E+00  9.000E+00
      21     1     1     2   502   511 -1.613564717E+01  9.791321095E+00 -4.907889011E+01  5.258294907E+01  6.743495762E-07  0.00000E+00  9.000E+00
#rwgt            1           1   3.9855043312883844E-002           2      198929           0
</event>
<event>
      5   9999  3.79277E-02  1.04421E+02 -1.00000E+00  1.22989E-01
      21    -1     0     0   512   501  0.000000000E+00  0.000000000E+00  4.525135770E+02  4.525135770E+02  0.000000000E+00  0.00000E+00  9.000E+00
      21    -1     0     0   501   502  0.000000000E+00  0.000000000E+00 -5.697943142E+02  5.697943142E+02  0.000000000E+00  0.00000E+00  9.000E+00
      25     1     1     2     0     0  2.719174731E+02 -2.206955701E+02  4.593577697E+01  3.746741817E+02  1.250000000E+02  0.00000E+00  9.000E+00
      25     1     1     2     0     0 -3.685068431E+02  1.810191423E+02 -2.628797731E+02  5.032852058E+02  1.250000000E+02  0.00000E+00  9.000E+00
      21     1     1     2   512   502  9.658937001E+01  3.967642778E+01  9.966325892E+01  1.443485036E+02  1.348699152E-06  0.00000E+00  9.000E+00
#rwgt            1           1   3.5904322800963930E-002           2      199130           0
</event>
<event>
      5   9999  3.79277E-02  9.83839E+01 -1.00000E+00  1.24147E-01
      21    -1     0     0   502   501  0.000000000E+00  0.000000000E+00  1.329459343E+02  1.329459343E+02  0.000000000E+00  0.00000E+00  9.000E+00
      21    -1     0     0   511   502  0.000000000E+00  0.000000000E+00 -1.046802303E+03  1.046802303E+03  0.000000000E+00  0.00000E+00  9.000E+00
      25     1     1     2     0     0 -2.423182044E+02 -2.218177935E+02 -4.423095990E+02  5.649637396E+02  1.250000000E+02  0.00000E+00  9.000E+00
      25     1     1     2     0     0  1.701859587E+02  1.549123619E+02 -2.111060503E+02  3.363805358E+02  1.250000000E+02  0.00000E+00  9.000E+00
      21     1     1     2   511   501  7.213224567E+01  6.690543163E+01 -2.604407190E+02  2.784039615E+02  3.814697266E-06  0.00000E+00  9.000E+00
#rwgt            1           1   3.9536189279276018E-002           2      199224           0
</event>
<event>
      5   9999  3.79277E-02  1.08029E+01 -1.00000E+00  1.91958E-01
      21    -1     0     0   502   501  0.000000000E+00  0.000000000E+00  2.458652224E+02  2.458652224E+02  0.000000000E+00  0.00000E+00  9.000E+00
      21    -1     0     0   512   502  0.000000000E+00  0.000000000E+00 -4.042034643E+02  4.042034643E+02  0.000000000E+00  0.00000E+00  9.000E+00
      25     1     1     2     0     0  2.148973196E+01 -2.333624251E+02 -2.445886506E+02  3.610656977E+02  1.250000000E+02  0.00000E+00  9.000E+00
      25     1     1     2     0     0 -1.213931471E+01  2.279519759E+02  9.287160713E+01  2.763324116E+02  1.250000000E+02  0.00000E+00  9.000E+00
      21     1     1     2   512   501 -9.350417248E+00  5.410449205E+00 -6.621198457E+00  1.267057743E+01  2.230201594E-07  0.00000E+00  9.000E+00
#rwgt            1           1   2.9895229867367187E-002           2      199292           0
</event>
<event>
      5   9999  3.79277E-02  6.04752E+01 -1.00000E+00  1.34521E-01
      21    -1     0     0   502   501  0.000000000E+00  0.000000000E+00  1.020022197E+03  1.020022197E+03  0.000000000E+00  0.00000E+00  9.000E+00
      21    -1     0     0   511   502  0.000000000E+00  0.000000000E+00 -6.025762838E+02  6.025762838E+02  0.000000000E+00  0.00000E+00  9.000E+00
      25     1     1     2     0     0 -9.742093661E+01 -4.452381375E+01 -4.011421210E+01  1.694324612E+02  1.250000000E+02  0.00000E+00  9.000E+00
      25     1     1     2     0     0  1.084045877E+02 -1.494558177E+01  9.462628009E+02  9.607357667E+02  1.250000000E+02  0.00000E+00  9.000E+00
      21     1     1     2   511   501 -1.098365108E+01  5.946939552E+01 -4.887026752E+02  4.924302533E+02  7.629394531E-06  0.00000E+00  9.000E+00
#rwgt            1           1   3.5611520024971796E-002           2      199630           0
</event>
<event>
      5   9999  3.79277E-02  3.29233E+01 -1.00000E+00  1.50287E-01
      21    -1     0     0   502   501  0.000000000E+00  0.000000000E+00  7.439539013E+02  7.439539013E+02  0.000000000E+00  0.00000E+00  9.000E+00
      21    -1     0     0   512   502  0.000000000E+00  0.000000000E+00 -1.888660052E+02  1.888660052E+02  0.000000000E+00  0.00000E+00  9.000E+00
      25     1     1     2     0     0  1.813736010E+02  2.089968718E+02  5.378625504E+02  6.176545949E+02  1.250000000E+02  0.00000E+00  9.000E+00
      25     1     1     2     0     0 -1.692683776E+02 -1.783798056E+02  3.446767478E+01  2.780002865E+02  1.250000000E+02  0.00000E+00  9.000E+00
      21     1     1     2   512   501 -1.210522345E+01 -3.061706616E+01 -1.724232902E+01  3.716502502E+01  3.371747881E-07  0.00000E+00  9.000E+00
#rwgt            1           1   3.7401270898897540E-002           2      199714           0
</event>
<event>
      5   9999  3.79277E-02  6.37420E+02 -1.00000E+00  9.59457E-02
      21    -1     0     0   502   511  0.000000000E+00  0.000000000E+00  4.466713965E+02  4.466713965E+02  0.000000000E+00  0.00000E+00  9.000E+00
      21    -1     0     0   501   502  0.000000000E+00  0.000000000E+00 -1.612351004E+03  1.612351004E+03  0.000000000E+00  0.00000E+00  9.000E+00
      25     1     1     2     0     0 -2.061600393E+02  3.234821651E+02 -2.120659160E+02  4.557846264E+02  1.250000000E+02  0.00000E+00  9.000E+00
      25     1     1     2     0     0 -3.653241825E+02 -4.115358703E+01 -8.796482551E+02  9.615411737E+02  1.250000000E+02  0.00000E+00  9.000E+00
      21     1     1     2   501   511  5.714842218E+02 -2.823285780E+02 -7.396543683E+01  6.416966009E+02  1.673691633E-05  0.00000E+00  9.000E+00
#rwgt            2          11   2.9348668400041699E-004           2      199838           0
</event>
<event>
      5   9999  3.79277E-02  2.91069E+01 -1.00000E+00  1.53957E-01
       2    -1     0     0   502     0  0.000000000E+00  0.000000000E+00  1.060844674E+03  1.060844674E+03  0.000000000E+00  0.00000E+00  9.000E+00
      21    -1     0     0   501   502  0.000000000E+00  0.000000000E+00 -3.369433189E+02  3.369433189E+02  0.000000000E+00  0.00000E+00  9.000E+00
      25     1     1     2     0     0 -7.017470798E+01  1.729683819E+01  3.464237770E+01  1.484882641E+02  1.250000000E+02  0.00000E+00  9.000E+00
      25     1     1     2     0     0  5.940367668E+01 -4.433747732E+01 -2.609270818E+02  2.986679607E+02  1.250000000E+02  0.00000E+00  9.000E+00
       2     1     1     2   501     0  1.077103130E+01  2.704063913E+01  9.501860594E+02  9.506317682E+02  0.000000000E+00  0.00000E+00  9.000E+00
#rwgt            1           1   1.3341030610867893E-002           2      199873           0
</event>
<event>
      5   9999  3.79277E-02  4.87354E+00 -1.00000E+00  2.44769E-01
      21    -1     0     0   502   501  0.000000000E+00  0.000000000E+00  1.603209990E+02  1.603209990E+02  0.000000000E+00  0.00000E+00  9.000E+00
      21    -1     0     0   511   502  0.000000000E+00  0.000000000E+00 -5.974482457E+02  5.974482457E+02  0.000000000E+00  0.00000E+00  9.000E+00
      25     1     1     2     0     0 -1.220479573E+02 -2.289642522E+02 -3.462281059E+02  4.503545647E+02  1.250000000E+02  0.00000E+00  9.000E+00
      25     1     1     2     0     0  1.215033601E+02  2.241212338E+02 -7.924864606E+01  2.947859255E+02  1.250000000E+02  0.00000E+00  9.000E+00
      21     1     1     2   511   501  5.445971684E-01  4.843018313E+00 -1.165049477E+01  1.262875452E+01  2.384185791E-07  0.00000E+00  9.000E+00
#rwgt            1           1   3.5942895572173249E-002           2      200137           0
</event>
<event>
      5   9999  3.79277E-02  4.57907E+01 -1.00000E+00  1.41290E-01
       3    -1     0     0   502     0  0.000000000E+00  0.000000000E+00  3.384269349E+02  3.384269349E+02  0.000000000E+00  0.00000E+00  9.000E+00
      21    -1     0     0   501   502  0.000000000E+00  0.000000000E+00 -9.545911827E+02  9.545911827E+02  0.000000000E+00  0.00000E+00  9.000E+00
      25     1     1     2     0     0 -4.636841540E+01  9.203937741E+01 -2.306732264E+02  2.818801417E+02  1.250000000E+02  0.00000E+00  9.000E+00
      25     1     1     2     0     0  2.689703613E+01 -1.334839349E+02 -6.843080713E+02  7.088328067E+02  1.250000000E+02  0.00000E+00  9.000E+00
       3     1     1     2   501     0  1.947137928E+01  4.144455745E+01  2.988170499E+02  3.023051691E+02  3.814697266E-06  0.00000E+00  9.000E+00
#rwgt            1           1   4.4473874539217376E-002           2      200518           0
</event>
<event>
      5   9999  3.79277E-02  1.79970E+01 -1.00000E+00  1.70241E-01
      21    -1     0     0   511   501  0.000000000E+00  0.000000000E+00  1.462243668E+03  1.462243668E+03  0.000000000E+00  0.00000E+00  9.000E+00
      21    -1     0     0   501   502  0.000000000E+00  0.000000000E+00 -3.356097736E+01  3.356097736E+01  0.000000000E+00  0.00000E+00  9.000E+00
      25     1     1     2     0     0 -9.831187689E+01  1.278265611E+02  7.750059704E+02  8.014138188E+02  1.250000000E+02  0.00000E+00  9.000E+00
      25     1     1     2     0     0  9.799169675E+01 -1.458207316E+02  5.877588969E+02  6.260603639E+02  1.250000000E+02  0.00000E+00  9.000E+00
      21     1     1     2   511   502  3.201801398E-01  1.799417051E+01  6.591782382E+01  6.833046308E+01  0.000000000E+00  0.00000E+00  9.000E+00
#rwgt            1           1   4.5395603616989168E-002           2      200613           0
</event>
<event>
      5   9999  3.79277E-02  1.19317E+02 -1.00000E+00  1.20474E-01
      21    -1     0     0   502   501  0.000000000E+00  0.000000000E+00  7.450989673E+02  7.450989673E+02  0.000000000E+00  0.00000E+00  9.000E+00
      21    -1     0     0   512   502  0.000000000E+00  0.000000000E+00 -2.412036716E+02  2.412036716E+02  0.000000000E+00  0.00000E+00  9.000E+00
      25     1     1     2     0     0  1.636862161E+02  2.254871227E+01  2.023019814E+02  2.895733300E+02  1.250000000E+02  0.00000E+00  9.000E+00
      25     1     1     2     0     0 -8.632527265E+01 -1.133880736E+02  4.605137531E+02  4.980028360E+02  1.250000000E+02  0.00000E+00  9.000E+00
      21     1     1     2   512   501 -7.736094349E+01  9.083936129E+01 -1.589204388E+02  1.987264728E+02  2.697398305E-06  0.00000E+00  9.000E+00
#rwgt            1           1   3.4174190662250456E-002           2      200979           0
</event>
<event>
      5   9999  3.79277E-02  4.22942E+01 -1.00000E+00  1.43354E-01
      21    -1     0     0   511   501  0.000000000E+00  0.000000000E+00  1.368103812E+03  1.368103812E+03  0.000000000E+00  0.00000E+00  9.000E+00
      21    -1     0     0   501   502  0.000000000E+00  0.000000000E+00 -4.040109765E+01  4.040109765E+01  0.000000000E+00  0.00000E+00  9.000E+00
      25     1     1     2     0     0  4.887021366E+01  1.571590835E+02  3.532519077E+02  4.092666436E+02  1.250000000E+02  0.00000E+00  9.000E+00
      25     1     1     2     0     0 -2.450638193E+01 -1.225873691E+02  8.352540109E+02  8.537578629E+02  1.250000000E+02  0.00000E+00  9.000E+00
      21     1     1     2   511   502 -2.436383172E+01 -3.457171431E+01  1.391967954E+02  1.454804027E+02  1.907348633E-06  0.00000E+00  9.000E+00
#rwgt            1           1   3.6241224344891160E-002           2      201025           0
</event>
<event>
      5   9999  3.79277E-02  2.51134E+01 -1.00000E+00  1.58604E-01
      21    -1     0     0   502   501  0.000000000E+00  0.000000000E+00  1.873188939E+02  1.873188939E+02  0.000000000E+00  0.00000E+00  9.000E+00
      21    -1     0     0   501   512  0.000000000E+00  0.000000000E+00 -9.499888437E+02  9.499888437E+02  0.000000000E+00  0.00000E+00  9.000E+00
      25     1     1     2     0     0 -6.221173228E+01  1.156851575E+02  9.585745958E+01  2.051024326E+02  1.250000000E+02  0.00000E+00  9.000E+00
      25     1     1     2     0     0  8.492410042E+01 -1.264011490E+02 -2.286182181E+02  3.017956974E+02  1.250000000E+02  0.00000E+00  9.000E+00
      21     1     1     2   502   512 -2.271236814E+01  1.071599149E+01 -6.299091913E+02  6.304096076E+02  1.321449896E-05  0.00000E+00  9.000E+00
#rwgt            1           1   4.0887092729461817E-002           2      201207           0
</event>
<event>
      5   9999  3.79277E-02  3.38240E+01 -1.00000E+00  1.49507E-01
      21    -1     0     0   502   501  0.000000000E+00  0.000000000E+00  7.995720825E+01  7.995720825E+01  0.000000000E+00  0.00000E+00  9.000E+00
       2    -1     0     0   501     0  0.000000000E+00  0.000000000E+00 -1.252614619E+03  1.252614619E+03  0.000000000E+00  0.00000E+00  9.000E+00
      25     1     1     2     0     0 -1.720517069E+02  1.300503769E+02 -2.901171616E+02  3.825021018E+02  1.250000000E+02  0.00000E+00  9.000E+00
      25     1     1     2     0     0  1.393643089E+02 -1.213556649E+02 -3.411551829E+02  4.076290800E+02  1.250000000E+02  0.00000E+00  9.000E+00
       2     1     1     2   502     0  3.268739803E+01 -8.694711989E+00 -5.413850667E+02  5.424406460E+02  7.629394531E-06  0.00000E+00  9.000E+00
#rwgt            1           1   3.5171750018501265E-002           2      201347           0
</event>
<event>
      5   9999 -3.79277E-02  4.01996E+01 -1.00000E+00  1.44706E-01
      21    -1     0     0   502   501  0.000000000E+00  0.000000000E+00  3.263327476E+02  3.263327476E+02  0.000000000E+00  0.00000E+00  9.000E+00
      21    -1     0     0   511   502  0.000000000E+00  0.000000000E+00 -4.553023354E+02  4.553023354E+02  0.000000000E+00  0.00000E+00  9.000E+00
      25     1     1     2     0     0  1.378849008E+02  1.013450656E+02  1.760006079E+02  2.754710187E+02  1.250000000E+02  0.00000E+00  9.000E+00
      25     1     1     2     0     0 -1.536303178E+02 -6.435741524E+01 -1.002690413E+01  2.084938614E+02  1.250000000E+02  0.00000E+00  9.000E+00
      21     1     1     2   511   501  1.574541707E+01 -3.698765034E+01 -2.949432916E+02  2.976702029E+02  3.814697266E-06  0.00000E+00  9.000E+00
#rwgt            1           1 -0.37596329751566049                2      201686           0
</event>
<event>
      5   9999 -3.79277E-02  7.05580E+01 -1.00000E+00  1.31046E-01
      21    -1     0     0   512   501  0.000000000E+00  0.000000000E+00  2.173779423E+02  2.173779423E+02  0.000000000E+00  0.00000E+00  9.000E+00
      21    -1     0     0   501   502  0.000000000E+00  0.000000000E+00 -2.328060241E+02  2.328060241E+02  0.000000000E+00  0.00000E+00  9.000E+00
      25     1     1     2     0     0  2.017985671E+01 -1.578670466E+02 -4.624682607E+01  2.075885352E+02  1.250000000E+02  0.00000E+00  9.000E+00
      25     1     1     2     0     0  1.268469523E+01  9.543021319E+01 -1.496832160E+01  1.584830519E+02  1.250000000E+02  0.00000E+00  9.000E+00
      21     1     1     2   512   502 -3.286455194E+01  6.243683345E+01  4.578706590E+01  8.411237929E+01  1.348699152E-06  0.00000E+00  9.000E+00
#rwgt            1           1  -4.5890620866777171E-002           2      201829           0
</event>
<event>
      5   9999  3.79277E-02  6.19750E+01 -1.00000E+00  1.33956E-01
      21    -1     0     0   511   501  0.000000000E+00  0.000000000E+00  1.066542691E+02  1.066542691E+02  0.000000000E+00  0.00000E+00  9.000E+00
      21    -1     0     0   501   502  0.000000000E+00  0.000000000E+00 -1.720577144E+03  1.720577144E+03  0.000000000E+00  0.00000E+00  9.000E+00
      25     1     1     2     0     0  8.707304125E+01  1.529166272E+02 -9.032910724E+02  9.287222249E+02  1.250000000E+02  0.00000E+00  9.000E+00
      25     1     1     2     0     0 -1.444232239E+02 -1.294248960E+02 -7.753212537E+02  8.089233077E+02  1.250000000E+02  0.00000E+00  9.000E+00
      21     1     1     2   511   502  5.735018263E+01 -2.349173120E+01  6.468945129E+01  8.958588053E+01  3.568322551E-06  0.00000E+00  9.000E+00
#rwgt            1           1   3.6494740915149669E-002           2      201895           0
</event>
<event>
      5   9999  3.79277E-02  1.56792E+01 -1.00000E+00  1.75591E-01
      21    -1     0     0   502   501  0.000000000E+00  0.000000000E+00  1.878956374E+02  1.878956374E+02  0.000000000E+00  0.00000E+00  9.000E+00
      21    -1     0     0   512   502  0.000000000E+00  0.000000000E+00 -3.649830171E+02  3.649830171E+02  0.000000000E+00  0.00000E+00  9.000E+00
      25     1     1     2     0     0 -2.809955373E+00 -2.106141767E+02 -1.406710669E+02  2.824527861E+02  1.250000000E+02  0.00000E+00  9.000E+00
      25     1     1     2     0     0  8.558645343E+00  1.960268114E+02 -2.055045569E+00  2.326563655E+02  1.250000000E+02  0.00000E+00  9.000E+00
      21     1     1     2   512   501 -5.748689970E+00  1.458736539E+01 -3.436126724E+01  3.776950293E+01  4.768371582E-07  0.00000E+00  9.000E+00
#rwgt            1           1   2.9330115052284438E-002           2      202100           0
</event>
<event>
      5   9999  3.79277E-02  2.72150E+01 -1.00000E+00  1.56038E-01
       2    -1     0     0   502     0  0.000000000E+00  0.000000000E+00  1.759827652E+03  1.759827652E+03  0.000000000E+00  0.00000E+00  9.000E+00
      21    -1     0     0   501   502  0.000000000E+00  0.000000000E+00 -7.040901258E+01  7.040901258E+01  0.000000000E+00  0.00000E+00  9.000E+00
      25     1     1     2     0     0 -2.190928767E+02  4.066531649E+01  5.389006370E+02  5.964010841E+02  1.250000000E+02  0.00000E+00  9.000E+00
      25     1     1     2     0     0  2.310116321E+02 -6.513165678E+01  4.006920305E+02  4.835158841E+02  1.250000000E+02  0.00000E+00  9.000E+00
       2     1     1     2   501     0 -1.191875542E+01  2.446634029E+01  7.498259723E+02  7.503196968E+02  1.078959322E-05  0.00000E+00  9.000E+00
#rwgt            1           1   3.1276802691465502E-002           2      202357           0
</event>
<event>
      5   9999  3.79277E-02  1.37845E+02 -1.00000E+00  1.17867E-01
      21    -1     0     0   511   501  0.000000000E+00  0.000000000E+00  9.326094400E+01  9.326094400E+01  0.000000000E+00  0.00000E+00  9.000E+00
      21    -1     0     0   501   502  0.000000000E+00  0.000000000E+00 -1.282531374E+03  1.282531374E+03  0.000000000E+00  0.00000E+00  9.000E+00
      25     1     1     2     0     0  1.937783675E+01 -1.863066728E+02 -9.399844165E+02  9.665823194E+02  1.250000000E+02  0.00000E+00  9.000E+00
      25     1     1     2     0     0  4.130712981E+01  6.253805381E+01 -2.786512012E+01  1.483871695E+02  1.250000000E+02  0.00000E+00  9.000E+00
      21     1     1     2   511   502 -6.068496656E+01  1.237686190E+02 -2.214208938E+02  2.608228296E+02  0.000000000E+00  0.00000E+00  9.000E+00
#rwgt            1           1   3.5792755848290003E-002           2      202537           0
</event>
<event>
      5   9999  3.79277E-02  1.09132E+02 -1.00000E+00  1.22145E-01
      21    -1     0     0   502   501  0.000000000E+00  0.000000000E+00  5.082419496E+02  5.082419496E+02  0.000000000E+00  0.00000E+00  9.000E+00
      21    -1     0     0   501   512  0.000000000E+00  0.000000000E+00 -2.053846405E+02  2.053846405E+02  0.000000000E+00  0.00000E+00  9.000E+00
      25     1     1     2     0     0  4.552943688E+01  1.449190744E+02  3.721063987E+02  4.209069252E+02  1.250000000E+02  0.00000E+00  9.000E+00
      25     1     1     2     0     0  5.732761058E+01 -1.084456520E+02 -3.812339113E+01  1.792353406E+02  1.250000000E+02  0.00000E+00  9.000E+00
      21     1     1     2   502   512 -1.028570475E+02 -3.647342244E+01 -3.112569839E+01  1.134843243E+02  8.259061849E-07  0.00000E+00  9.000E+00
#rwgt            1           1   4.1691624960783796E-002           2      202647           0
</event>
<event>
      5   9999  3.79277E-02  1.28063E+02 -1.00000E+00  1.19182E-01
      21    -1     0     0   502   501  0.000000000E+00  0.000000000E+00  1.903460217E+03  1.903460217E+03  0.000000000E+00  0.00000E+00  9.000E+00
      21    -1     0     0   511   502  0.000000000E+00  0.000000000E+00 -4.300102549E+02  4.300102549E+02  0.000000000E+00  0.00000E+00  9.000E+00
      25     1     1     2     0     0  1.480390734E+02  1.257785867E+02  1.056269858E+03  1.081233940E+03  1.250000000E+02  0.00000E+00  9.000E+00
      25     1     1     2     0     0 -3.116540647E+01 -1.781289454E+02  8.098788440E+02  8.391840952E+02  1.250000000E+02  0.00000E+00  9.000E+00
      21     1     1     2   511   501 -1.168736669E+02  5.235035871E+01 -3.926987405E+02  4.130524360E+02  1.078959322E-05  0.00000E+00  9.000E+00
#rwgt            1           1   4.3298822271729542E-002           2      202814           0
</event>
<event>
      5   9999  3.79277E-02  5.04799E+01 -1.00000E+00  1.38839E-01
      21    -1     0     0   512   501  0.000000000E+00  0.000000000E+00  2.636286116E+02  2.636286116E+02  0.000000000E+00  0.00000E+00  9.000E+00
      21    -1     0     0   501   502  0.000000000E+00  0.000000000E+00 -6.106617027E+02  6.106617027E+02  0.000000000E+00  0.00000E+00  9.000E+00
      25     1     1     2     0     0 -2.514194009E+02 -7.028937113E+01  8.091226737E+01  3.005396910E+02  1.250000000E+02  0.00000E+00  9.000E+00
      25     1     1     2     0     0  2.712065854E+02  1.167295470E+02 -4.093098691E+02  5.199407351E+02  1.250000000E+02  0.00000E+00  9.000E+00
      21     1     1     2   512   502 -1.978718448E+01 -4.644017582E+01 -1.863548949E+01  5.380988820E+01  6.307962682E-07  0.00000E+00  9.000E+00
#rwgt            1           1   3.1833882081067501E-002           2      203021           0
</event>
<event>
      5   9999 -3.79277E-02  1.51825E+02 -1.00000E+00  1.16186E-01
      21    -1     0     0   502   501  0.000000000E+00  0.000000000E+00  8.345049243E+02  8.345049243E+02  0.000000000E+00  0.00000E+00  9.000E+00
      21    -1     0     0   501   511  0.000000000E+00  0.000000000E+00 -1.098788020E+02  1.098788020E+02  0.000000000E+00  0.00000E+00  9.000E+00
      25     1     1     2     0     0 -7.271245285E+01  4.853640327E+01  2.061467417E+02  2.564456324E+02  1.250000000E+02  0.00000E+00  9.000E+00
      25     1     1     2     0     0  1.092415646E+02 -1.959019122E+02  4.568744156E+02  5.240901738E+02  1.250000000E+02  0.00000E+00  9.000E+00
      21     1     1     2   502   511 -3.652911176E+01  1.473655089E+02  6.160496504E+01  1.638479201E+02  2.336015456E-06  0.00000E+00  9.000E+00
#rwgt            1           1  -6.9426269299097440E-002           2      203239           0
</event>
<event>
      5   9999  3.79277E-02  1.20012E+02 -1.00000E+00  1.20367E-01
      21    -1     0     0   502   501  0.000000000E+00  0.000000000E+00  7.941102977E+02  7.941102977E+02  0.000000000E+00  0.00000E+00  9.000E+00
      21    -1     0     0   512   502  0.000000000E+00  0.000000000E+00 -1.714687139E+02  1.714687139E+02  0.000000000E+00  0.00000E+00  9.000E+00
      25     1     1     2     0     0 -7.876390627E+01 -2.055812295E+02  7.686919554E+01  2.645775275E+02  1.250000000E+02  0.00000E+00  9.000E+00
      25     1     1     2     0     0  6.973747162E+01  8.590953284E+01  5.560323364E+02  5.805520837E+02  1.250000000E+02  0.00000E+00  9.000E+00
      21     1     1     2   512   501  9.026434648E+00  1.196716967E+02 -1.025994810E+01  1.204494003E+02  1.554298974E-06  0.00000E+00  9.000E+00
#rwgt            1           1   4.4525022962675076E-002           2      203271           0
</event>
<event>
      5   9999  3.79277E-02  2.89235E+01 -1.00000E+00  1.54150E-01
      21    -1     0     0   502   501  0.000000000E+00  0.000000000E+00  8.292749625E+01  8.292749625E+01  0.000000000E+00  0.00000E+00  9.000E+00
      21    -1     0     0   511   502  0.000000000E+00  0.000000000E+00 -1.015495186E+03  1.015495186E+03  0.000000000E+00  0.00000E+00  9.000E+00
      25     1     1     2     0     0 -9.452137399E+01  1.089490992E+02 -6.988379058E+01  2.032558500E+02  1.250000000E+02  0.00000E+00  9.000E+00
      25     1     1     2     0     0  9.758964764E+01 -1.377093457E+02 -7.596968596E+02  7.881953576E+02  1.250000000E+02  0.00000E+00  9.000E+00
      21     1     1     2   511   501 -3.068273652E+00  2.876024646E+01 -1.029870399E+02  1.069714750E+02  0.000000000E+00  0.00000E+00  9.000E+00
#rwgt            1           1   4.4379172408741722E-002           2      203355           0
</event>
<event>
      5   9999  3.79277E-02  2.41769E+01 -1.00000E+00  1.59848E-01
      21    -1     0     0   512   501  0.000000000E+00  0.000000000E+00  6.611611929E+01  6.611611929E+01  0.000000000E+00  0.00000E+00  9.000E+00
      21    -1     0     0   501   502  0.000000000E+00  0.000000000E+00 -1.077741136E+03  1.077741136E+03  0.000000000E+00  0.00000E+00  9.000E+00
      25     1     1     2     0     0  1.758021512E+02 -4.467242552E+00 -8.221890168E+02  8.500271360E+02  1.250000000E+02  0.00000E+00  9.000E+00
      25     1     1     2     0     0 -1.535757539E+02  1.398100038E+01 -1.555021951E+02  2.521644567E+02  1.250000000E+02  0.00000E+00  9.000E+00
      21     1     1     2   512   502 -2.222639735E+01 -9.513757829E+00 -3.393380491E+01  4.166566263E+01  4.768371582E-07  0.00000E+00  9.000E+00
#rwgt            1           1   3.8026162552710824E-002           2      203594           0
</event>
<event>
      5   9999  3.79277E-02  2.35642E+01 -1.00000E+00  1.60699E-01
      21    -1     0     0   511   501  0.000000000E+00  0.000000000E+00  2.314189301E+02  2.314189301E+02  0.000000000E+00  0.00000E+00  9.000E+00
      21    -1     0     0   501   502  0.000000000E+00  0.000000000E+00 -2.227587335E+02  2.227587335E+02  0.000000000E+00  0.00000E+00  9.000E+00
      25     1     1     2     0     0 -1.091782231E+02 -1.104328363E+02  6.445722227E+01  2.095114060E+02  1.250000000E+02  0.00000E+00  9.000E+00
      25     1     1     2     0     0  1.235812395E+02  9.178276764E+01 -7.723772383E+01  2.128075778E+02  1.250000000E+02  0.00000E+00  9.000E+00
      21     1     1     2   511   502 -1.440301639E+01  1.865006870E+01  2.144069812E+01  3.185867982E+01  2.384185791E-07  0.00000E+00  9.000E+00
#rwgt            1           1   3.9424374075068415E-002           2      203752           0
</event>
<event>
      5   9999  3.79277E-02  5.65741E+01 -1.00000E+00  1.36082E-01
      21    -1     0     0   502   501  0.000000000E+00  0.000000000E+00  3.490775622E+02  3.490775622E+02  0.000000000E+00  0.00000E+00  9.000E+00
      21    -1     0     0   501   512  0.000000000E+00  0.000000000E+00 -2.497672902E+02  2.497672902E+02  0.000000000E+00  0.00000E+00  9.000E+00
      25     1     1     2     0     0 -5.178266864E+01 -2.341119450E+02 -2.668300542E+01  2.717109316E+02  1.250000000E+02  0.00000E+00  9.000E+00
      25     1     1     2     0     0  7.244345403E+01  1.814454803E+02  1.371726716E+02  2.694658758E+02  1.250000000E+02  0.00000E+00  9.000E+00
      21     1     1     2   502   512 -2.066078538E+01  5.266646472E+01 -1.117939420E+01  5.766804499E+01  4.768371582E-07  0.00000E+00  9.000E+00
#rwgt            1           1   6.2292656730710799E-002           2      203935           0
</event>
<event>
      5   9999  3.79277E-02  8.93510E+01 -1.00000E+00  1.26068E-01
      21    -1     0     0   502   501  0.000000000E+00  0.000000000E+00  8.227417670E+02  8.227417670E+02  0.000000000E+00  0.00000E+00  9.000E+00
      21    -1     0     0   511   502  0.000000000E+00  0.000000000E+00 -2.344196493E+02  2.344196493E+02  0.000000000E+00  0.00000E+00  9.000E+00
      25     1     1     2     0     0  1.066325945E+02 -8.572930277E+01  1.892083350E+02  2.648486692E+02  1.250000000E+02  0.00000E+00  9.000E+00
      25     1     1     2     0     0 -5.445143993E+01  1.319842908E+01  5.771124658E+02  5.931466564E+02  1.250000000E+02  0.00000E+00  9.000E+00
      21     1     1     2   511   501 -5.218115460E+01  7.253087369E+01 -1.779986830E+02  1.991660907E+02  3.814697266E-06  0.00000E+00  9.000E+00
#rwgt            1           1   4.6930513127369469E-002           2      204046           0
</event>
<event>
      5   9999  3.79277E-02  4.60813E+01 -1.00000E+00  1.41129E-01
      21    -1     0     0   502   501  0.000000000E+00  0.000000000E+00  2.828091068E+01  2.828091068E+01  0.000000000E+00  0.00000E+00  9.000E+00
       2    -1     0     0   501     0  0.000000000E+00  0.000000000E+00 -1.512123344E+03  1.512123344E+03  0.000000000E+00  0.00000E+00  9.000E+00
      25     1     1     2     0     0  7.965654116E+01  1.100446084E+02 -5.794915578E+02  6.081861935E+02  1.250000000E+02  0.00000E+00  9.000E+00
      25     1     1     2     0     0 -6.014792238E+01 -6.829659532E+01 -4.559095130E+02  4.814152901E+02  1.250000000E+02  0.00000E+00  9.000E+00
       2     1     1     2   502     0 -1.950861878E+01 -4.174801313E+01 -4.484413626E+02  4.508027712E+02  0.000000000E+00  0.00000E+00  9.000E+00
#rwgt            1           1   5.0480439811052685E-002           2      204148           0
</event>
<event>
      5   9999  3.79277E-02  6.64767E+01 -1.00000E+00  1.32367E-01
      21    -1     0     0   502   501  0.000000000E+00  0.000000000E+00  1.794169180E+02  1.794169180E+02  0.000000000E+00  0.00000E+00  9.000E+00
      -1    -1     0     0     0   502  0.000000000E+00  0.000000000E+00 -4.219073541E+02  4.219073541E+02  0.000000000E+00  0.00000E+00  9.000E+00
      25     1     1     2     0     0 -1.888588255E+02  1.759218782E+01 -1.416810364E+02  2.677230979E+02  1.250000000E+02  0.00000E+00  9.000E+00
      25     1     1     2     0     0  1.702780969E+02 -8.141932279E+01 -1.755323128E+01  2.270613404E+02  1.250000000E+02  0.00000E+00  9.000E+00
      -1     1     1     2     0   501  1.858072864E+01  6.382713497E+01 -8.325616835E+01  1.065398339E+02  1.348699152E-06  0.00000E+00  9.000E+00
#rwgt            1           1   2.2755714762853176E-002           2      204220           0
</event>
<event>
      5   9999  3.79277E-02  2.75408E+01 -1.00000E+00  1.55665E-01
      21    -1     0     0   502   511  0.000000000E+00  0.000000000E+00  7.535121618E+01  7.535121618E+01  0.000000000E+00  0.00000E+00  9.000E+00
      21    -1     0     0   501   502  0.000000000E+00  0.000000000E+00 -6.398664872E+02  6.398664872E+02  0.000000000E+00  0.00000E+00  9.000E+00
      25     1     1     2     0     0 -8.542169561E+01  1.053591058E+02 -1.190672019E+02  2.195436308E+02  1.250000000E+02  0.00000E+00  9.000E+00
      25     1     1     2     0     0  9.819543838E+01 -8.095978006E+01 -4.263352015E+02  4.621509863E+02  1.250000000E+02  0.00000E+00  9.000E+00
      21     1     1     2   501   511 -1.277374277E+01 -2.439932578E+01 -1.911286766E+01  3.352308627E+01  4.129530925E-07  0.00000E+00  9.000E+00
#rwgt            1           1   4.2721089434206168E-002           2      204352           0
</event>
<event>
      5   9999  3.79277E-02  4.36601E+01 -1.00000E+00  1.42521E-01
      21    -1     0     0   502   501  0.000000000E+00  0.000000000E+00  2.846403436E+02  2.846403436E+02  0.000000000E+00  0.00000E+00  9.000E+00
      21    -1     0     0   501   512  0.000000000E+00  0.000000000E+00 -2.898310863E+02  2.898310863E+02  0.000000000E+00  0.00000E+00  9.000E+00
      25     1     1     2     0     0  2.201658989E+01  9.485330001E+01 -1.781998941E+02  2.384577132E+02  1.250000000E+02  0.00000E+00  9.000E+00
      25     1     1     2     0     0 -4.246143567E+01 -1.334306326E+02  2.079206015E+02  2.801119130E+02  1.250000000E+02  0.00000E+00  9.000E+00
      21     1     1     2   502   512  2.044484578E+01  3.857733262E+01 -3.491145017E+01  5.590180376E+01  9.536743164E-07  0.00000E+00  9.000E+00
#rwgt            1           1   3.0146407174734657E-002           2      204523           0
</event>
<event>
      5   9999  3.79277E-02  2.60179E+01 -1.00000E+00  1.57464E-01
      21    -1     0     0   502   511  0.000000000E+00  0.000000000E+00  3.904364935E+02  3.904364935E+02  0.000000000E+00  0.00000E+00  9.000E+00
      21    -1     0     0   501   502  0.000000000E+00  0.000000000E+00 -8.254273806E+01  8.254273806E+01  0.000000000E+00  0.00000E+00  9.000E+00
      25     1     1     2     0     0  1.162317511E+02  5.508989198E+00  1.399831162E+02  2.208176663E+02  1.250000000E+02  0.00000E+00  9.000E+00
      25     1     1     2     0     0 -9.048008831E+01 -9.221188052E+00  1.132685707E+02  1.916414511E+02  1.250000000E+02  0.00000E+00  9.000E+00
      21     1     1     2   501   511 -2.575166281E+01  3.712198854E+00  5.464206851E+01  6.052011409E+01  6.743495762E-07  0.00000E+00  9.000E+00
#rwgt            1           1   3.2330270423866742E-002           2      204768           0
</event>
<event>
      5   9999  3.79277E-02  3.00273E+01 -1.00000E+00  1.53012E-01
      21    -1     0     0   512   501  0.000000000E+00  0.000000000E+00  1.553552245E+03  1.553552245E+03  0.000000000E+00  0.00000E+00  9.000E+00
      21    -1     0     0   501   502  0.000000000E+00  0.000000000E+00 -4.103967073E+01  4.103967073E+01  0.000000000E+00  0.00000E+00  9.000E+00
      25     1     1     2     0     0 -1.038621608E+02 -1.474955337E+02  4.723488704E+02  5.208461733E+02  1.250000000E+02  0.00000E+00  9.000E+00
      25     1     1     2     0     0  1.213320664E+02  1.230734458E+02  6.879894810E+02  7.202937383E+02  1.250000000E+02  0.00000E+00  9.000E+00
      21     1     1     2   512   502 -1.746990563E+01  2.442208793E+01  3.521742228E+02  3.534520041E+02  0.000000000E+00  0.00000E+00  9.000E+00
#rwgt            1           1  0.19984405707492986                2      204889           0
</event>
<event>
      5   9999  3.79277E-02  1.12332E+02 -1.00000E+00  1.21598E-01
      21    -1     0     0   502   501  0.000000000E+00  0.000000000E+00  8.216466885E+02  8.216466885E+02  0.000000000E+00  0.00000E+00  9.000E+00
      21    -1     0     0   501   511  0.000000000E+00  0.000000000E+00 -2.942420532E+02  2.942420532E+02  0.000000000E+00  0.00000E+00  9.000E+00
      25     1     1     2     0     0  2.721674749E+02  3.277599854E+02  2.595468944E+02  5.142872085E+02  1.250000000E+02  0.00000E+00  9.000E+00
      25     1     1     2     0     0 -1.652213105E+02 -3.621261629E+02  2.539420926E+02  4.884107142E+02  1.250000000E+02  0.00000E+00  9.000E+00
      21     1     1     2   502   511 -1.069461644E+02  3.436617756E+01  1.391564835E+01  1.131908190E+02  1.980453459E-06  0.00000E+00  9.000E+00
#rwgt            1           1   3.2833427898869637E-002           2      204976           0
</event>
<event>
      5   9999  3.79277E-02  1.11341E+02 -1.00000E+00  1.21765E-01
      21    -1     0     0   512   501  0.000000000E+00  0.000000000E+00  1.879323662E+02  1.879323662E+02  0.000000000E+00  0.00000E+00  9.000E+00
      21    -1     0     0   501   502  0.000000000E+00  0.000000000E+00 -3.707879169E+02  3.707879169E+02  0.000000000E+00  0.00000E+00  9.000E+00
      25     1     1     2     0     0 -4.943348945E+01 -1.598297688E+02 -5.523869648E+01  2.160220786E+02  1.250000000E+02  0.00000E+00  9.000E+00
      25     1     1     2     0     0  1.545747058E+00  5.931279644E+01 -1.738050890E+02  2.221567152E+02  1.250000000E+02  0.00000E+00  9.000E+00
      21     1     1     2   512   502  4.788774239E+01  1.005169723E+02  4.618823474E+01  1.205414892E+02  2.431401974E-06  0.00000E+00  9.000E+00
#rwgt            1           1   3.8550112269325879E-002           2      205193           0
</event>
<event>
      5   9999  3.79277E-02  1.91197E+01 -1.00000E+00  1.67998E-01
      21    -1     0     0   502   501  0.000000000E+00  0.000000000E+00  7.496672197E+02  7.496672197E+02  0.000000000E+00  0.00000E+00  9.000E+00
       2    -1     0     0   501     0  0.000000000E+00  0.000000000E+00 -5.369235177E+02  5.369235177E+02  0.000000000E+00  0.00000E+00  9.000E+00
      25     1     1     2     0     0  3.582322157E+01 -1.938406962E+02  5.115381449E+02  5.622755485E+02  1.250000000E+02  0.00000E+00  9.000E+00
      25     1     1     2     0     0 -3.994503300E+01  1.751705651E+02  1.562161973E+02  2.689030175E+02  1.250000000E+02  0.00000E+00  9.000E+00
       2     1     1     2   502     0  4.121811429E+00  1.867013111E+01 -4.550106403E+02  4.554121714E+02  0.000000000E+00  0.00000E+00  9.000E+00
#rwgt            1           1   2.9686200714795528E-002           2      205286           0
</event>
<event>
      5   9999  3.79277E-02  3.93956E+01 -1.00000E+00  1.45251E-01
      21    -1     0     0   511   501  0.000000000E+00  0.000000000E+00  9.274140329E+01  9.274140329E+01  0.000000000E+00  0.00000E+00  9.000E+00
      21    -1     0     0   501   502  0.000000000E+00  0.000000000E+00 -1.669740082E+03  1.669740082E+03  0.000000000E+00  0.00000E+00  9.000E+00
      25     1     1     2     0     0 -1.664712690E+02 -1.934431186E+02 -1.384362257E+03  1.413229204E+03  1.250000000E+02  0.00000E+00  9.000E+00
      25     1     1     2     0     0  1.474310302E+02  1.589542455E+02 -1.785227461E+02  3.074048335E+02  1.250000000E+02  0.00000E+00  9.000E+00
      21     1     1     2   511   502  1.904023887E+01  3.448887311E+01 -1.411367556E+01  4.184744798E+01  4.768371582E-07  0.00000E+00  9.000E+00
#rwgt            1           1   3.8512723172696495E-002           2      205480           0
</event>
<event>
      5   9999  3.79277E-02  3.35507E+01 -1.00000E+00  1.49741E-01
      21    -1     0     0   502   501  0.000000000E+00  0.000000000E+00  5.737283367E+01  5.737283367E+01  0.000000000E+00  0.00000E+00  9.000E+00
      21    -1     0     0   501   512  0.000000000E+00  0.000000000E+00 -9.993900386E+02  9.993900386E+02  0.000000000E+00  0.00000E+00  9.000E+00
      25     1     1     2     0     0  1.407459804E+02  4.714077985E+01 -6.427107344E+02  6.713670920E+02  1.250000000E+02  0.00000E+00  9.000E+00
      25     1     1     2     0     0 -1.254122341E+02 -1.729913598E+01 -1.510336873E+02  2.333745129E+02  1.250000000E+02  0.00000E+00  9.000E+00
      21     1     1     2   502   512 -1.533374627E+01 -2.984164387E+01 -1.482727833E+02  1.520212674E+02  2.697398305E-06  0.00000E+00  9.000E+00
#rwgt            1           1   4.2855438805927550E-002           2      205622           0
</event>
<event>
      5   9999  3.79277E-02  8.92186E+00 -1.00000E+00  2.01664E-01
      21    -1     0     0   502   501  0.000000000E+00  0.000000000E+00  1.058695646E+03  1.058695646E+03  0.000000000E+00  0.00000E+00  9.000E+00
       2    -1     0     0   501     0  0.000000000E+00  0.000000000E+00 -1.630287332E+02  1.630287332E+02  0.000000000E+00  0.00000E+00  9.000E+00
      25     1     1     2     0     0  6.268975439E+01 -2.612287575E+00  8.361545900E+02  8.477713888E+02  1.250000000E+02  0.00000E+00  9.000E+00
      25     1     1     2     0     0 -6.296614337E+01  1.152986387E+01  1.938191042E+02  2.393501998E+02  1.250000000E+02  0.00000E+00  9.000E+00
       2     1     1     2   502     0  2.763889890E-01 -8.917576294E+00 -1.343067817E+02  1.346027903E+02  1.907348633E-06  0.00000E+00  9.000E+00
#rwgt            1           1   4.2187538817317502E-002           2      205716           0
</event>
<event>
      5   9999  3.79277E-02  8.22491E+01 -1.00000E+00  1.27769E-01
      21    -1     0     0   502   501  0.000000000E+00  0.000000000E+00  2.116550752E+02  2.116550752E+02  0.000000000E+00  0.00000E+00  9.000E+00
      21    -1     0     0   501   511  0.000000000E+00  0.000000000E+00 -3.247808482E+02  3.247808482E+02  0.000000000E+00  0.00000E+00  9.000E+00
      25     1     1     2     0     0  4.041123702E+01  1.558175470E+02 -1.296761073E+02  2.415637987E+02  1.250000000E+02  0.00000E+00  9.000E+00
      25     1     1     2     0     0 -9.865976311E+01 -9.774835448E+01  6.686354728E+01  1.984545883E+02  1.250000000E+02  0.00000E+00  9.000E+00
      21     1     1     2   502   511  5.824852609E+01 -5.806919253E+01 -5.031321305E+01  9.641753637E+01  1.507891493E-06  0.00000E+00  9.000E+00
#rwgt            1           1   4.3137618608598098E-002           2      206023           0
</event>
<event>
      5   9999  3.79277E-02  1.28645E+01 -1.00000E+00  1.83907E-01
      21    -1     0     0   512   501  0.000000000E+00  0.000000000E+00  6.096803472E+01  6.096803472E+01  0.000000000E+00  0.00000E+00  9.000E+00
      21    -1     0     0   501   502  0.000000000E+00  0.000000000E+00 -6.023024385E+02  6.023024385E+02  0.000000000E+00  0.00000E+00  9.000E+00
      25     1     1     2     0     0 -1.056515575E+02 -7.487008721E+00 -3.964166697E+02  4.289399526E+02  1.250000000E+02  0.00000E+00  9.000E+00
      25     1     1     2     0     0  1.121802213E+02 -3.597770986E+00 -1.442842349E+02  2.214504153E+02  1.250000000E+02  0.00000E+00  9.000E+00
      21     1     1     2   512   502 -6.528663768E+00  1.108477971E+01 -6.334991617E-01  1.288010532E+01  2.521116185E-07  0.00000E+00  9.000E+00
#rwgt            1           1   4.3369226646868833E-002           2      206119           0
</event>
<event>
      5   9999  3.79277E-02  2.91742E+01 -1.00000E+00  1.53887E-01
      21    -1     0     0   502   511  0.000000000E+00  0.000000000E+00  2.392976795E+02  2.392976795E+02  0.000000000E+00  0.00000E+00  9.000E+00
      21    -1     0     0   501   502  0.000000000E+00  0.000000000E+00 -6.341427094E+02  6.341427094E+02  0.000000000E+00  0.00000E+00  9.000E+00
      25     1     1     2     0     0  7.576491784E+01 -4.902097372E+01 -1.031108619E+02  1.854729858E+02  1.250000000E+02  0.00000E+00  9.000E+00
      25     1     1     2     0     0 -1.031998198E+02  3.909815961E+01 -4.744701112E+02  5.029172450E+02  1.250000000E+02  0.00000E+00  9.000E+00
      21     1     1     2   501   511  2.743490191E+01  9.922814106E+00  1.827359432E+02  1.850501581E+02  3.814697266E-06  0.00000E+00  9.000E+00
#rwgt            1           1   4.4814810377897571E-002           2      206372           0
</event>
<event>
      5   9999  3.79277E-02  2.92306E+01 -1.00000E+00  1.53828E-01
       1    -1     0     0   502     0  0.000000000E+00  0.000000000E+00  1.796106284E+02  1.796106284E+02  0.000000000E+00  0.00000E+00  9.000E+00
      21    -1     0     0   501   502  0.000000000E+00  0.000000000E+00 -2.821434348E+02  2.821434348E+02  0.000000000E+00  0.00000E+00  9.000E+00
      25     1     1     2     0     0 -2.127309586E+01 -1.242268746E+02 -1.900395668E+01  1.785245399E+02  1.250000000E+02  0.00000E+00  9.000E+00
      25     1     1     2     0     0 -7.419977282E+00  1.298067381E+02 -1.341465706E+02  2.247779965E+02  1.250000000E+02  0.00000E+00  9.000E+00
       1     1     1     2   501     0  2.869307315E+01 -5.579863515E+00  5.061772086E+01  5.845152682E+01  6.743495762E-07  0.00000E+00  9.000E+00
#rwgt            1           1   4.8819265966195562E-002           2      206524           0
</event>
<event>
      5   9999  3.79277E-02  7.12720E+01 -1.00000E+00  1.30826E-01
      21    -1     0     0   502   501  0.000000000E+00  0.000000000E+00  1.012111341E+03  1.012111341E+03  0.000000000E+00  0.00000E+00  9.000E+00
      21    -1     0     0   501   511  0.000000000E+00  0.000000000E+00 -2.936207221E+02  2.936207221E+02  0.000000000E+00  0.00000E+00  9.000E+00
      25     1     1     2     0     0 -1.010832220E+02  5.518505882E+01  4.706152346E+02  5.003667730E+02  1.250000000E+02  0.00000E+00  9.000E+00
      25     1     1     2     0     0  7.807229826E+01 -1.226402187E+02  5.041431707E+02  5.393711557E+02  1.250000000E+02  0.00000E+00  9.000E+00
      21     1     1     2   502   511  2.301092373E+01  6.745515985E+01 -2.562677864E+02  2.659941344E+02  5.394796609E-06  0.00000E+00  9.000E+00
#rwgt            1           1   5.3932673313242509E-002           2      206626           0
</event>
<event>
      5   9999  3.79277E-02  3.26696E+01 -1.00000E+00  1.50512E-01
      21    -1     0     0   502   512  0.000000000E+00  0.000000000E+00  8.188572755E+02  8.188572755E+02  0.000000000E+00  0.00000E+00  9.000E+00
      21    -1     0     0   501   502  0.000000000E+00  0.000000000E+00 -5.980993713E+01  5.980993713E+01  0.000000000E+00  0.00000E+00  9.000E+00
      25     1     1     2     0     0  1.338207720E+01 -1.637644817E+02  4.027778048E+02  4.526067227E+02  1.250000000E+02  0.00000E+00  9.000E+00
      25     1     1     2     0     0  1.479859635E+01  1.472371738E+02  2.588226769E+02  3.232830987E+02  1.250000000E+02  0.00000E+00  9.000E+00
      21     1     1     2   501   512 -2.818067355E+01  1.652730786E+01  9.744685670E+01  1.027773912E+02  1.348699152E-06  0.00000E+00  9.000E+00
#rwgt            1           1   4.0802828464014250E-002           2      206676           0
</event>
<event>
      5   9999  3.79277E-02  2.48694E+01 -1.00000E+00  1.58922E-01
      21    -1     0     0   511   501  0.000000000E+00  0.000000000E+00  1.365692951E+02  1.365692951E+02  0.000000000E+00  0.00000E+00  9.000E+00
      21    -1     0     0   501   502  0.000000000E+00  0.000000000E+00 -1.120559219E+03  1.120559219E+03  0.000000000E+00  0.00000E+00  9.000E+00
      25     1     1     2     0     0 -4.067791913E+01  9.956762767E+01 -7.080152855E+02  7.269656458E+02  1.250000000E+02  0.00000E+00  9.000E+00
      25     1     1     2     0     0  1.825862184E+01 -8.880380394E+01 -3.868512719E+02  4.165313907E+02  1.250000000E+02  0.00000E+00  9.000E+00
      21     1     1     2   511   502  2.241929729E+01 -1.076382372E+01  1.108766336E+02  1.136314775E+02  1.907348633E-06  0.00000E+00  9.000E+00
#rwgt            1           1   7.1668268735101029E-002           2      206808           0
</event>
<event>
      5   9999  3.79277E-02  7.48118E+01 -1.00000E+00  1.29775E-01
      21    -1     0     0   512   501  0.000000000E+00  0.000000000E+00  4.580948653E+02  4.580948653E+02  0.000000000E+00  0.00000E+00  9.000E+00
      21    -1     0     0   501   502  0.000000000E+00  0.000000000E+00 -2.313639650E+02  2.313639650E+02  0.000000000E+00  0.00000E+00  9.000E+00
      25     1     1     2     0     0 -5.151972607E+01  1.852196057E+02 -6.071186720E+00  2.293958235E+02  1.250000000E+02  0.00000E+00  9.000E+00
      25     1     1     2     0     0 -6.416780168E+00 -1.378891311E+02 -2.838275301E+01  1.883750732E+02  1.250000000E+02  0.00000E+00  9.000E+00
      21     1     1     2   512   502  5.793650624E+01 -4.733047466E+01  2.611848400E+02  2.716879336E+02  3.814697266E-06  0.00000E+00  9.000E+00
#rwgt            1           1   4.4376887961267986E-002           2      206965           0
</event>
<event>
      5   9999  3.79277E-02  1.04747E+02 -1.00000E+00  1.22929E-01
      21    -1     0     0   502   501  0.000000000E+00  0.000000000E+00  2.796077671E+02  2.796077671E+02  0.000000000E+00  0.00000E+00  9.000E+00
      21    -1     0     0   511   502  0.000000000E+00  0.000000000E+00 -7.911902389E+02  7.911902389E+02  0.000000000E+00  0.00000E+00  9.000E+00
      25     1     1     2     0     0  1.957941309E+02  2.231008095E+02 -3.274068497E+01  3.237379578E+02  1.250000000E+02  0.00000E+00  9.000E+00
      25     1     1     2     0     0 -2.472704360E+02 -3.143266921E+02 -2.320844560E+02  4.789907438E+02  1.250000000E+02  0.00000E+00  9.000E+00
      21     1     1     2   511   501  5.147630508E+01  9.122588269E+01 -2.467573308E+02  2.680693044E+02  2.697398305E-06  0.00000E+00  9.000E+00
#rwgt            2          11   1.7623532989190244E-003           2      207096           0
</event>
<event>
      5   9999  3.79277E-02  8.83549E+01 -1.00000E+00  1.26296E-01
      21    -1     0     0   502   501  0.000000000E+00  0.000000000E+00  2.565410307E+01  2.565410307E+01  0.000000000E+00  0.00000E+00  9.000E+00
      21    -1     0     0   501   512  0.000000000E+00  0.000000000E+00 -4.578055852E+03  4.578055852E+03  0.000000000E+00  0.00000E+00  9.000E+00
      25     1     1     2     0     0  1.517287228E+02 -2.486186959E+02 -1.849709464E+03  1.876668048E+03  1.250000000E+02  0.00000E+00  9.000E+00
      25     1     1     2     0     0 -7.445645780E+01  2.057748909E+02 -1.492409853E+03  1.513538648E+03  1.250000000E+02  0.00000E+00  9.000E+00
      21     1     1     2   502   512 -7.727226498E+01  4.284380497E+01 -1.210282431E+03  1.213503258E+03  2.642899792E-05  0.00000E+00  9.000E+00
#rwgt            1           1   2.1997391711302283E-002           2      207116           0
</event>
<event>
      5   9999  3.79277E-02  1.81482E+01 -1.00000E+00  1.69928E-01
      21    -1     0     0   502   501  0.000000000E+00  0.000000000E+00  1.656414234E+02  1.656414234E+02  0.000000000E+00  0.00000E+00  9.000E+00
      21    -1     0     0   511   502  0.000000000E+00  0.000000000E+00 -2.480935252E+02  2.480935252E+02  0.000000000E+00  0.00000E+00  9.000E+00
      25     1     1     2     0     0 -2.508967715E+01 -3.420457270E+01 -1.046982799E+02  1.684819709E+02  1.250000000E+02  0.00000E+00  9.000E+00
      25     1     1     2     0     0  8.038243896E+00  4.041795143E+01  1.000708761E+02  1.653402686E+02  1.250000000E+02  0.00000E+00  9.000E+00
      21     1     1     2   511   501  1.705143325E+01 -6.213378731E+00 -7.782469810E+01  7.991270916E+01  0.000000000E+00  0.00000E+00  9.000E+00
#rwgt            1           1   3.5426635726242321E-002           2      207316           0
</event>
<event>
      5   9999  3.79277E-02  1.47236E+02 -1.00000E+00  1.16715E-01
      21    -1     0     0   512   501  0.000000000E+00  0.000000000E+00  2.422122076E+03  2.422122076E+03  0.000000000E+00  0.00000E+00  9.000E+00
      21    -1     0     0   501   502  0.000000000E+00  0.000000000E+00 -2.820600739E+01  2.820600739E+01  0.000000000E+00  0.00000E+00  9.000E+00
      25     1     1     2     0     0  1.078545818E+02 -6.316168940E+00  8.686802335E+02  8.842527088E+02  1.250000000E+02  0.00000E+00  9.000E+00
      25     1     1     2     0     0 -8.018437818E+01 -1.382966557E+02  7.492596382E+02  7.762541497E+02  1.250000000E+02  0.00000E+00  9.000E+00
      21     1     1     2   512   502 -2.767020362E+01  1.446128247E+02  7.759761965E+02  7.898212245E+02  0.000000000E+00  0.00000E+00  9.000E+00
#rwgt            2          11   1.2098594305089212E-003           2      207521           0
</event>
<event>
      5   9999  3.79277E-02  1.17129E+01 -1.00000E+00  1.88141E-01
      21    -1     0     0   502   501  0.000000000E+00  0.000000000E+00  5.454535319E+02  5.454535319E+02  0.000000000E+00  0.00000E+00  9.000E+00
      21    -1     0     0   501   511  0.000000000E+00  0.000000000E+00 -4.846646961E+01  4.846646961E+01  0.000000000E+00  0.00000E+00  9.000E+00
      25     1     1     2     0     0 -3.469243363E+01 -4.915494153E+01  2.000224259E+02  2.434209196E+02  1.250000000E+02  0.00000E+00  9.000E+00
      25     1     1     2     0     0  2.314454079E+01  4.719610071E+01  3.066538968E+02  3.352980079E+02  1.250000000E+02  0.00000E+00  9.000E+00
      21     1     1     2   502   511  1.154789285E+01  1.958840824E+00 -9.689260354E+00  1.520107407E+01  1.685873940E-07  0.00000E+00  9.000E+00
#rwgt            1           1   4.3135958884961648E-002           2      207556           0
</event>
<event>
      5   9999  3.79277E-02  4.93747E+01 -1.00000E+00  1.39388E-01
      21    -1     0     0   502   501  0.000000000E+00  0.000000000E+00  4.161768725E+02  4.161768725E+02  0.000000000E+00  0.00000E+00  9.000E+00
      21    -1     0     0   501   512  0.000000000E+00  0.000000000E+00 -1.349922669E+02  1.349922669E+02  0.000000000E+00  0.00000E+00  9.000E+00
      25     1     1     2     0     0 -1.324779554E+02  3.852329842E+01  2.312062375E+02  2.968430182E+02  1.250000000E+02  0.00000E+00  9.000E+00
      25     1     1     2     0     0  1.322744112E+02  1.085098843E+01  7.715063390E+01  1.979683917E+02  1.250000000E+02  0.00000E+00  9.000E+00
      21     1     1     2   502   512  2.035441379E-01 -4.937428686E+01 -2.717226582E+01  5.635772940E+01  5.840038640E-07  0.00000E+00  9.000E+00
#rwgt            1           1   4.0859247462822094E-002           2      207683           0
</event>
<event>
      5   9999  3.79277E-02  9.40198E+01 -1.00000E+00  1.25045E-01
      21    -1     0     0   511   501  0.000000000E+00  0.000000000E+00  1.076872633E+02  1.076872633E+02  0.000000000E+00  0.00000E+00  9.000E+00
      21    -1     0     0   501   502  0.000000000E+00  0.000000000E+00 -1.031600644E+03  1.031600644E+03  0.000000000E+00  0.00000E+00  9.000E+00
      25     1     1     2     0     0 -1.297949685E+02  1.081011669E+02 -6.561180958E+02  6.889474231E+02  1.250000000E+02  0.00000E+00  9.000E+00
      25     1     1     2     0     0  2.202382404E+02 -8.241576639E+01 -1.779469429E+02  3.202926093E+02  1.250000000E+02  0.00000E+00  9.000E+00
      21     1     1     2   511   502 -9.044327187E+01 -2.568540048E+01 -8.984834199E+01  1.300478750E+02  1.348699152E-06  0.00000E+00  9.000E+00
#rwgt            1           1   4.2904747032216313E-002           2      207876           0
</event>
<event>
      5   9999 -3.79277E-02  3.39241E+01 -1.00000E+00  1.49422E-01
      21    -1     0     0   502   501  0.000000000E+00  0.000000000E+00  7.958765306E+02  7.958765306E+02  0.000000000E+00  0.00000E+00  9.000E+00
      21    -1     0     0   512   502  0.000000000E+00  0.000000000E+00 -6.765369790E+01  6.765369790E+01  0.000000000E+00  0.00000E+00  9.000E+00
      25     1     1     2     0     0  1.315264235E+02 -6.096112251E+01  5.184482972E+02  5.526563990E+02  1.250000000E+02  0.00000E+00  9.000E+00
      25     1     1     2     0     0 -1.404777292E+02  2.823932464E+01  1.990927914E+02  2.753078122E+02  1.250000000E+02  0.00000E+00  9.000E+00
      21     1     1     2   512   501  8.951305724E+00  3.272179787E+01  1.068174413E+01  3.556601731E+01  8.172577143E-07  0.00000E+00  9.000E+00
#rwgt            1           1  -8.9699634296431782E-002           2      207932           0
</event>
<event>
      5   9999  3.79277E-02  3.80559E+01 -1.00000E+00  1.46195E-01
      21    -1     0     0   502   501  0.000000000E+00  0.000000000E+00  2.305794926E+02  2.305794926E+02  0.000000000E+00  0.00000E+00  9.000E+00
       2    -1     0     0   501     0  0.000000000E+00  0.000000000E+00 -4.447211427E+02  4.447211427E+02  0.000000000E+00  0.00000E+00  9.000E+00
      25     1     1     2     0     0 -1.538233119E+02 -7.019816038E+01  1.158724278E+00  2.102753805E+02  1.250000000E+02  0.00000E+00  9.000E+00
      25     1     1     2     0     0  1.202103878E+02  8.804248143E+01  4.690898574E+01  2.000686602E+02  1.250000000E+02  0.00000E+00  9.000E+00
       2     1     1     2   502     0  3.361292415E+01 -1.784432104E+01 -2.622093601E+02  2.649565945E+02  3.814697266E-06  0.00000E+00  9.000E+00
#rwgt            1           1   2.5027647734681840E-002           2      208042           0
</event>
<event>
      5   9999  3.79277E-02  1.85586E+01 -1.00000E+00  1.69095E-01
      21    -1     0     0   511   501  0.000000000E+00  0.000000000E+00  5.975279834E+02  5.975279834E+02  0.000000000E+00  0.00000E+00  9.000E+00
      21    -1     0     0   501   502  0.000000000E+00  0.000000000E+00 -3.497482695E+01  3.497482695E+01  0.000000000E+00  0.00000E+00  9.000E+00
      25     1     1     2     0     0  1.712758221E+00  3.008639508E+01  1.790327835E+02  2.204220095E+02  1.250000000E+02  0.00000E+00  9.000E+00
      25     1     1     2     0     0  1.572699777E+01 -3.643266832E+01  3.179815029E+02  3.439649895E+02  1.250000000E+02  0.00000E+00  9.000E+00
      21     1     1     2   511   502 -1.743975599E+01  6.346273238E+00  6.553887011E+01  6.811581144E+01  0.000000000E+00  0.00000E+00  9.000E+00
#rwgt            1           1   2.7723545854276114E-002           2      208213           0
</event>
<event>
      5   9999  3.79277E-02  1.90252E+02 -1.00000E+00  1.12444E-01
      21    -1     0     0   502   501  0.000000000E+00  0.000000000E+00  1.054831441E+03  1.054831441E+03  0.000000000E+00  0.00000E+00  9.000E+00
      21    -1     0     0   512   502  0.000000000E+00  0.000000000E+00 -1.836334562E+02  1.836334562E+02  0.000000000E+00  0.00000E+00  9.000E+00
      25     1     1     2     0     0  1.500682523E+02  1.297286696E+02  8.503647196E+02  8.820970266E+02  1.250000000E+02  0.00000E+00  9.000E+00
      25     1     1     2     0     0  3.314601910E+00 -1.716974063E+01 -7.131878623E+01  1.449729487E+02  1.250000000E+02  0.00000E+00  9.000E+00
      21     1     1     2   512   501 -1.533828542E+02 -1.125589290E+02  9.215205156E+01  2.113949221E+02  1.907348633E-06  0.00000E+00  9.000E+00
#rwgt            1           1   4.4893102438087099E-002           2      208398           0
</event>
<event>
      5   9999 -3.79277E-02  1.63124E+02 -1.00000E+00  1.14968E-01
      21    -1     0     0   502   501  0.000000000E+00  0.000000000E+00  4.587702705E+01  4.587702705E+01  0.000000000E+00  0.00000E+00  9.000E+00
      21    -1     0     0   511   502  0.000000000E+00  0.000000000E+00 -2.581915509E+03  2.581915509E+03  0.000000000E+00  0.00000E+00  9.000E+00
      25     1     1     2     0     0 -2.225894724E+02 -1.052703927E+02 -6.883476307E+02  7.416706746E+02  1.250000000E+02  0.00000E+00  9.000E+00
      25     1     1     2     0     0  1.659880841E+02 -4.771851948E+01 -1.152025666E+03  1.171587486E+03  1.250000000E+02  0.00000E+00  9.000E+00
      21     1     1     2   511   501  5.660138830E+01  1.529889122E+02 -6.956651847E+02  7.145343754E+02  7.629394531E-06  0.00000E+00  9.000E+00
#rwgt            1           1  -4.7575478329280461E-002           2      208528           0
</event>
<event>
      5   9999  3.79277E-02  1.66435E+02 -1.00000E+00  1.14632E-01
       2    -1     0     0   502     0  0.000000000E+00  0.000000000E+00  9.916159722E+02  9.916159722E+02  0.000000000E+00  0.00000E+00  9.000E+00
      21    -1     0     0   501   502  0.000000000E+00  0.000000000E+00 -3.224043965E+02  3.224043965E+02  0.000000000E+00  0.00000E+00  9.000E+00
      25     1     1     2     0     0 -1.179519329E+02  1.703771629E+02 -1.453846257E+02  2.823167113E+02  1.250000000E+02  0.00000E+00  9.000E+00
      25     1     1     2     0     0 -7.878688321E+00 -2.793134793E+02  1.395062447E+02  3.364001870E+02  1.250000000E+02  0.00000E+00  9.000E+00
       2     1     1     2   501     0  1.258306212E+02  1.089363164E+02  6.750899568E+02  6.953034704E+02  1.078959322E-05  0.00000E+00  9.000E+00
#rwgt            2          18   8.1841248514259713E-004           2      208598           0
</event>
<event>
      5   9999  3.79277E-02  4.62679E+01 -1.00000E+00  1.41025E-01
      21    -1     0     0   502   511  0.000000000E+00  0.000000000E+00  1.609317728E+02  1.609317728E+02  0.000000000E+00  0.00000E+00  9.000E+00
      21    -1     0     0   501   502  0.000000000E+00  0.000000000E+00 -3.989566386E+02  3.989566386E+02  0.000000000E+00  0.00000E+00  9.000E+00
      25     1     1     2     0     0  1.430415442E+01  4.428192501E+01  4.918818863E+01  1.421617938E+02  1.250000000E+02  0.00000E+00  9.000E+00
      25     1     1     2     0     0 -6.035897432E+01 -3.984623368E+01 -3.265104161E+02  3.570223802E+02  1.250000000E+02  0.00000E+00  9.000E+00
      21     1     1     2   501   511  4.605481991E+01 -4.435691332E+00  3.929736171E+01  6.070423735E+01  1.168007728E-06  0.00000E+00  9.000E+00
#rwgt            1           1   4.2030314168045119E-002           2      208617           0
</event>
<event>
      5   9999  3.79277E-02  3.65837E+01 -1.00000E+00  1.47287E-01
      21    -1     0     0   512   501  0.000000000E+00  0.000000000E+00  7.933188626E+01  7.933188626E+01  0.000000000E+00  0.00000E+00  9.000E+00
      21    -1     0     0   501   502  0.000000000E+00  0.000000000E+00 -1.067146538E+03  1.067146538E+03  0.000000000E+00  0.00000E+00  9.000E+00
      25     1     1     2     0     0 -8.397214342E+01 -1.863801623E+02 -2.842399013E+02  3.717609544E+02  1.250000000E+02  0.00000E+00  9.000E+00
      25     1     1     2     0     0  9.163205777E+01  2.221529300E+02 -6.779240206E+02  7.300372155E+02  1.250000000E+02  0.00000E+00  9.000E+00
      21     1     1     2   512   502 -7.659914352E+00 -3.577276772E+01 -2.565073022E+01  4.468025469E+01  8.920806376E-07  0.00000E+00  9.000E+00
#rwgt            1           1   3.7751500678580775E-002           2      208834           0
</event>
<event>
      5   9999  3.79277E-02  3.69953E+01 -1.00000E+00  1.46975E-01
      21    -1     0     0   502   501  0.000000000E+00  0.000000000E+00  4.225367874E+02  4.225367874E+02  0.000000000E+00  0.00000E+00  9.000E+00
      21    -1     0     0   511   502  0.000000000E+00  0.000000000E+00 -1.794416584E+02  1.794416584E+02  0.000000000E+00  0.00000E+00  9.000E+00
      25     1     1     2     0     0 -1.169512164E+02 -1.129265440E+02  3.040664180E+02  3.667579283E+02  1.250000000E+02  0.00000E+00  9.000E+00
      25     1     1     2     0     0  1.182128261E+02  7.595280767E+01 -3.859170995E+01  1.919828672E+02  1.250000000E+02  0.00000E+00  9.000E+00
      21     1     1     2   511   501 -1.261609628E+00  3.697373633E+01 -2.237957916E+01  4.323765026E+01  1.011524364E-06  0.00000E+00  9.000E+00
#rwgt            1           1   4.3513970236955773E-002           2      209104           0
</event>
<event>
      5   9999  3.79277E-02  1.38029E+01 -1.00000E+00  1.80856E-01
      21    -1     0     0   502   501  0.000000000E+00  0.000000000E+00  7.842680423E+01  7.842680423E+01  0.000000000E+00  0.00000E+00  9.000E+00
      21    -1     0     0   501   512  0.000000000E+00  0.000000000E+00 -1.314406567E+03  1.314406567E+03  0.000000000E+00  0.00000E+00  9.000E+00
      25     1     1     2     0     0  3.946347327E+01  2.437309470E+02 -8.943712452E+02  9.362088786E+02  1.250000000E+02  0.00000E+00  9.000E+00
      25     1     1     2     0     0 -3.278555141E+01 -2.558108503E+02 -3.102759263E+02  4.223863562E+02  1.250000000E+02  0.00000E+00  9.000E+00
      21     1     1     2   502   512 -6.677921857E+00  1.207990329E+01 -3.133259140E+01  3.423813646E+01  3.371747881E-07  0.00000E+00  9.000E+00
#rwgt            1           1   3.5567080831832069E-002           2      209233           0
</event>
<event>
      5   9999  3.79277E-02  1.58993E+02 -1.00000E+00  1.15400E-01
      21    -1     0     0   502   501  0.000000000E+00  0.000000000E+00  1.360287865E+03  1.360287865E+03  0.000000000E+00  0.00000E+00  9.000E+00
      21    -1     0     0   501   511  0.000000000E+00  0.000000000E+00 -1.910923188E+02  1.910923188E+02  0.000000000E+00  0.00000E+00  9.000E+00
      25     1     1     2     0     0  6.643193126E+01 -9.500085136E+01  2.691135961E+01  1.725908008E+02  1.250000000E+02  0.00000E+00  9.000E+00
      25     1     1     2     0     0 -2.080422356E+02  2.271365584E+01  1.188479152E+03  1.213220993E+03  1.250000000E+02  0.00000E+00  9.000E+00
      21     1     1     2   502   511  1.416103043E+02  7.228719552E+01 -4.619496589E+01  1.655683901E+02  2.336015456E-06  0.00000E+00  9.000E+00
#rwgt            2          11   2.5477657484778045E-003           2      209475           0
</event>
<event>
      5   9999  3.79277E-02  2.30733E+01 -1.00000E+00  1.61405E-01
      21    -1     0     0   502   501  0.000000000E+00  0.000000000E+00  1.103586642E+03  1.103586642E+03  0.000000000E+00  0.00000E+00  9.000E+00
      21    -1     0     0   512   502  0.000000000E+00  0.000000000E+00 -1.232968916E+02  1.232968916E+02  0.000000000E+00  0.00000E+00  9.000E+00
      25     1     1     2     0     0 -1.951916696E+02 -7.223826150E+01  6.518299857E+02  6.955756498E+02  1.250000000E+02  0.00000E+00  9.000E+00
      25     1     1     2     0     0  2.022802131E+02  5.028078832E+01  3.933824680E+02  4.624069727E+02  1.250000000E+02  0.00000E+00  9.000E+00
      21     1     1     2   512   501 -7.088543476E+00  2.195747317E+01 -6.492270353E+01  6.890091081E+01  9.536743164E-07  0.00000E+00  9.000E+00
#rwgt            1           1  0.10970837050086894                2      209510           0
</event>
<event>
      5   9999  3.79277E-02  1.60622E+02 -1.00000E+00  1.15228E-01
      21    -1     0     0   502   501  0.000000000E+00  0.000000000E+00  2.579069995E+02  2.579069995E+02  0.000000000E+00  0.00000E+00  9.000E+00
      21    -1     0     0   511   502  0.000000000E+00  0.000000000E+00 -7.794842943E+02  7.794842943E+02  0.000000000E+00  0.00000E+00  9.000E+00
      25     1     1     2     0     0  2.040613649E+01 -2.902943506E+02 -8.051092971E+01  3.267938650E+02  1.250000000E+02  0.00000E+00  9.000E+00
      25     1     1     2     0     0 -1.809926599E+02  2.869155954E+02 -1.794708704E+02  4.036256869E+02  1.250000000E+02  0.00000E+00  9.000E+00
      21     1     1     2   511   501  1.605865234E+02  3.378755163E+00 -2.615954948E+02  3.069717419E+02  5.394796609E-06  0.00000E+00  9.000E+00
#rwgt            1           1   3.2611834895413867E-002           2      209713           0
</event>
<event>
      5   9999  3.79277E-02  4.08107E+01 -1.00000E+00  1.44302E-01
      21    -1     0     0   502   501  0.000000000E+00  0.000000000E+00  2.118028030E+03  2.118028030E+03  0.000000000E+00  0.00000E+00  9.000E+00
      21    -1     0     0   501   512  0.000000000E+00  0.000000000E+00 -4.367539488E+02  4.367539488E+02  0.000000000E+00  0.00000E+00  9.000E+00
      25     1     1     2     0     0  5.079490246E+01  1.622066750E+02  6.529992238E+02  6.862391083E+02  1.250000000E+02  0.00000E+00  9.000E+00
      25     1     1     2     0     0 -1.184346295E+01 -1.500288515E+02  1.440791161E+03  1.454012756E+03  1.250000000E+02  0.00000E+00  9.000E+00
      21     1     1     2   502   512 -3.895143951E+01 -1.217782354E+01 -4.125163044E+02  4.145301140E+02  7.629394531E-06  0.00000E+00  9.000E+00
#rwgt            1           1   7.7293532367802426E-002           2      209936           0
</event>
<event>
      5   9999  3.79277E-02  1.08121E+02 -1.00000E+00  1.22322E-01
      21    -1     0     0   511   501  0.000000000E+00  0.000000000E+00  2.611038707E+02  2.611038707E+02  0.000000000E+00  0.00000E+00  9.000E+00
      21    -1     0     0   501   502  0.000000000E+00  0.000000000E+00 -7.319529380E+02  7.319529380E+02  0.000000000E+00  0.00000E+00  9.000E+00
      25     1     1     2     0     0 -1.663624393E+02 -1.015930699E+02 -4.875584553E+01  2.366426537E+02  1.250000000E+02  0.00000E+00  9.000E+00
      25     1     1     2     0     0  2.123583788E+02  3.743779448E+00 -5.417342317E+02  5.951563448E+02  1.250000000E+02  0.00000E+00  9.000E+00
      21     1     1     2   511   502 -4.599593952E+01  9.784929047E+01  1.196410100E+02  1.612578102E+02  2.697398305E-06  0.00000E+00  9.000E+00
#rwgt            2          11   2.2675230505394728E-003           2      210061           0
</event>
<event>
      5   9999  3.79277E-02  3.38499E+01 -1.00000E+00  1.49485E-01
      21    -1     0     0   502   512  0.000000000E+00  0.000000000E+00  3.431018879E+02  3.431018879E+02  0.000000000E+00  0.00000E+00  9.000E+00
      21    -1     0     0   501   502  0.000000000E+00  0.000000000E+00 -1.373962491E+02  1.373962491E+02  0.000000000E+00  0.00000E+00  9.000E+00
      25     1     1     2     0     0 -1.221887713E+02  2.999038204E+01 -1.127179346E+00  1.773578005E+02  1.250000000E+02  0.00000E+00  9.000E+00
      25     1     1     2     0     0  8.984691884E+01 -1.999953782E+01  8.559982422E+01  1.772703592E+02  1.250000000E+02  0.00000E+00  9.000E+00
      21     1     1     2   501   512  3.234185251E+01 -9.990844212E+00  1.212329939E+02  1.258699773E+02  1.348699152E-06  0.00000E+00  9.000E+00
#rwgt            1           1   3.7772010922622570E-002           2      210126           0
</event>
<event>
      5   9999  3.79277E-02  2.03199E+01 -1.00000E+00  1.65802E-01
      21    -1     0     0   502   501  0.000000000E+00  0.000000000E+00  2.726663434E+02  2.726663434E+02  0.000000000E+00  0.00000E+00  9.000E+00
      21    -1     0     0   501   511  0.000000000E+00  0.000000000E+00 -1.192986937E+02  1.192986937E+02  0.000000000E+00  0.00000E+00  9.000E+00
      25     1     1     2     0     0  3.227889841E+01  1.006706844E+02  1.375437934E+02  2.138219097E+02  1.250000000E+02  0.00000E+00  9.000E+00
      25     1     1     2     0     0 -4.247108289E+01 -8.309180695E+01  7.458660796E+00  1.561687321E+02  1.250000000E+02  0.00000E+00  9.000E+00
      21     1     1     2   502   511  1.019218447E+01 -1.757887740E+01  8.365195445E+00  2.197439532E+01  4.616955931E-07  0.00000E+00  9.000E+00
#rwgt            1           1   4.4742798588198442E-002           2      210229           0
</event>
<event>
      5   9999  3.79277E-02  2.50423E+01 -1.00000E+00  1.58696E-01
      21    -1     0     0   512   501  0.000000000E+00  0.000000000E+00  1.387220765E+02  1.387220765E+02  0.000000000E+00  0.00000E+00  9.000E+00
      21    -1     0     0   501   502  0.000000000E+00  0.000000000E+00 -6.463208102E+02  6.463208102E+02  0.000000000E+00  0.00000E+00  9.000E+00
      25     1     1     2     0     0  2.148151547E+02 -4.544319627E+01 -3.175710998E+02  4.058165081E+02  1.250000000E+02  0.00000E+00  9.000E+00
      25     1     1     2     0     0 -1.915568211E+02  5.472590483E+01 -2.319940587E+02  3.303561467E+02  1.250000000E+02  0.00000E+00  9.000E+00
      21     1     1     2   512   502 -2.325833364E+01 -9.282708564E+00  4.196642482E+01  4.887023198E+01  9.536743164E-07  0.00000E+00  9.000E+00
#rwgt            1           1  0.36064752349617096                2      210434           0
</event>
<event>
      5   9999  3.79277E-02  4.04108E+01 -1.00000E+00  1.44566E-01
      21    -1     0     0   502   511  0.000000000E+00  0.000000000E+00  5.941953688E+01  5.941953688E+01  0.000000000E+00  0.00000E+00  9.000E+00
      21    -1     0     0   501   502  0.000000000E+00  0.000000000E+00 -8.113263499E+02  8.113263499E+02  0.000000000E+00  0.00000E+00  9.000E+00
      25     1     1     2     0     0  4.432611480E+01  2.695679965E+01 -5.721277098E+01  1.469345932E+02  1.250000000E+02  0.00000E+00  9.000E+00
      25     1     1     2     0     0 -6.180956405E+01  9.476135475E+00 -6.439426849E+02  6.589365681E+02  1.250000000E+02  0.00000E+00  9.000E+00
      21     1     1     2   501   511  1.748344926E+01 -3.643293513E+01 -5.075135709E+01  6.487472549E+01  1.168007728E-06  0.00000E+00  9.000E+00
#rwgt            1           1   4.5410896630619473E-002           2      210587           0
</event>
<event>
      5   9999  3.79277E-02  7.07918E+01 -1.00000E+00  1.30974E-01
      -1    -1     0     0     0   501  0.000000000E+00  0.000000000E+00  3.941811850E+02  3.941811850E+02  0.000000000E+00  0.00000E+00  9.000E+00
      21    -1     0     0   501   502  0.000000000E+00  0.000000000E+00 -2.768438671E+02  2.768438671E+02  0.000000000E+00  0.00000E+00  9.000E+00
      25     1     1     2     0     0 -6.669097952E+01  5.031631364E+01  7.173207071E+01  1.665830368E+02  1.250000000E+02  0.00000E+00  9.000E+00
      25     1     1     2     0     0  1.189408805E+02 -9.808059038E+01 -1.800313302E+02  2.679608462E+02  1.250000000E+02  0.00000E+00  9.000E+00
      -1     1     1     2     0   502 -5.224990098E+01  4.776427674E+01  2.256365774E+02  2.364811691E+02  0.000000000E+00  0.00000E+00  9.000E+00
#rwgt            1           1   3.6118522029309437E-002           2      210754           0
</event>
<event>
      5   9999 -3.79277E-02  1.82722E+01 -1.00000E+00  1.69673E-01
      21    -1     0     0   511   501  0.000000000E+00  0.000000000E+00  4.017110828E+02  4.017110828E+02  0.000000000E+00  0.00000E+00  9.000E+00
      21    -1     0     0   501   502  0.000000000E+00  0.000000000E+00 -1.392976307E+03  1.392976307E+03  0.000000000E+00  0.00000E+00  9.000E+00
      25     1     1     2     0     0 -1.895735408E+02  2.054387169E+02 -8.308344212E+02  8.854682542E+02  1.250000000E+02  0.00000E+00  9.000E+00
      25     1     1     2     0     0  2.012525331E+02 -2.194913241E+02 -4.857890983E+02  5.833481563E+02  1.250000000E+02  0.00000E+00  9.000E+00
      21     1     1     2   511   502 -1.167899236E+01  1.405260723E+01  3.253582955E+02  3.258709792E+02  6.607249480E-06  0.00000E+00  9.000E+00
#rwgt            1           1 -0.10576398823206581                2      210793           0
</event>
<event>
      5   9999  3.79277E-02  1.35098E+02 -1.00000E+00  1.18224E-01
       1    -1     0     0   502     0  0.000000000E+00  0.000000000E+00  1.470795094E+03  1.470795094E+03  0.000000000E+00  0.00000E+00  9.000E+00
      21    -1     0     0   501   502  0.000000000E+00  0.000000000E+00 -1.752968443E+02  1.752968443E+02  0.000000000E+00  0.00000E+00  9.000E+00
      25     1     1     2     0     0  2.753068438E+02 -2.184656610E+02  2.775174602E+02  4.649323005E+02  1.250000000E+02  0.00000E+00  9.000E+00
      25     1     1     2     0     0 -1.819587883E+02  1.208053101E+02  1.305381266E+02  2.834927267E+02  1.250000000E+02  0.00000E+00  9.000E+00
       1     1     1     2   501     0 -9.334805553E+01  9.766035095E+01  8.874426629E+02  8.976669112E+02  2.157918644E-05  0.00000E+00  9.000E+00
#rwgt            1           1  0.24992666162250421                2      210964           0
</event>
<event>
      5   9999  3.79277E-02  6.93434E+01 -1.00000E+00  1.31428E-01
      21    -1     0     0   502   511  0.000000000E+00  0.000000000E+00  2.843128441E+02  2.843128441E+02  0.000000000E+00  0.00000E+00  9.000E+00
      21    -1     0     0   501   502  0.000000000E+00  0.000000000E+00 -6.034048008E+02  6.034048008E+02  0.000000000E+00  0.00000E+00  9.000E+00
      25     1     1     2     0     0 -7.281699607E+01 -7.929029987E+01 -6.886966790E-01  1.649689088E+02  1.250000000E+02  0.00000E+00  9.000E+00
      25     1     1     2     0     0  1.212629221E+02  2.967681572E+01 -4.989716011E+02  5.293232173E+02  1.250000000E+02  0.00000E+00  9.000E+00
      21     1     1     2   501   511 -4.844592604E+01  4.961348415E+01  1.805683410E+02  1.934255188E+02  0.000000000E+00  0.00000E+00  9.000E+00
#rwgt            1           1   4.2006756956601415E-002           2      211023           0
</event>
<event>
      5   9999  3.79277E-02  3.13485E+01 -1.00000E+00  1.51725E-01
      21    -1     0     0   502   512  0.000000000E+00  0.000000000E+00  7.856999078E+02  7.856999078E+02  0.000000000E+00  0.00000E+00  9.000E+00
      21    -1     0     0   501   502  0.000000000E+00  0.000000000E+00 -6.428737954E+01  6.428737954E+01  0.000000000E+00  0.00000E+00  9.000E+00
      25     1     1     2     0     0  8.721269885E+01  9.502455937E+01  1.235287519E+02  2.179909958E+02  1.250000000E+02  0.00000E+00  9.000E+00
      25     1     1     2     0     0 -5.711234163E+01 -1.037821422E+02  4.778021235E+02  5.078901671E+02  1.250000000E+02  0.00000E+00  9.000E+00
      21     1     1     2   501   512 -3.010035722E+01  8.757582778E+00  1.200816529E+02  1.241061244E+02  2.336015456E-06  0.00000E+00  9.000E+00
#rwgt            1           1   4.9048041031660924E-002           2      211329           0
</event>
<event>
      5   9999  4.94684E-02  1.54100E+01 -1.00000E+00  1.76287E-01
      21    -1     0     0   511   501  0.000000000E+00  0.000000000E+00  6.213208545E+01  6.213208545E+01  0.000000000E+00  0.00000E+00  9.000E+00
      21    -1     0     0   501   502  0.000000000E+00  0.000000000E+00 -9.677903671E+02  9.677903671E+02  0.000000000E+00  0.00000E+00  9.000E+00
      25     1     1     2     0     0 -1.331835026E+02 -1.270911330E+02 -4.097743468E+02  4.662939167E+02  1.250000000E+02  0.00000E+00  9.000E+00
      25     1     1     2     0     0  1.377582508E+02  1.418064363E+02 -4.958144582E+02  5.482183671E+02  1.250000000E+02  0.00000E+00  9.000E+00
      21     1     1     2   511   502 -4.574748148E+00 -1.471530333E+01 -6.947656639E-02  1.541016871E+01  3.039523573E-07  0.00000E+00  9.000E+00
#rwgt            1           1  0.51398383296046468                2      211508           0
</event>
<event>
      5   9999  3.79277E-02  7.00035E+01 -1.00000E+00  1.31220E-01
      21    -1     0     0   502   512  0.000000000E+00  0.000000000E+00  2.885428385E+02  2.885428385E+02  0.000000000E+00  0.00000E+00  9.000E+00
      21    -1     0     0   501   502  0.000000000E+00  0.000000000E+00 -1.460532952E+03  1.460532952E+03  0.000000000E+00  0.00000E+00  9.000E+00
      25     1     1     2     0     0 -1.127792133E+01  9.312353417E+01 -1.211894957E+03  1.221930265E+03  1.250000000E+02  0.00000E+00  9.000E+00
      25     1     1     2     0     0 -5.725314674E+01 -7.884110450E+01 -2.125670735E+02  2.651482666E+02  1.250000000E+02  0.00000E+00  9.000E+00
      21     1     1     2   501   512  6.853106807E+01 -1.428242967E+01  2.524719170E+02  2.619972595E+02  5.394796609E-06  0.00000E+00  9.000E+00
#rwgt            1           1   4.2071327103291291E-002           2      211725           0
</event>
<event>
      5   9999  3.79277E-02  5.62816E+01 -1.00000E+00  1.36205E-01
      21    -1     0     0   502   501  0.000000000E+00  0.000000000E+00  1.006497814E+02  1.006497814E+02  0.000000000E+00  0.00000E+00  9.000E+00
      21    -1     0     0   501   511  0.000000000E+00  0.000000000E+00 -1.016555973E+03  1.016555973E+03  0.000000000E+00  0.00000E+00  9.000E+00
      25     1     1     2     0     0 -1.329051695E+02 -1.987802383E+02 -2.978298415E+02  4.018768241E+02  1.250000000E+02  0.00000E+00  9.000E+00
      25     1     1     2     0     0  1.891247661E+02  2.014209625E+02 -5.060048907E+02  5.899190882E+02  1.250000000E+02  0.00000E+00  9.000E+00
      21     1     1     2   502   511 -5.621959662E+01 -2.640724199E+00 -1.120714599E+02  1.254098425E+02  2.336015456E-06  0.00000E+00  9.000E+00
#rwgt            1           1   4.1610937875488550E-002           2      211815           0
</event>
<event>
      5   9999  3.79277E-02  1.39384E+02 -1.00000E+00  1.17671E-01
      21    -1     0     0   512   501  0.000000000E+00  0.000000000E+00  3.985013638E+02  3.985013638E+02  0.000000000E+00  0.00000E+00  9.000E+00
      21    -1     0     0   501   502  0.000000000E+00  0.000000000E+00 -6.012472705E+02  6.012472705E+02  0.000000000E+00  0.00000E+00  9.000E+00
      25     1     1     2     0     0 -1.178134547E+02 -1.194113337E+02 -1.083736757E+02  2.356033326E+02  1.250000000E+02  0.00000E+00  9.000E+00
      25     1     1     2     0     0 -3.209915834E+00  5.026450746E+01 -4.033043808E+02  4.252249379E+02  1.250000000E+02  0.00000E+00  9.000E+00
      21     1     1     2   512   502  1.210233705E+02  6.914682629E+01  3.089321498E+02  3.389203638E+02  5.394796609E-06  0.00000E+00  9.000E+00
#rwgt            1           1   4.6582955626484526E-002           2      211972           0
</event>
<event>
      5   9999  3.79277E-02  1.76151E+01 -1.00000E+00  1.71051E-01
      21    -1     0     0   502   501  0.000000000E+00  0.000000000E+00  3.632494884E+02  3.632494884E+02  0.000000000E+00  0.00000E+00  9.000E+00
      -4    -1     0     0     0   502  0.000000000E+00  0.000000000E+00 -2.834976098E+02  2.834976098E+02  0.000000000E+00  0.00000E+00  9.000E+00
      25     1     1     2     0     0  3.048860673E+00 -9.736829338E+01 -4.589002540E+01  1.649871951E+02  1.250000000E+02  0.00000E+00  9.000E+00
      25     1     1     2     0     0  1.266086143E+01  8.939975630E+01  2.836065219E+02  3.228161599E+02  1.250000000E+02  0.00000E+00  9.000E+00
      -4     1     1     2     0   501 -1.570972210E+01  7.968537088E+00 -1.579646180E+02  1.589437432E+02  1.907348633E-06  0.00000E+00  9.000E+00
#rwgt            1           1   4.8498016569359934E-003           2      212004           0
</event>
<event>
      5   9999  3.79277E-02  1.48019E+02 -1.00000E+00  1.16623E-01
       1    -1     0     0   502     0  0.000000000E+00  0.000000000E+00  4.499025434E+02  4.499025434E+02  0.000000000E+00  0.00000E+00  9.000E+00
      21    -1     0     0   501   502  0.000000000E+00  0.000000000E+00 -2.254577680E+02  2.254577680E+02  0.000000000E+00  0.00000E+00  9.000E+00
      25     1     1     2     0     0 -5.721370583E+01  1.903633878E+02  7.266301368E+01  2.457977647E+02  1.250000000E+02  0.00000E+00  9.000E+00
      25     1     1     2     0     0 -9.096330187E+00 -5.802788448E+01 -7.620410463E+01  1.577404329E+02  1.250000000E+02  0.00000E+00  9.000E+00
       1     1     1     2   501     0  6.631003601E+01 -1.323355034E+02  2.279858664E+02  2.718221139E+02  3.814697266E-06  0.00000E+00  9.000E+00
#rwgt            1           1   3.3131290807838956E-002           2      212151           0
</event>
<event>
      5   9999  3.79277E-02  2.68382E+01 -1.00000E+00  1.56477E-01
      21    -1     0     0   511   501  0.000000000E+00  0.000000000E+00  3.513481228E+02  3.513481228E+02  0.000000000E+00  0.00000E+00  9.000E+00
      21    -1     0     0   501   502  0.000000000E+00  0.000000000E+00 -2.485483237E+02  2.485483237E+02  0.000000000E+00  0.00000E+00  9.000E+00
      25     1     1     2     0     0  1.718181861E+02 -5.019304440E-02 -1.311613081E+02  2.496993799E+02  1.250000000E+02  0.00000E+00  9.000E+00
      25     1     1     2     0     0 -1.849838146E+02  2.343724486E+01  1.724193962E+02  2.830578815E+02  1.250000000E+02  0.00000E+00  9.000E+00
      21     1     1     2   511   502  1.316562856E+01 -2.338705182E+01  6.154171101E+01  6.713918500E+01  0.000000000E+00  0.00000E+00  9.000E+00
#rwgt            1           1   3.0890820093393726E-002           2      212186           0
</event>
<event>
      5   9999  3.79277E-02  2.66095E+01 -1.00000E+00  1.56748E-01
      21    -1     0     0   502   512  0.000000000E+00  0.000000000E+00  5.554191731E+02  5.554191731E+02  0.000000000E+00  0.00000E+00  9.000E+00
      21    -1     0     0   501   502  0.000000000E+00  0.000000000E+00 -9.351907158E+01  9.351907158E+01  0.000000000E+00  0.00000E+00  9.000E+00
      25     1     1     2     0     0  1.313362247E+02  7.322017497E+01  2.020620602E+02  2.811840574E+02  1.250000000E+02  0.00000E+00  9.000E+00
      25     1     1     2     0     0 -1.494579407E+02 -5.373502178E+01  1.421531064E+02  2.470984303E+02  1.250000000E+02  0.00000E+00  9.000E+00
      21     1     1     2   501   512  1.812171597E+01 -1.948515318E+01  1.176849350E+02  1.206557570E+02  2.336015456E-06  0.00000E+00  9.000E+00
#rwgt            1           1   6.4153999110018872E-002           2      212334           0
</event>
<event>
      5   9999  3.79277E-02  2.81905E+01 -1.00000E+00  1.54940E-01
      21    -1     0     0   511   501  0.000000000E+00  0.000000000E+00  6.150088733E+02  6.150088733E+02  0.000000000E+00  0.00000E+00  9.000E+00
      21    -1     0     0   501   502  0.000000000E+00  0.000000000E+00 -6.183663860E+01  6.183663860E+01  0.000000000E+00  0.00000E+00  9.000E+00
      25     1     1     2     0     0 -1.191690325E+02  1.014392907E+01  1.873352794E+02  2.549973814E+02  1.250000000E+02  0.00000E+00  9.000E+00
      25     1     1     2     0     0  1.072459640E+02  1.540105080E+01  2.311537702E+02  2.842462922E+02  1.250000000E+02  0.00000E+00  9.000E+00
      21     1     1     2   511   502  1.192306844E+01 -2.554497987E+01  1.346831852E+02  1.376018384E+02  2.697398305E-06  0.00000E+00  9.000E+00
#rwgt            1           1   3.3950804681778975E-002           2      212535           0
</event>
<event>
      5   9999  3.79277E-02  1.06771E+02 -1.00000E+00  1.22562E-01
      21    -1     0     0   502   501  0.000000000E+00  0.000000000E+00  1.855257338E+02  1.855257338E+02  0.000000000E+00  0.00000E+00  9.000E+00
      21    -1     0     0   501   512  0.000000000E+00  0.000000000E+00 -6.206955453E+02  6.206955453E+02  0.000000000E+00  0.00000E+00  9.000E+00
      25     1     1     2     0     0  1.128691453E+02 -5.432943181E+01  9.100665158E+01  1.989933209E+02  1.250000000E+02  0.00000E+00  9.000E+00
      25     1     1     2     0     0 -4.900144115E+01  1.398924280E+02 -3.748048473E+02  4.219889882E+02  1.250000000E+02  0.00000E+00  9.000E+00
      21     1     1     2   502   512 -6.386770420E+01 -8.556299617E+01 -1.513716158E+02  1.852389700E+02  0.000000000E+00  0.00000E+00  9.000E+00
#rwgt            1           1   4.2956651449106743E-002           2      212692           0
</event>
<event>
      5   9999  3.79277E-02  1.04317E+01 -1.00000E+00  1.93659E-01
      21    -1     0     0   502   501  0.000000000E+00  0.000000000E+00  3.257980098E+02  3.257980098E+02  0.000000000E+00  0.00000E+00  9.000E+00
      21    -1     0     0   501   511  0.000000000E+00  0.000000000E+00 -2.680012228E+02  2.680012228E+02  0.000000000E+00  0.00000E+00  9.000E+00
      25     1     1     2     0     0 -4.433677301E+01  2.516915412E+02  5.011716488E+01  2.888790604E+02  1.250000000E+02  0.00000E+00  9.000E+00
      25     1     1     2     0     0  3.560347587E+01 -2.573967410E+02  1.967858099E+01  2.890206503E+02  1.250000000E+02  0.00000E+00  9.000E+00
      21     1     1     2   502   511  8.733297143E+00  5.705199803E+00 -1.199895883E+01  1.589952190E+01  2.384185791E-07  0.00000E+00  9.000E+00
#rwgt            1           1   2.6040498022020742E-002           2      212966           0
</event>
<event>
      5   9999  3.79277E-02  8.29653E+00 -1.00000E+00  2.05625E-01
      21    -1     0     0   502   501  0.000000000E+00  0.000000000E+00  1.168057145E+02  1.168057145E+02  0.000000000E+00  0.00000E+00  9.000E+00
      21    -1     0     0   512   502  0.000000000E+00  0.000000000E+00 -4.309866930E+02  4.309866930E+02  0.000000000E+00  0.00000E+00  9.000E+00
      25     1     1     2     0     0  1.206155575E+02 -4.165799146E+00 -5.420460273E+01  1.820126522E+02  1.250000000E+02  0.00000E+00  9.000E+00
      25     1     1     2     0     0 -1.175903416E+02  1.189111101E+01 -8.731495847E+01  1.929191254E+02  1.250000000E+02  0.00000E+00  9.000E+00
      21     1     1     2   512   501 -3.025215880E+00 -7.725311860E+00 -1.726614173E+02  1.728606300E+02  1.907348633E-06  0.00000E+00  9.000E+00
#rwgt            1           1   3.1668872640572700E-002           2      213314           0
</event>
<event>
      5   9999  3.79277E-02  1.25094E+02 -1.00000E+00  1.19607E-01
      21    -1     0     0   502   501  0.000000000E+00  0.000000000E+00  6.971061053E+02  6.971061053E+02  0.000000000E+00  0.00000E+00  9.000E+00
      21    -1     0     0   501   511  0.000000000E+00  0.000000000E+00 -5.880020740E+02  5.880020740E+02  0.000000000E+00  0.00000E+00  9.000E+00
      25     1     1     2     0     0 -1.001583725E+01  8.536525865E+01  4.271735769E+02  4.533098379E+02  1.250000000E+02  0.00000E+00  9.000E+00
      25     1     1     2     0     0  1.022775393E+02 -8.891443959E-01  2.236221346E+02  2.758502215E+02  1.250000000E+02  0.00000E+00  9.000E+00
      21     1     1     2   502   511 -9.226170206E+01 -8.447611426E+01 -5.416916802E+02  5.559481198E+02  7.629394531E-06  0.00000E+00  9.000E+00
#rwgt            1           1   1.8826099258101262E-002           2      213550           0
</event>
<event>
      5   9999  3.79277E-02  4.08694E+01 -1.00000E+00  1.44263E-01
      21    -1     0     0   502   501  0.000000000E+00  0.000000000E+00  9.888736193E+02  9.888736193E+02  0.000000000E+00  0.00000E+00  9.000E+00
      21    -1     0     0   501   512  0.000000000E+00  0.000000000E+00 -1.784729575E+02  1.784729575E+02  0.000000000E+00  0.00000E+00  9.000E+00
      25     1     1     2     0     0 -1.347948900E+02  2.468125832E+02  2.764144432E+01  3.089905550E+02  1.250000000E+02  0.00000E+00  9.000E+00
      25     1     1     2     0     0  1.419274523E+02 -2.065704353E+02  7.633598327E+02  8.131162159E+02  1.250000000E+02  0.00000E+00  9.000E+00
      21     1     1     2   502   512 -7.132562269E+00 -4.024214789E+01  1.939938481E+01  4.523980594E+01  1.011524364E-06  0.00000E+00  9.000E+00
#rwgt            1           1   4.0354788948297762E-002           2      213593           0
</event>
<event>
      5   9999  3.79277E-02  1.04174E+02 -1.00000E+00  1.23034E-01
      21    -1     0     0   502   511  0.000000000E+00  0.000000000E+00  7.838969871E+02  7.838969871E+02  0.000000000E+00  0.00000E+00  9.000E+00
      21    -1     0     0   501   502  0.000000000E+00  0.000000000E+00 -1.730706661E+02  1.730706661E+02  0.000000000E+00  0.00000E+00  9.000E+00
      25     1     1     2     0     0 -1.736397055E+02  1.391974156E+02  3.615395915E+02  4.425636045E+02  1.250000000E+02  0.00000E+00  9.000E+00
      25     1     1     2     0     0  2.760996472E+02 -1.203765929E+02  1.179831418E+02  3.467946958E+02  1.250000000E+02  0.00000E+00  9.000E+00
      21     1     1     2   501   511 -1.024599418E+02 -1.882082262E+01  1.313035878E+02  1.676093529E+02  1.907348633E-06  0.00000E+00  9.000E+00
#rwgt            1           1   3.3958768225074841E-002           2      213747           0
</event>
<event>
      5   9999  3.79277E-02  8.91590E+01 -1.00000E+00  1.26112E-01
      21    -1     0     0   512   501  0.000000000E+00  0.000000000E+00  2.644694669E+02  2.644694669E+02  0.000000000E+00  0.00000E+00  9.000E+00
      21    -1     0     0   501   502  0.000000000E+00  0.000000000E+00 -2.339330989E+02  2.339330989E+02  0.000000000E+00  0.00000E+00  9.000E+00
      25     1     1     2     0     0  6.509842912E+01 -1.319939786E+02 -1.126388852E+02  2.235458215E+02  1.250000000E+02  0.00000E+00  9.000E+00
      25     1     1     2     0     0 -8.411618864E+00  6.317589491E+01  5.889955236E+01  1.521713058E+02  1.250000000E+02  0.00000E+00  9.000E+00
      21     1     1     2   512   502 -5.668681026E+01  6.881808367E+01  8.427570074E+01  1.226854386E+02  9.536743164E-07  0.00000E+00  9.000E+00
#rwgt            1           1   4.5062473576998802E-002           2      213846           0
</event>
<event>
      5   9999  3.79277E-02  6.09192E+01 -1.00000E+00  1.34352E-01
       2    -1     0     0   502     0  0.000000000E+00  0.000000000E+00  4.204243740E+02  4.204243740E+02  0.000000000E+00  0.00000E+00  9.000E+00
      21    -1     0     0   501   502  0.000000000E+00  0.000000000E+00 -1.184877302E+02  1.184877302E+02  0.000000000E+00  0.00000E+00  9.000E+00
      25     1     1     2     0     0 -1.057058690E+02 -2.672345498E+01  5.827650010E+01  1.758096250E+02  1.250000000E+02  0.00000E+00  9.000E+00
      25     1     1     2     0     0  1.088529417E+02 -3.411435547E+01  7.750390353E+01  1.861306187E+02  1.250000000E+02  0.00000E+00  9.000E+00
       2     1     1     2   501     0 -3.147072725E+00  6.083781044E+01  1.661562402E+02  1.769718605E+02  2.697398305E-06  0.00000E+00  9.000E+00
#rwgt            1           1   5.1829131867381882E-002           2      213949           0
</event>
<event>
      5   9999  3.79277E-02  2.27130E+01 -1.00000E+00  1.61936E-01
      21    -1     0     0   511   501  0.000000000E+00  0.000000000E+00  3.166527670E+02  3.166527670E+02  0.000000000E+00  0.00000E+00  9.000E+00
      21    -1     0     0   501   502  0.000000000E+00  0.000000000E+00 -1.675014781E+02  1.675014781E+02  0.000000000E+00  0.00000E+00  9.000E+00
      25     1     1     2     0     0 -1.406532419E+02  7.332831375E+01  6.217432824E+00  2.020495794E+02  1.250000000E+02  0.00000E+00  9.000E+00
      25     1     1     2     0     0  1.616064218E+02 -8.209450445E+01  1.336161174E+02  2.575546739E+02  1.250000000E+02  0.00000E+00  9.000E+00
      21     1     1     2   511   502 -2.095317986E+01  8.766190697E+00  9.317738741E+00  2.454999187E+01  5.196212463E-07  0.00000E+00  9.000E+00
#rwgt            1           1   4.3825036817203733E-002           2      214044           0
</event>
<event>
      5   9999  3.79277E-02  2.19980E+02 -1.00000E+00  1.10163E-01
      21    -1     0     0   502   501  0.000000000E+00  0.000000000E+00  2.401134544E+02  2.401134544E+02  0.000000000E+00  0.00000E+00  9.000E+00
       2    -1     0     0   501     0  0.000000000E+00  0.000000000E+00 -1.276333097E+03  1.276333097E+03  0.000000000E+00  0.00000E+00  9.000E+00
      25     1     1     2     0     0 -1.674132936E+02 -2.426024513E+01  4.255674977E+01  2.145969416E+02  1.250000000E+02  0.00000E+00  9.000E+00
      25     1     1     2     0     0  7.414641833E+01  2.234895093E+02 -7.884220731E+01  2.780042190E+02  1.250000000E+02  0.00000E+00  9.000E+00
       2     1     1     2   502     0  9.326687532E+01 -1.992292642E+02 -9.999341852E+02  1.023845391E+03  0.000000000E+00  0.00000E+00  9.000E+00
#rwgt            1           1   3.8430786497492965E-002           2      214303           0
</event>
<event>
      5   9999 -3.79277E-02  5.38942E+01 -1.00000E+00  1.37242E-01
      21    -1     0     0   502   511  0.000000000E+00  0.000000000E+00  4.912605900E+01  4.912605900E+01  0.000000000E+00  0.00000E+00  9.000E+00
      21    -1     0     0   501   502  0.000000000E+00  0.000000000E+00 -9.772865360E+02  9.772865360E+02  0.000000000E+00  0.00000E+00  9.000E+00
      25     1     1     2     0     0  1.001502790E+02  4.095817515E+01 -2.313013710E+02  2.843114045E+02  1.250000000E+02  0.00000E+00  9.000E+00
      25     1     1     2     0     0 -1.279711617E+02 -8.711645139E+01 -5.855025992E+02  6.183883796E+02  1.250000000E+02  0.00000E+00  9.000E+00
      21     1     1     2   501   511  2.782088268E+01  4.615827625E+01 -1.113565068E+02  1.237128109E+02  0.000000000E+00  0.00000E+00  9.000E+00
#rwgt            1           1 -0.16720369660014361                2      214370           0
</event>
<event>
      5   9999  3.79277E-02  1.02496E+02 -1.00000E+00  1.23348E-01
      21    -1     0     0   512   501  0.000000000E+00  0.000000000E+00  8.796684919E+01  8.796684919E+01  0.000000000E+00  0.00000E+00  9.000E+00
      21    -1     0     0   501   502  0.000000000E+00  0.000000000E+00 -7.329359885E+02  7.329359885E+02  0.000000000E+00  0.00000E+00  9.000E+00
      25     1     1     2     0     0 -5.812091621E+01  1.744006822E+02 -2.953564301E+02  3.696674988E+02  1.250000000E+02  0.00000E+00  9.000E+00
      25     1     1     2     0     0  1.035948377E+02 -8.254483483E+01 -2.381704280E+02  2.998261045E+02  1.250000000E+02  0.00000E+00  9.000E+00
      21     1     1     2   512   502 -4.547392145E+01 -9.185584738E+01 -1.114422812E+02  1.514092344E+02  3.015782986E-06  0.00000E+00  9.000E+00
#rwgt            1           1   2.7820028642670483E-002           2      214448           0
</event>
<event>
      5   9999  3.79277E-02  1.06308E+02 -1.00000E+00  1.22645E-01
      21    -1     0     0   502   501  0.000000000E+00  0.000000000E+00  3.671269195E+02  3.671269195E+02  0.000000000E+00  0.00000E+00  9.000E+00
      21    -1     0     0   501   511  0.000000000E+00  0.000000000E+00 -3.190517334E+02  3.190517334E+02  0.000000000E+00  0.00000E+00  9.000E+00
      25     1     1     2     0     0 -4.358344074E+01 -9.305015825E+01  2.976761542E+02  3.388125455E+02  1.250000000E+02  0.00000E+00  9.000E+00
      25     1     1     2     0     0  4.139369006E+01 -1.323497017E+01 -1.649267410E+02  2.114578727E+02  1.250000000E+02  0.00000E+00  9.000E+00
      21     1     1     2   502   511  2.189750677E+00  1.062851284E+02 -8.467422699E+01  1.359082347E+02  3.303624740E-06  0.00000E+00  9.000E+00
#rwgt            1           1   2.8786752550012628E-002           2      214500           0
</event>
<event>
      5   9999  3.79277E-02  1.24295E+02 -1.00000E+00  1.19724E-01
      21    -1     0     0   502   501  0.000000000E+00  0.000000000E+00  5.635105017E+02  5.635105017E+02  0.000000000E+00  0.00000E+00  9.000E+00
      21    -1     0     0   512   502  0.000000000E+00  0.000000000E+00 -5.933516362E+02  5.933516362E+02  0.000000000E+00  0.00000E+00  9.000E+00
      25     1     1     2     0     0 -6.150038287E+01  1.755571151E+02  4.470017857E+02  5.000381927E+02  1.250000000E+02  0.00000E+00  9.000E+00
      25     1     1     2     0     0  3.021471815E+01 -2.958499652E+02 -2.989776157E+02  4.398326339E+02  1.250000000E+02  0.00000E+00  9.000E+00
      21     1     1     2   512   501  3.128566473E+01  1.202928501E+02 -1.778653046E+02  2.169913113E+02  2.697398305E-06  0.00000E+00  9.000E+00
#rwgt            1           1  0.19941693213637421                2      214687           0
</event>
<event>
      5   9999  3.79277E-02  1.34422E+01 -1.00000E+00  1.81990E-01
      21    -1     0     0   502   501  0.000000000E+00  0.000000000E+00  1.211542491E+02  1.211542491E+02  0.000000000E+00  0.00000E+00  9.000E+00
      21    -1     0     0   511   502  0.000000000E+00  0.000000000E+00 -2.350751787E+02  2.350751787E+02  0.000000000E+00  0.00000E+00  9.000E+00
      25     1     1     2     0     0  6.101956292E+01  4.138049188E+01 -1.146878162E+02  1.849703418E+02  1.250000000E+02  0.00000E+00  9.000E+00
      25     1     1     2     0     0 -7.446143522E+01 -4.147908960E+01  1.456704708E+01  1.519941416E+02  1.250000000E+02  0.00000E+00  9.000E+00
      21     1     1     2   511   501  1.344187231E+01  9.859771827E-02 -1.380016049E+01  1.926494438E+01  1.685873940E-07  0.00000E+00  9.000E+00
#rwgt            1           1   4.3413254229428995E-002           2      214809           0
</event>
<event>
      5   9999  3.79277E-02  1.02003E+01 -1.00000E+00  1.94767E-01
      21    -1     0     0   512   501  0.000000000E+00  0.000000000E+00  3.983909317E+02  3.983909317E+02  0.000000000E+00  0.00000E+00  9.000E+00
      21    -1     0     0   501   502  0.000000000E+00  0.000000000E+00 -1.707283738E+02  1.707283738E+02  0.000000000E+00  0.00000E+00  9.000E+00
      25     1     1     2     0     0  1.983352525E+01  1.929850905E+02  1.295850611E+02  2.646769766E+02  1.250000000E+02  0.00000E+00  9.000E+00
      25     1     1     2     0     0 -2.905224585E+01 -1.973510119E+02  3.198809245E+01  2.375703958E+02  1.250000000E+02  0.00000E+00  9.000E+00
      21     1     1     2   512   502  9.218720604E+00  4.365921352E+00  6.608940432E+01  6.687193314E+01  9.536743164E-07  0.00000E+00  9.000E+00
#rwgt            1           1   3.6304482275360345E-002           2      215061           0
</event>
<event>
      5   9999  3.79277E-02  1.43108E+01 -1.00000E+00  1.79330E-01
      21    -1     0     0   502   511  0.000000000E+00  0.000000000E+00  2.021855950E+03  2.021855950E+03  0.000000000E+00  0.00000E+00  9.000E+00
      21    -1     0     0   501   502  0.000000000E+00  0.000000000E+00 -3.398345115E+01  3.398345115E+01  0.000000000E+00  0.00000E+00  9.000E+00
      25     1     1     2     0     0  1.971815870E+02 -5.204777968E+01  8.179296669E+02  8.521874733E+02  1.250000000E+02  0.00000E+00  9.000E+00
      25     1     1     2     0     0 -2.114862799E+02  5.163017030E+01  9.300561082E+02  9.633387180E+02  1.250000000E+02  0.00000E+00  9.000E+00
      21     1     1     2   501   511  1.430469296E+01  4.176093852E-01  2.398867236E+02  2.403132098E+02  0.000000000E+00  0.00000E+00  9.000E+00
#rwgt            1           1   3.0923319079058594E-002           2      215288           0
</event>
<event>
      5   9999  3.79277E-02  3.16255E+01 -1.00000E+00  1.51465E-01
      21    -1     0     0   502   501  0.000000000E+00  0.000000000E+00  4.711128057E+01  4.711128057E+01  0.000000000E+00  0.00000E+00  9.000E+00
      21    -1     0     0   501   512  0.000000000E+00  0.000000000E+00 -2.125620414E+03  2.125620414E+03  0.000000000E+00  0.00000E+00  9.000E+00
      25     1     1     2     0     0 -1.356391563E+02  1.723426430E+02 -1.280895991E+03  1.305534184E+03  1.250000000E+02  0.00000E+00  9.000E+00
      25     1     1     2     0     0  1.649309002E+02 -1.842660855E+02 -5.332228119E+02  6.009224237E+02  1.250000000E+02  0.00000E+00  9.000E+00
      21     1     1     2   502   512 -2.929174391E+01  1.192344249E+01 -2.643903313E+02  2.662750871E+02  3.814697266E-06  0.00000E+00  9.000E+00
#rwgt            1           1   3.4888939519034386E-002           2      215487           0
</event>
<event>
      5   9999  3.79277E-02  9.99171E+01 -1.00000E+00  1.23844E-01
      21    -1     0     0   502   501  0.000000000E+00  0.000000000E+00  4.851980166E+02  4.851980166E+02  0.000000000E+00  0.00000E+00  9.000E+00
      21    -1     0     0   511   502  0.000000000E+00  0.000000000E+00 -1.956236534E+02  1.956236534E+02  0.000000000E+00  0.00000E+00  9.000E+00
      25     1     1     2     0     0  3.358934412E+01 -1.664397167E+02  2.187391509E+02  3.038128362E+02  1.250000000E+02  0.00000E+00  9.000E+00
      25     1     1     2     0     0 -7.819749652E+01  7.703310247E+01  1.688579045E+02  2.370378435E+02  1.250000000E+02  0.00000E+00  9.000E+00
      21     1     1     2   511   501  4.460815239E+01  8.940661425E+01 -9.802269219E+01  1.399709903E+02  1.907348633E-06  0.00000E+00  9.000E+00
#rwgt            1           1   3.9322456738691954E-002           2      215624           0
</event>
<event>
      5   9999 -3.79277E-02  4.69711E+01 -1.00000E+00  1.40642E-01
      21    -1     0     0   512   501  0.000000000E+00  0.000000000E+00  1.885616810E+02  1.885616810E+02  0.000000000E+00  0.00000E+00  9.000E+00
      21    -1     0     0   501   502  0.000000000E+00  0.000000000E+00 -3.460128989E+02  3.460128989E+02  0.000000000E+00  0.00000E+00  9.000E+00
      25     1     1     2     0     0 -1.608066281E+02 -5.201728383E+01 -6.976638680E+00  2.103288923E+02  1.250000000E+02  0.00000E+00  9.000E+00
      25     1     1     2     0     0  1.654000829E+02  5.271338175E+00 -1.749092596E+02  2.712991403E+02  1.250000000E+02  0.00000E+00  9.000E+00
      21     1     1     2   512   502 -4.593454774E+00  4.674594566E+01  2.443468039E+01  5.294654727E+01  7.539457465E-07  0.00000E+00  9.000E+00
#rwgt            1           1 -0.16651824055708944                2      215851           0
</event>
<event>
      5   9999  3.79277E-02  1.22125E+02 -1.00000E+00  1.20046E-01
      21    -1     0     0   502   501  0.000000000E+00  0.000000000E+00  7.766521655E+02  7.766521655E+02  0.000000000E+00  0.00000E+00  9.000E+00
      21    -1     0     0   501   511  0.000000000E+00  0.000000000E+00 -9.867144931E+01  9.867144931E+01  0.000000000E+00  0.00000E+00  9.000E+00
      25     1     1     2     0     0  7.225904431E+01  1.231355819E+02  1.568064317E+02  2.461645751E+02  1.250000000E+02  0.00000E+00  9.000E+00
      25     1     1     2     0     0  4.982964811E+01 -1.261010858E+02  4.534420807E+02  4.895091401E+02  1.250000000E+02  0.00000E+00  9.000E+00
      21     1     1     2   502   511 -1.220886924E+02  2.965503893E+00  6.773220381E+01  1.396498996E+02  1.348699152E-06  0.00000E+00  9.000E+00
#rwgt            1           1   4.2438963362090763E-002           2      215977           0
</event>
<event>
      5   9999  3.79277E-02  3.22451E+01 -1.00000E+00  1.50894E-01
      21    -1     0     0   502   501  0.000000000E+00  0.000000000E+00  4.616006561E+02  4.616006561E+02  0.000000000E+00  0.00000E+00  9.000E+00
      21    -1     0     0   512   502  0.000000000E+00  0.000000000E+00 -4.578539636E+02  4.578539636E+02  0.000000000E+00  0.00000E+00  9.000E+00
      25     1     1     2     0     0 -1.148874900E+02  1.456572811E+02  3.534164062E+02  4.182622803E+02  1.250000000E+02  0.00000E+00  9.000E+00
      25     1     1     2     0     0  1.264800384E+02 -1.155680645E+02 -7.547831510E+01  2.251114251E+02  1.250000000E+02  0.00000E+00  9.000E+00
      21     1     1     2   512   501 -1.159254837E+01 -3.008921664E+01 -2.741913987E+02  2.760809143E+02  0.000000000E+00  0.00000E+00  9.000E+00
#rwgt            1           1   2.7237363084790960E-002           2      216036           0
</event>
<event>
      5   9999  3.79277E-02  2.61224E+01 -1.00000E+00  1.57335E-01
      21    -1     0     0   502   511  0.000000000E+00  0.000000000E+00  4.899917201E+02  4.899917201E+02  0.000000000E+00  0.00000E+00  9.000E+00
      21    -1     0     0   501   502  0.000000000E+00  0.000000000E+00 -1.182859214E+02  1.182859214E+02  0.000000000E+00  0.00000E+00  9.000E+00
      25     1     1     2     0     0 -7.957270364E+00  1.791126895E+02  2.391320141E+02  3.239657294E+02  1.250000000E+02  0.00000E+00  9.000E+00
      25     1     1     2     0     0  3.309164933E+01 -1.719963202E+02  8.765425658E+01  2.323490050E+02  1.250000000E+02  0.00000E+00  9.000E+00
      21     1     1     2   501   511 -2.513437896E+01 -7.116369270E+00  4.491952800E+01  5.196290709E+01  8.259061849E-07  0.00000E+00  9.000E+00
#rwgt            1           1   6.0310466447132033E-002           2      216233           0
</event>
<event>
      5   9999  3.79277E-02  2.77802E+01 -1.00000E+00  1.55395E-01
      21    -1     0     0   502   501  0.000000000E+00  0.000000000E+00  2.855979055E+02  2.855979055E+02  0.000000000E+00  0.00000E+00  9.000E+00
      21    -1     0     0   501   512  0.000000000E+00  0.000000000E+00 -3.796395051E+02  3.796395051E+02  0.000000000E+00  0.00000E+00  9.000E+00
      25     1     1     2     0     0  4.598653809E+01 -2.402743649E+02 -4.755130375E+01  2.788057721E+02  1.250000000E+02  0.00000E+00  9.000E+00
      25     1     1     2     0     0 -6.653483632E+01  2.589694891E+02  3.790658535E+01  2.975802243E+02  1.250000000E+02  0.00000E+00  9.000E+00
      21     1     1     2   502   512  2.054829823E+01 -1.869512420E+01 -8.439688121E+01  8.885141410E+01  9.536743164E-07  0.00000E+00  9.000E+00
#rwgt            1           1   2.4201060800200142E-002           2      216448           0
</event>
<event>
      5   9999  3.79277E-02  7.25155E+01 -1.00000E+00  1.30449E-01
      21    -1     0     0   502   501  0.000000000E+00  0.000000000E+00  1.941216658E+02  1.941216658E+02  0.000000000E+00  0.00000E+00  9.000E+00
      21    -1     0     0   501   511  0.000000000E+00  0.000000000E+00 -2.608028556E+02  2.608028556E+02  0.000000000E+00  0.00000E+00  9.000E+00
      25     1     1     2     0     0  9.838758136E+01  4.878905563E+01 -8.239632474E+01  1.856734834E+02  1.250000000E+02  0.00000E+00  9.000E+00
      25     1     1     2     0     0 -1.252036456E+02  1.858598261E+01  5.574064756E+01  1.864226687E+02  1.250000000E+02  0.00000E+00  9.000E+00
      21     1     1     2   502   511  2.681606427E+01 -6.737503824E+01 -4.002551263E+01  8.282836919E+01  8.259061849E-07  0.00000E+00  9.000E+00
#rwgt            1           1   2.0334397555789738E-002           2      216675           0
</event>
<event>
      5   9999  3.79277E-02  1.65876E+02 -1.00000E+00  1.14688E-01
      21    -1     0     0   512   501  0.000000000E+00  0.000000000E+00  2.711376923E+02  2.711376923E+02  0.000000000E+00  0.00000E+00  9.000E+00
      21    -1     0     0   501   502  0.000000000E+00  0.000000000E+00 -7.175225564E+02  7.175225564E+02  0.000000000E+00  0.00000E+00  9.000E+00
      25     1     1     2     0     0 -1.329853549E+02 -4.399459293E+01 -3.304063187E+02  3.800183736E+02  1.250000000E+02  0.00000E+00  9.000E+00
      25     1     1     2     0     0  2.844471118E+02  1.116262740E+02 -2.343470097E+02  4.048630700E+02  1.250000000E+02  0.00000E+00  9.000E+00
      21     1     1     2   512   502 -1.514617569E+02 -6.763168111E+01  1.183684643E+02  2.037788052E+02  1.907348633E-06  0.00000E+00  9.000E+00
#rwgt            2          11   1.7843148972537866E-003           2      216848           0
</event>
<event>
      5   9999  3.79277E-02  2.07492E+01 -1.00000E+00  1.65062E-01
      21    -1     0     0   502   511  0.000000000E+00  0.000000000E+00  4.821021154E+02  4.821021154E+02  0.000000000E+00  0.00000E+00  9.000E+00
      21    -1     0     0   501   502  0.000000000E+00  0.000000000E+00 -1.041404054E+02  1.041404054E+02  0.000000000E+00  0.00000E+00  9.000E+00
      25     1     1     2     0     0  5.043510357E+01  2.235702222E+01 -1.398554659E+01  1.373467569E+02  1.250000000E+02  0.00000E+00  9.000E+00
      25     1     1     2     0     0 -3.433034816E+01 -9.273951355E+00  1.223177916E+02  1.784691041E+02  1.250000000E+02  0.00000E+00  9.000E+00
      21     1     1     2   501   511 -1.610475541E+01 -1.308307087E+01  2.696294651E+02  2.704266598E+02  5.394796609E-06  0.00000E+00  9.000E+00
#rwgt            1           1   2.7642062240599539E-002           2      216868           0
</event>
<event>
      5   9999  3.79277E-02  7.53603E+01 -1.00000E+00  1.29618E-01
      21    -1     0     0   502   501  0.000000000E+00  0.000000000E+00  6.208947483E+02  6.208947483E+02  0.000000000E+00  0.00000E+00  9.000E+00
      21    -1     0     0   512   502  0.000000000E+00  0.000000000E+00 -6.945608209E+01  6.945608209E+01  0.000000000E+00  0.00000E+00  9.000E+00
      25     1     1     2     0     0  3.122723818E+01 -1.097872871E+02  2.166420351E+02  2.749311917E+02  1.250000000E+02  0.00000E+00  9.000E+00
      25     1     1     2     0     0  4.409092367E+01  1.072665409E+02  2.364408320E+02  2.915122422E+02  1.250000000E+02  0.00000E+00  9.000E+00
      21     1     1     2   512   501 -7.531816186E+01  2.520746258E+00  9.835579912E+01  1.239073964E+02  1.907348633E-06  0.00000E+00  9.000E+00
#rwgt            1           1   4.3243208875139695E-002           2      217054           0
</event>
<event>
      5   9999  3.79277E-02  5.73868E+01 -1.00000E+00  1.35745E-01
      21    -1     0     0   502   501  0.000000000E+00  0.000000000E+00  2.676420002E+02  2.676420002E+02  0.000000000E+00  0.00000E+00  9.000E+00
      21    -1     0     0   501   511  0.000000000E+00  0.000000000E+00 -7.720046135E+02  7.720046135E+02  0.000000000E+00  0.00000E+00  9.000E+00
      25     1     1     2     0     0  3.388897975E+02 -1.283850519E+02 -1.758203899E+02  4.217426062E+02  1.250000000E+02  0.00000E+00  9.000E+00
      25     1     1     2     0     0 -3.882172730E+02  9.905857134E+01 -1.763405889E+02  4.552430723E+02  1.250000000E+02  0.00000E+00  9.000E+00
      21     1     1     2   502   511  4.932747552E+01  2.932648053E+01 -1.522016345E+02  1.626609352E+02  0.000000000E+00  0.00000E+00  9.000E+00
#rwgt            1           1   5.9802645847077472E-002           2      217208           0
</event>
<event>
      5   9999  3.79277E-02  1.60004E+01 -1.00000E+00  1.74782E-01
      21    -1     0     0   512   501  0.000000000E+00  0.000000000E+00  1.022007221E+02  1.022007221E+02  0.000000000E+00  0.00000E+00  9.000E+00
      21    -1     0     0   501   502  0.000000000E+00  0.000000000E+00 -6.363041405E+02  6.363041405E+02  0.000000000E+00  0.00000E+00  9.000E+00
      25     1     1     2     0     0  1.229843103E+02  1.461880910E+02 -2.803883384E+02  3.615780951E+02  1.250000000E+02  0.00000E+00  9.000E+00
      25     1     1     2     0     0 -1.371190339E+02 -1.386898473E+02 -2.688634295E+02  3.548930077E+02  1.250000000E+02  0.00000E+00  9.000E+00
      21     1     1     2   512   502  1.413472367E+01 -7.498243754E+00  1.514834958E+01  2.203375972E+01  5.840038640E-07  0.00000E+00  9.000E+00
#rwgt            1           1   4.1433431197820302E-002           2      217359           0
</event>
<event>
      5   9999  3.79277E-02  1.55525E+02 -1.00000E+00  1.15774E-01
      21    -1     0     0   502   501  0.000000000E+00  0.000000000E+00  2.550221254E+02  2.550221254E+02  0.000000000E+00  0.00000E+00  9.000E+00
      21    -1     0     0   501   511  0.000000000E+00  0.000000000E+00 -1.080222691E+03  1.080222691E+03  0.000000000E+00  0.00000E+00  9.000E+00
      25     1     1     2     0     0 -4.814663671E+01  3.966194251E+01 -1.885921162E+02  2.346980072E+02  1.250000000E+02  0.00000E+00  9.000E+00
      25     1     1     2     0     0 -2.731480386E+00  1.073054511E+02  1.945605481E+02  2.549524028E+02  1.250000000E+02  0.00000E+00  9.000E+00
      21     1     1     2   502   511  5.087811709E+01 -1.469673936E+02 -8.311689972E+02  8.455944060E+02  1.078959322E-05  0.00000E+00  9.000E+00
#rwgt            1           1   4.4465751194547279E-002           2      217566           0
</event>
<event>
      5   9999  3.79277E-02  3.37705E+01 -1.00000E+00  1.49552E-01
      21    -1     0     0   512   501  0.000000000E+00  0.000000000E+00  1.288669567E+02  1.288669567E+02  0.000000000E+00  0.00000E+00  9.000E+00
      21    -1     0     0   501   502  0.000000000E+00  0.000000000E+00 -3.237950294E+02  3.237950294E+02  0.000000000E+00  0.00000E+00  9.000E+00
      25     1     1     2     0     0 -5.744335534E+01 -4.522627527E+01  3.462855786E+01  1.488935595E+02  1.250000000E+02  0.00000E+00  9.000E+00
      25     1     1     2     0     0  4.181060322E+01  7.516056685E+01 -2.224314028E+02  2.692544639E+02  1.250000000E+02  0.00000E+00  9.000E+00
      21     1     1     2   512   502  1.563275212E+01 -2.993429158E+01 -7.125227818E+00  3.451396272E+01  2.528810911E-07  0.00000E+00  9.000E+00
#rwgt            1           1   4.2886437241863397E-002           2      217624           0
</event>
<event>
      5   9999  3.79277E-02  7.10411E+01 -1.00000E+00  1.30897E-01
      21    -1     0     0   502   511  0.000000000E+00  0.000000000E+00  9.259890197E+02  9.259890197E+02  0.000000000E+00  0.00000E+00  9.000E+00
      21    -1     0     0   501   502  0.000000000E+00  0.000000000E+00 -2.450524916E+02  2.450524916E+02  0.000000000E+00  0.00000E+00  9.000E+00
      25     1     1     2     0     0  2.001674725E+02  4.695744576E+01 -8.680163501E+01  2.557959003E+02  1.250000000E+02  0.00000E+00  9.000E+00
      25     1     1     2     0     0 -2.697748878E+02 -3.275718421E+01  2.420855075E+02  3.848141320E+02  1.250000000E+02  0.00000E+00  9.000E+00
      21     1     1     2   501   511  6.960741538E+01 -1.420026155E+01  5.256526556E+02  5.304314791E+02  0.000000000E+00  0.00000E+00  9.000E+00
#rwgt            1           1   2.7039033548980525E-002           2      217927           0
</event>
<event>
      5   9999  3.79277E-02  2.07922E+02 -1.00000E+00  1.11037E-01
      -2    -1     0     0     0   501  0.000000000E+00  0.000000000E+00  1.546661578E+03  1.546661578E+03  0.000000000E+00  0.00000E+00  9.000E+00
      21    -1     0     0   501   502  0.000000000E+00  0.000000000E+00 -6.180385428E+02  6.180385428E+02  0.000000000E+00  0.00000E+00  9.000E+00
      25     1     1     2     0     0  4.096044437E+01 -5.262455726E+01 -2.510172937E+02  2.882391087E+02  1.250000000E+02  0.00000E+00  9.000E+00
      25     1     1     2     0     0 -5.031163953E+01  2.603364245E+02 -2.780398507E+02  4.040265753E+02  1.250000000E+02  0.00000E+00  9.000E+00
      -2     1     1     2     0   502  9.351195163E+00 -2.077118672E+02  1.457680180E+03  1.472434437E+03  2.157918644E-05  0.00000E+00  9.000E+00
#rwgt            1           1   3.1679022680379892E-002           2      218129           0
</event>
<event>
      5   9999  3.79277E-02  3.09105E+01 -1.00000E+00  1.52143E-01
      21    -1     0     0   502   501  0.000000000E+00  0.000000000E+00  7.646190075E+02  7.646190075E+02  0.000000000E+00  0.00000E+00  9.000E+00
      21    -1     0     0   501   511  0.000000000E+00  0.000000000E+00 -9.764750001E+01  9.764750001E+01  0.000000000E+00  0.00000E+00  9.000E+00
      25     1     1     2     0     0  4.415037328E+01 -5.639595541E+01  2.528539218E+01  1.462672564E+02  1.250000000E+02  0.00000E+00  9.000E+00
      25     1     1     2     0     0 -5.239633815E+01  2.660561849E+01  6.637837809E+02  6.780023178E+02  1.250000000E+02  0.00000E+00  9.000E+00
      21     1     1     2   502   511  8.245964869E+00  2.979033692E+01 -2.209766560E+01  3.799693323E+01  0.000000000E+00  0.00000E+00  9.000E+00
#rwgt            1           1   4.6489689173071613E-002           2      218193           0
</event>
<event>
      5   9999  3.79277E-02  9.68581E+01 -1.00000E+00  1.24455E-01
      21    -1     0     0   512   501  0.000000000E+00  0.000000000E+00  1.015770109E+02  1.015770109E+02  0.000000000E+00  0.00000E+00  9.000E+00
      21    -1     0     0   501   502  0.000000000E+00  0.000000000E+00 -4.401285270E+02  4.401285270E+02  0.000000000E+00  0.00000E+00  9.000E+00
      25     1     1     2     0     0 -1.708086487E+01 -4.109555509E+00 -8.389389362E+01  1.515646060E+02  1.250000000E+02  0.00000E+00  9.000E+00
      25     1     1     2     0     0  7.580759536E+00 -9.228150111E+01 -2.483902458E+02  2.930802920E+02  1.250000000E+02  0.00000E+00  9.000E+00
      21     1     1     2   512   502  9.500105337E+00  9.639105662E+01 -6.267376634E+00  9.706063985E+01  1.270012602E-06  0.00000E+00  9.000E+00
#rwgt            1           1   4.2544383657559914E-002           2      218474           0
</event>
<event>
      5   9999  3.79277E-02  6.11372E+01 -1.00000E+00  1.34269E-01
      21    -1     0     0   502   511  0.000000000E+00  0.000000000E+00  3.392509557E+01  3.392509557E+01  0.000000000E+00  0.00000E+00  9.000E+00
      21    -1     0     0   501   502  0.000000000E+00  0.000000000E+00 -1.822090894E+03  1.822090894E+03  0.000000000E+00  0.00000E+00  9.000E+00
      25     1     1     2     0     0  3.011237894E+01  1.368965746E+02 -4.619040933E+02  4.986259308E+02  1.250000000E+02  0.00000E+00  9.000E+00
      25     1     1     2     0     0 -8.849739866E+01 -1.187596843E+02 -1.215694737E+03  1.231046037E+03  1.250000000E+02  0.00000E+00  9.000E+00
      21     1     1     2   501   511  5.838501972E+01 -1.813689026E+01 -1.105669678E+02  1.263440212E+02  1.348699152E-06  0.00000E+00  9.000E+00
#rwgt            1           1  0.12958458925267555                2      218540           0
</event>
<event>
      5   9999  3.79277E-02  9.19360E+01 -1.00000E+00  1.25493E-01
      21    -1     0     0   502   501  0.000000000E+00  0.000000000E+00  2.175827067E+02  2.175827067E+02  0.000000000E+00  0.00000E+00  9.000E+00
      21    -1     0     0   501   512  0.000000000E+00  0.000000000E+00 -8.951611682E+02  8.951611682E+02  0.000000000E+00  0.00000E+00  9.000E+00
      25     1     1     2     0     0 -1.617189513E+02 -2.437527022E+02 -3.478418355E+02  4.713675228E+02  1.250000000E+02  0.00000E+00  9.000E+00
      25     1     1     2     0     0  7.223191644E+01  2.226743172E+02  3.276834302E+01  2.673949618E+02  1.250000000E+02  0.00000E+00  9.000E+00
      21     1     1     2   502   512  8.948703483E+01  2.107838501E+01 -3.625049690E+02  3.739813903E+02  0.000000000E+00  0.00000E+00  9.000E+00
#rwgt            2          11   1.2912343254212460E-003           2      218584           0
</event>
<event>
      5   9999  3.79277E-02  5.12532E+01 -1.00000E+00  1.38465E-01
      21    -1     0     0   502   501  0.000000000E+00  0.000000000E+00  4.714849172E+02  4.714849172E+02  0.000000000E+00  0.00000E+00  9.000E+00
       2    -1     0     0   501     0  0.000000000E+00  0.000000000E+00 -3.577085748E+02  3.577085748E+02  0.000000000E+00  0.00000E+00  9.000E+00
      25     1     1     2     0     0 -8.247107036E+01 -5.538142314E+01  3.561247121E+02  3.902798868E+02  1.250000000E+02  0.00000E+00  9.000E+00
      25     1     1     2     0     0  4.579021602E+01  1.958467607E+01  4.891799760E+01  1.431721827E+02  1.250000000E+02  0.00000E+00  9.000E+00
       2     1     1     2   502     0  3.668085433E+01  3.579674708E+01 -2.912663674E+02  2.957414225E+02  3.814697266E-06  0.00000E+00  9.000E+00
#rwgt            1           1   4.3845709118884343E-002           2      218664           0
</event>
<event>
      5   9999  3.79277E-02  1.93275E+01 -1.00000E+00  1.67604E-01
      21    -1     0     0   502   501  0.000000000E+00  0.000000000E+00  3.782297280E+02  3.782297280E+02  0.000000000E+00  0.00000E+00  9.000E+00
      21    -1     0     0   501   511  0.000000000E+00  0.000000000E+00 -3.824166809E+02  3.824166809E+02  0.000000000E+00  0.00000E+00  9.000E+00
      25     1     1     2     0     0  1.358599063E+01 -2.667281126E+02  2.024549648E+02  3.576890800E+02  1.250000000E+02  0.00000E+00  9.000E+00
      25     1     1     2     0     0  4.501201650E+00  2.735402419E+02 -1.366894348E+02  3.303839076E+02  1.250000000E+02  0.00000E+00  9.000E+00
      21     1     1     2   502   511 -1.808719228E+01 -6.812129305E+00 -6.995248280E+01  7.257342131E+01  9.536743164E-07  0.00000E+00  9.000E+00
#rwgt            1           1   4.1251047304857062E-002           2      218735           0
</event>
<event>
      5   9999  3.79277E-02  4.65235E+01 -1.00000E+00  1.40885E-01
      21    -1     0     0   502   501  0.000000000E+00  0.000000000E+00  5.431603453E+01  5.431603453E+01  0.000000000E+00  0.00000E+00  9.000E+00
      21    -1     0     0   512   502  0.000000000E+00  0.000000000E+00 -1.213584991E+03  1.213584991E+03  0.000000000E+00  0.00000E+00  9.000E+00
      25     1     1     2     0     0  1.551410568E+01 -1.324200878E+02 -1.590451169E+02  2.422728138E+02  1.250000000E+02  0.00000E+00  9.000E+00
      25     1     1     2     0     0 -5.429627066E+01  1.067222245E+02 -6.635887507E+02  6.857935172E+02  1.250000000E+02  0.00000E+00  9.000E+00
      21     1     1     2   512   501  3.878216498E+01  2.569786325E+01 -3.366350886E+02  3.398346942E+02  0.000000000E+00  0.00000E+00  9.000E+00
#rwgt            1           1   3.8888429046378493E-002           2      219103           0
</event>
<event>
      5   9999  3.79277E-02  7.75653E+01 -1.00000E+00  1.29003E-01
      21    -1     0     0   511   501  0.000000000E+00  0.000000000E+00  8.573920056E+01  8.573920056E+01  0.000000000E+00  0.00000E+00  9.000E+00
      21    -1     0     0   501   502  0.000000000E+00  0.000000000E+00 -9.739161389E+02  9.739161389E+02  0.000000000E+00  0.00000E+00  9.000E+00
      25     1     1     2     0     0  6.879523976E+01  1.910277452E+02 -5.928668904E+02  6.390152848E+02  1.250000000E+02  0.00000E+00  9.000E+00
      25     1     1     2     0     0 -9.013759720E+01 -1.164564348E+02 -2.821953731E+02  3.419738531E+02  1.250000000E+02  0.00000E+00  9.000E+00
      21     1     1     2   511   502  2.134235744E+01 -7.457131044E+01 -1.311467478E+01  7.866620148E+01  1.052827938E-06  0.00000E+00  9.000E+00
#rwgt            1           1   3.5587919413169279E-002           2      219286           0
</event>
<event>
      5   9999  3.79277E-02  1.37459E+02 -1.00000E+00  1.17916E-01
      21    -1     0     0   502   512  0.000000000E+00  0.000000000E+00  1.612803657E+02  1.612803657E+02  0.000000000E+00  0.00000E+00  9.000E+00
      21    -1     0     0   501   502  0.000000000E+00  0.000000000E+00 -1.725740616E+03  1.725740616E+03  0.000000000E+00  0.00000E+00  9.000E+00
      25     1     1     2     0     0  1.166029802E+02 -1.960817532E+02 -7.905423364E+02  8.322418486E+02  1.250000000E+02  0.00000E+00  9.000E+00
      25     1     1     2     0     0  2.005755342E+01  2.108728383E+02 -8.587315495E+02  8.932606190E+02  1.250000000E+02  0.00000E+00  9.000E+00
      21     1     1     2   501   512 -1.366605336E+02 -1.479108506E+01  8.481363550E+01  1.615185142E+02  5.223489356E-06  0.00000E+00  9.000E+00
#rwgt            1           1   4.3739054694642093E-002           2      219447           0
</event>
<event>
      5   9999  3.79277E-02  2.05111E+01 -1.00000E+00  1.65470E-01
      21    -1     0     0   502   501  0.000000000E+00  0.000000000E+00  2.761897528E+02  2.761897528E+02  0.000000000E+00  0.00000E+00  9.000E+00
      21    -1     0     0   501   511  0.000000000E+00  0.000000000E+00 -1.248911952E+02  1.248911952E+02  0.000000000E+00  0.00000E+00  9.000E+00
      25     1     1     2     0     0  1.115735190E+02  9.149578294E+00  1.167687401E+01  1.682073551E+02  1.250000000E+02  0.00000E+00  9.000E+00
      25     1     1     2     0     0 -9.892768367E+01  6.999370181E+00  1.401233064E+02  2.123563486E+02  1.250000000E+02  0.00000E+00  9.000E+00
      21     1     1     2   502   511 -1.264583529E+01 -1.614894848E+01 -5.016228766E-01  2.051724427E+01  4.402782530E-07  0.00000E+00  9.000E+00
#rwgt            1           1   4.0621473373571249E-002           2      219561           0
</event>
<event>
      5   9999  3.79277E-02  6.80416E+01 -1.00000E+00  1.31848E-01
      -1    -1     0     0     0   501  0.000000000E+00  0.000000000E+00  8.283251415E+01  8.283251415E+01  0.000000000E+00  0.00000E+00  9.000E+00
      21    -1     0     0   501   502  0.000000000E+00  0.000000000E+00 -1.972641131E+03  1.972641131E+03  0.000000000E+00  0.00000E+00  9.000E+00
      25     1     1     2     0     0  1.137393825E+02 -2.340496934E+01 -1.377066978E+03  1.387596088E+03  1.250000000E+02  0.00000E+00  9.000E+00
      25     1     1     2     0     0 -6.605951170E+01  7.194660871E+01 -5.619466419E+02  5.839085561E+02  1.250000000E+02  0.00000E+00  9.000E+00
      -1     1     1     2     0   502 -4.767987075E+01 -4.854163937E+01  4.920500338E+01  8.396900133E+01  4.422005890E-06  0.00000E+00  9.000E+00
#rwgt            1           1  0.11527872643945247                2      219737           0
</event>
<event>
      5   9999 -3.79277E-02  1.22098E+02 -1.00000E+00  1.20050E-01
      21    -1     0     0   502   501  0.000000000E+00  0.000000000E+00  7.686162430E+02  7.686162430E+02  0.000000000E+00  0.00000E+00  9.000E+00
      21    -1     0     0   501   511  0.000000000E+00  0.000000000E+00 -2.208990952E+02  2.208990952E+02  0.000000000E+00  0.00000E+00  9.000E+00
      25     1     1     2     0     0  1.302297807E+02 -8.981386895E+00  2.886036394E+02  3.405253614E+02  1.250000000E+02  0.00000E+00  9.000E+00
      25     1     1     2     0     0 -1.643679964E+02  1.262094298E+02  3.969148157E+02  4.648785103E+02  1.250000000E+02  0.00000E+00  9.000E+00
      21     1     1     2   502   511  3.413821575E+01 -1.172280429E+02 -1.378013073E+02  1.841114665E+02  0.000000000E+00  0.00000E+00  9.000E+00
#rwgt            1           1 -0.25668526056724400                2      219817           0
</event>
<event>
      5   9999  3.79277E-02  1.57313E+02 -1.00000E+00  1.15580E-01
      21    -1     0     0   502   501  0.000000000E+00  0.000000000E+00  9.193027955E+01  9.193027955E+01  0.000000000E+00  0.00000E+00  9.000E+00
      21    -1     0     0   512   502  0.000000000E+00  0.000000000E+00 -6.799362613E+02  6.799362613E+02  0.000000000E+00  0.00000E+00  9.000E+00
      25     1     1     2     0     0  3.734113313E+01 -1.339702560E+02 -1.291051509E+02  2.272345257E+02  1.250000000E+02  0.00000E+00  9.000E+00
      25     1     1     2     0     0  3.839097471E+01 -3.914091761E+00 -2.598422021E+02  2.909160653E+02  1.250000000E+02  0.00000E+00  9.000E+00
      21     1     1     2   512   501 -7.573210784E+01  1.378843477E+02 -1.990586288E+02  2.537159498E+02  3.814697266E-06  0.00000E+00  9.000E+00
#rwgt            1           1   3.0539002649054701E-002           2      219927           0
</event>
<event>
      5   9999  3.79277E-02  8.46450E+01 -1.00000E+00  1.27174E-01
      21    -1     0     0   511   501  0.000000000E+00  0.000000000E+00  7.131329555E+02  7.131329555E+02  0.000000000E+00  0.00000E+00  9.000E+00
      21    -1     0     0   501   502  0.000000000E+00  0.000000000E+00 -9.696116336E+02  9.696116336E+02  0.000000000E+00  0.00000E+00  9.000E+00
      25     1     1     2     0     0  1.408011852E+02  6.357661355E+01 -7.778234311E+02  8.028083517E+02  1.250000000E+02  0.00000E+00  9.000E+00
      25     1     1     2     0     0 -1.145619945E+02  1.689878113E+01 -1.354724033E+02  2.176873709E+02  1.250000000E+02  0.00000E+00  9.000E+00
      21     1     1     2   511   502 -2.623919066E+01 -8.047539467E+01  6.568171564E+02  6.622488665E+02  1.321449896E-05  0.00000E+00  9.000E+00
#rwgt            1           1   2.5989818020391284E-002           2      220128           0
</event>
<event>
      5   9999  3.79277E-02  2.47149E+01 -1.00000E+00  1.59125E-01
      21    -1     0     0   502   501  0.000000000E+00  0.000000000E+00  1.871544881E+02  1.871544881E+02  0.000000000E+00  0.00000E+00  9.000E+00
      21    -1     0     0   501   512  0.000000000E+00  0.000000000E+00 -4.101584641E+02  4.101584641E+02  0.000000000E+00  0.00000E+00  9.000E+00
      25     1     1     2     0     0 -1.751121808E+02 -1.447327000E+02 -1.209730536E+02  2.861316306E+02  1.250000000E+02  0.00000E+00  9.000E+00
      25     1     1     2     0     0  1.743783477E+02  1.200286495E+02 -4.623232296E+01  2.501541775E+02  1.250000000E+02  0.00000E+00  9.000E+00
      21     1     1     2   502   512  7.338331007E-01  2.470405055E+01 -5.579859936E+01  6.102714408E+01  9.536743164E-07  0.00000E+00  9.000E+00
#rwgt            1           1   3.3834646130293800E-002           2      220238           0
</event>
<event>
      5   9999  3.79277E-02  8.08330E+01 -1.00000E+00  1.28132E-01
       2    -1     0     0   502     0  0.000000000E+00  0.000000000E+00  1.650812952E+03  1.650812952E+03  0.000000000E+00  0.00000E+00  9.000E+00
      21    -1     0     0   501   502  0.000000000E+00  0.000000000E+00 -2.688041937E+02  2.688041937E+02  0.000000000E+00  0.00000E+00  9.000E+00
      25     1     1     2     0     0 -1.111819207E+02  3.310206716E+02 -7.400960663E+01  3.782043448E+02  1.250000000E+02  0.00000E+00  9.000E+00
      25     1     1     2     0     0  4.066131945E+01 -2.915135695E+02  5.853743541E+02  6.670244662E+02  1.250000000E+02  0.00000E+00  9.000E+00
       2     1     1     2   501     0  7.052060121E+01 -3.950710210E+01  8.706440108E+02  8.743883347E+02  0.000000000E+00  0.00000E+00  9.000E+00
#rwgt            1           1  0.16652705528326053                2      220394           0
</event>
<event>
      5   9999 -3.79277E-02  3.39085E+01 -1.00000E+00  1.49435E-01
      21    -1     0     0   502   501  0.000000000E+00  0.000000000E+00  6.837966491E+01  6.837966491E+01  0.000000000E+00  0.00000E+00  9.000E+00
      21    -1     0     0   511   502  0.000000000E+00  0.000000000E+00 -1.029472277E+03  1.029472277E+03  0.000000000E+00  0.00000E+00  9.000E+00
      25     1     1     2     0     0  1.629819392E+01 -1.471433101E+02 -6.985095769E+02  7.248844141E+02  1.250000000E+02  0.00000E+00  9.000E+00
      25     1     1     2     0     0  8.988781277E-02  1.768286291E+02 -1.729572572E+02  2.771418138E+02  1.250000000E+02  0.00000E+00  9.000E+00
      21     1     1     2   511   501 -1.638808174E+01 -2.968531890E+01 -8.962577817E+01  9.582571415E+01  0.000000000E+00  0.00000E+00  9.000E+00
#rwgt            1           1  -5.2972098854034810E-002           2      220506           0
</event>
<event>
      5   9999  3.79277E-02  3.78676E+01 -1.00000E+00  1.46331E-01
      21    -1     0     0   502   501  0.000000000E+00  0.000000000E+00  4.377873156E+02  4.377873156E+02  0.000000000E+00  0.00000E+00  9.000E+00
      21    -1     0     0   501   512  0.000000000E+00  0.000000000E+00 -1.011733202E+02  1.011733202E+02  0.000000000E+00  0.00000E+00  9.000E+00
      25     1     1     2     0     0 -5.361880423E+01 -1.102118851E+02  9.229813495E+01  1.979029598E+02  1.250000000E+02  0.00000E+00  9.000E+00
      25     1     1     2     0     0  9.147246835E+01  1.091842012E+02  2.353120730E+02  3.021343641E+02  1.250000000E+02  0.00000E+00  9.000E+00
      21     1     1     2   502   512 -3.785366412E+01  1.027683901E+00  9.003787434E+00  3.892331191E+01  5.591411304E-07  0.00000E+00  9.000E+00
#rwgt            1           1   2.5717837795421233E-002           2      220704           0
</event>
<event>
      5   9999  3.79277E-02  1.14500E+01 -1.00000E+00  1.89196E-01
      21    -1     0     0   502   501  0.000000000E+00  0.000000000E+00  2.665563519E+03  2.665563519E+03  0.000000000E+00  0.00000E+00  9.000E+00
      21    -1     0     0   501   511  0.000000000E+00  0.000000000E+00 -8.459531671E+01  8.459531671E+01  0.000000000E+00  0.00000E+00  9.000E+00
      25     1     1     2     0     0  2.375390683E+00  6.523874377E+01  5.156526894E+02  5.345880958E+02  1.250000000E+02  0.00000E+00  9.000E+00
      25     1     1     2     0     0 -8.086141266E+00 -7.516296590E+01  2.137498902E+03  2.142484869E+03  1.250000000E+02  0.00000E+00  9.000E+00
      21     1     1     2   502   511  5.710750582E+00  9.924222131E+00 -7.218338918E+01  7.308587094E+01  5.800974398E-06  0.00000E+00  9.000E+00
#rwgt            1           1   4.9944225545960723E-002           2      220794           0
</event>
<event>
      5   9999  3.79277E-02  7.61824E+01 -1.00000E+00  1.29386E-01
      21    -1     0     0   502   501  0.000000000E+00  0.000000000E+00  5.948896874E+01  5.948896874E+01  0.000000000E+00  0.00000E+00  9.000E+00
      21    -1     0     0   501   512  0.000000000E+00  0.000000000E+00 -1.093682223E+03  1.093682223E+03  0.000000000E+00  0.00000E+00  9.000E+00
      25     1     1     2     0     0  2.646476743E+01  9.117313772E+01 -5.678212911E+02  5.891170882E+02  1.250000000E+02  0.00000E+00  9.000E+00
      25     1     1     2     0     0 -3.299577981E+01 -1.527120619E+01 -4.791403775E+01  1.387180098E+02  1.250000000E+02  0.00000E+00  9.000E+00
      21     1     1     2   502   512  6.531012382E+00 -7.590193153E+01 -4.184579258E+02  4.253360941E+02  0.000000000E+00  0.00000E+00  9.000E+00
#rwgt            1           1   6.0207956235796743E-002           2      221059           0
</event>
<event>
      5   9999  3.79277E-02  5.34220E+00 -1.00000E+00  2.33600E-01
      21    -1     0     0   502   501  0.000000000E+00  0.000000000E+00  3.164016611E+02  3.164016611E+02  0.000000000E+00  0.00000E+00  9.000E+00
      21    -1     0     0   501   511  0.000000000E+00  0.000000000E+00 -1.241269860E+02  1.241269860E+02  0.000000000E+00  0.00000E+00  9.000E+00
      25     1     1     2     0     0  1.254980931E+02 -3.942626945E+01  2.343565729E+01  1.829711237E+02  1.250000000E+02  0.00000E+00  9.000E+00
      25     1     1     2     0     0 -1.253965170E+02  4.476750819E+01  1.723915729E+02  2.511419333E+02  1.250000000E+02  0.00000E+00  9.000E+00
      21     1     1     2   502   511 -1.015760680E-01 -5.341238743E+00 -3.552554988E+00  6.415590070E+00  5.960464478E-08  0.00000E+00  9.000E+00
#rwgt            1           1   4.9835966952511843E-002           2      221169           0
</event>
<event>
      5   9999 -3.79277E-02  5.41553E+01 -1.00000E+00  1.37126E-01
      21    -1     0     0   502   512  0.000000000E+00  0.000000000E+00  1.340883466E+02  1.340883466E+02  0.000000000E+00  0.00000E+00  9.000E+00
      21    -1     0     0   501   502  0.000000000E+00  0.000000000E+00 -7.718279705E+02  7.718279705E+02  0.000000000E+00  0.00000E+00  9.000E+00
      25     1     1     2     0     0 -1.339609237E+02 -1.303380893E+02 -2.599736960E+02  3.437220814E+02  1.250000000E+02  0.00000E+00  9.000E+00
      25     1     1     2     0     0  1.594384570E+02  1.781261148E+02 -4.160629318E+02  4.958658060E+02  1.250000000E+02  0.00000E+00  9.000E+00
      21     1     1     2   501   512 -2.547753328E+01 -4.778802549E+01  3.829700387E+01  6.632842971E+01  2.023048729E-06  0.00000E+00  9.000E+00
#rwgt            1           1 -0.16801706554797255                2      221531           0
</event>
<event>
      5   9999  3.79277E-02  4.16480E+01 -1.00000E+00  1.43761E-01
      21    -1     0     0   502   501  0.000000000E+00  0.000000000E+00  2.986220016E+02  2.986220016E+02  0.000000000E+00  0.00000E+00  9.000E+00
      21    -1     0     0   501   511  0.000000000E+00  0.000000000E+00 -2.347220267E+02  2.347220267E+02  0.000000000E+00  0.00000E+00  9.000E+00
      25     1     1     2     0     0 -1.480924874E+02 -8.587145398E+01  5.343982157E+00  2.120350197E+02  1.250000000E+02  0.00000E+00  9.000E+00
      25     1     1     2     0     0  1.700835567E+02  1.212402074E+02  9.944089035E+01  2.629469430E+02  1.250000000E+02  0.00000E+00  9.000E+00
      21     1     1     2   502   511 -2.199106924E+01 -3.536875343E+01 -4.088489764E+01  5.836206559E+01  4.768371582E-07  0.00000E+00  9.000E+00
#rwgt            1           1   3.7905955098564197E-002           2      221717           0
</event>
<event>
      5   9999  3.79277E-02  2.21991E+01 -1.00000E+00  1.62716E-01
      21    -1     0     0   512   501  0.000000000E+00  0.000000000E+00  1.033730610E+02  1.033730610E+02  0.000000000E+00  0.00000E+00  9.000E+00
      21    -1     0     0   501   502  0.000000000E+00  0.000000000E+00 -6.076011223E+02  6.076011223E+02  0.000000000E+00  0.00000E+00  9.000E+00
      25     1     1     2     0     0 -8.640680157E+01  1.226125194E+02 -2.430159615E+02  3.117398319E+02  1.250000000E+02  0.00000E+00  9.000E+00
      25     1     1     2     0     0  6.909401814E+01 -1.087176569E+02 -3.028511721E+02  3.520473615E+02  1.250000000E+02  0.00000E+00  9.000E+00
      21     1     1     2   512   502  1.731278344E+01 -1.389486244E+01  4.163907235E+01  4.718698993E+01  1.066240300E-06  0.00000E+00  9.000E+00
#rwgt            1           1   5.2342607758460190E-002           2      221823           0
</event>
<event>
      5   9999  3.79277E-02  8.27876E+01 -1.00000E+00  1.27634E-01
      21    -1     0     0   511   501  0.000000000E+00  0.000000000E+00  2.532579587E+02  2.532579587E+02  0.000000000E+00  0.00000E+00  9.000E+00
      21    -1     0     0   501   502  0.000000000E+00  0.000000000E+00 -4.158957178E+02  4.158957178E+02  0.000000000E+00  0.00000E+00  9.000E+00
      25     1     1     2     0     0  2.100752527E+02 -4.325359832E+01 -2.295353996E+02  3.381035126E+02  1.250000000E+02  0.00000E+00  9.000E+00
      25     1     1     2     0     0 -1.417841966E+02 -3.545142827E+00 -4.258732229E+01  1.937885613E+02  1.250000000E+02  0.00000E+00  9.000E+00
      21     1     1     2   511   502 -6.829105603E+01  4.679874115E+01  1.094849628E+02  1.372616027E+02  2.697398305E-06  0.00000E+00  9.000E+00
#rwgt            1           1   4.4046913075515649E-002           2      221927           0
</event>
<event>
      5   9999  3.79277E-02  2.05694E+01 -1.00000E+00  1.65369E-01
      21    -1     0     0   512   501  0.000000000E+00  0.000000000E+00  1.944704370E+02  1.944704370E+02  0.000000000E+00  0.00000E+00  9.000E+00
      21    -1     0     0   501   502  0.000000000E+00  0.000000000E+00 -4.112259996E+02  4.112259996E+02  0.000000000E+00  0.00000E+00  9.000E+00
      25     1     1     2     0     0  1.824728578E+02  1.715264603E+01 -1.182560490E+02  2.513962017E+02  1.250000000E+02  0.00000E+00  9.000E+00
      25     1     1     2     0     0 -1.640094862E+02 -8.085963982E+00 -1.777842105E+02  2.723907485E+02  1.250000000E+02  0.00000E+00  9.000E+00
      21     1     1     2   512   502 -1.846337164E+01 -9.066682047E+00  7.928469681E+01  8.190948641E+01  1.348699152E-06  0.00000E+00  9.000E+00
#rwgt            1           1   1.0365663532883410E-002           2      222125           0
</event>
<event>
      5   9999  3.79277E-02  4.05647E+01 -1.00000E+00  1.44464E-01
      21    -1     0     0   511   501  0.000000000E+00  0.000000000E+00  1.371610036E+02  1.371610036E+02  0.000000000E+00  0.00000E+00  9.000E+00
      21    -1     0     0   501   502  0.000000000E+00  0.000000000E+00 -4.838518450E+02  4.838518450E+02  0.000000000E+00  0.00000E+00  9.000E+00
      25     1     1     2     0     0 -1.638086079E+01 -1.401534294E+02 -3.325095585E+02  3.822288880E+02  1.250000000E+02  0.00000E+00  9.000E+00
      25     1     1     2     0     0  5.636573875E+01  1.333193405E+02 -3.298567308E+01  1.940726609E+02  1.250000000E+02  0.00000E+00  9.000E+00
      21     1     1     2   511   502 -3.998487796E+01  6.834088847E+00  1.880439020E+01  4.471129976E+01  1.039242493E-06  0.00000E+00  9.000E+00
#rwgt            1           1   2.6603939649625111E-002           2      222366           0
</event>
<event>
      5   9999  3.79277E-02  3.03974E+01 -1.00000E+00  1.52644E-01
      21    -1     0     0   502   501  0.000000000E+00  0.000000000E+00  1.599591856E+02  1.599591856E+02  0.000000000E+00  0.00000E+00  9.000E+00
      21    -1     0     0   512   502  0.000000000E+00  0.000000000E+00 -4.414600314E+02  4.414600314E+02  0.000000000E+00  0.00000E+00  9.000E+00
      25     1     1     2     0     0 -6.114478218E+01  8.515520224E+01 -2.072926265E+02  2.637903066E+02  1.250000000E+02  0.00000E+00  9.000E+00
      25     1     1     2     0     0  6.863082192E+01 -1.146163819E+02  6.574843631E+01  1.944092632E+02  1.250000000E+02  0.00000E+00  9.000E+00
      21     1     1     2   512   501 -7.486039742E+00  2.946117970E+01 -1.399566557E+02  1.432196473E+02  1.907348633E-06  0.00000E+00  9.000E+00
#rwgt            1           1   4.2892549971704629E-002           2      222474           0
</event>
<event>
      5   9999  3.79277E-02  5.24343E+01 -1.00000E+00  1.37908E-01
      21    -1     0     0   502   511  0.000000000E+00  0.000000000E+00  6.921540321E+02  6.921540321E+02  0.000000000E+00  0.00000E+00  9.000E+00
      21    -1     0     0   501   502  0.000000000E+00  0.000000000E+00 -8.666715872E+01  8.666715872E+01  0.000000000E+00  0.00000E+00  9.000E+00
      25     1     1     2     0     0  1.311118403E+02  1.088508808E+01  2.095092454E+02  2.771785051E+02  1.250000000E+02  0.00000E+00  9.000E+00
      25     1     1     2     0     0 -1.776744972E+02  1.322458218E+01  1.893995989E+02  2.885139938E+02  1.250000000E+02  0.00000E+00  9.000E+00
      21     1     1     2   501   511  4.656265697E+01 -2.410967026E+01  2.065780290E+02  2.131286919E+02  3.814697266E-06  0.00000E+00  9.000E+00
#rwgt            1           1   3.9283144318612503E-002           2      222679           0
</event>
<event>
      5   9999  4.27251E-02  1.62803E+01 -1.00000E+00  1.74097E-01
      21    -1     0     0   512   501  0.000000000E+00  0.000000000E+00  1.503277845E+03  1.503277845E+03  0.000000000E+00  0.00000E+00  9.000E+00
      21    -1     0     0   501   502  0.000000000E+00  0.000000000E+00 -6.837008342E+01  6.837008342E+01  0.000000000E+00  0.00000E+00  9.000E+00
      25     1     1     2     0     0 -1.947056886E+02  1.202239366E+02  3.047505672E+02  4.010760630E+02  1.250000000E+02  0.00000E+00  9.000E+00
      25     1     1     2     0     0  1.806780634E+02 -1.284868362E+02  7.891867778E+02  8.292130003E+02  1.250000000E+02  0.00000E+00  9.000E+00
      21     1     1     2   512   502  1.402762520E+01  8.262899602E+00  3.409704163E+02  3.413588648E+02  5.394796609E-06  0.00000E+00  9.000E+00
#rwgt            1           1  0.25215663523201032                2      222826           0
</event>
<event>
      5   9999  3.79277E-02  1.03631E+01 -1.00000E+00  1.93984E-01
      21    -1     0     0   511   501  0.000000000E+00  0.000000000E+00  7.168129729E+01  7.168129729E+01  0.000000000E+00  0.00000E+00  9.000E+00
      21    -1     0     0   501   502  0.000000000E+00  0.000000000E+00 -5.694176277E+02  5.694176277E+02  0.000000000E+00  0.00000E+00  9.000E+00
      25     1     1     2     0     0  5.911875738E+01 -4.840335376E+01 -4.446728901E+02  4.681846765E+02  1.250000000E+02  0.00000E+00  9.000E+00
      25     1     1     2     0     0 -6.890154533E+01  5.182244397E+01 -5.646522281E+01  1.620071296E+02  1.250000000E+02  0.00000E+00  9.000E+00
      21     1     1     2   511   502  9.782787950E+00 -3.419090212E+00  3.401782512E+00  1.090711888E+01  2.107342426E-07  0.00000E+00  9.000E+00
#rwgt            1           1   4.2457625906879279E-002           2      223059           0
</event>
<event>
      5   9999  3.79277E-02  5.89172E+01 -1.00000E+00  1.35127E-01
      21    -1     0     0   512   501  0.000000000E+00  0.000000000E+00  2.086049786E+02  2.086049786E+02  0.000000000E+00  0.00000E+00  9.000E+00
      21    -1     0     0   501   502  0.000000000E+00  0.000000000E+00 -1.284559931E+03  1.284559931E+03  0.000000000E+00  0.00000E+00  9.000E+00
      25     1     1     2     0     0 -9.321673379E+01 -7.927374789E+01  1.458427224E+02  2.277471981E+02  1.250000000E+02  0.00000E+00  9.000E+00
      25     1     1     2     0     0  7.279371366E+01  2.400953680E+01 -1.188959676E+03  1.197967234E+03  1.250000000E+02  0.00000E+00  9.000E+00
      21     1     1     2   512   502  2.042302013E+01  5.526421109E+01 -3.283799943E+01  6.745047802E+01  6.743495762E-07  0.00000E+00  9.000E+00
#rwgt            1           1   7.4315127512391430E-002           2      223273           0
</event>
<event>
      5   9999  3.79277E-02  1.16650E+01 -1.00000E+00  1.88330E-01
      21    -1     0     0   502   501  0.000000000E+00  0.000000000E+00  2.688421279E+02  2.688421279E+02  0.000000000E+00  0.00000E+00  9.000E+00
      -2    -1     0     0     0   502  0.000000000E+00  0.000000000E+00 -6.613067740E+02  6.613067740E+02  0.000000000E+00  0.00000E+00  9.000E+00
      25     1     1     2     0     0 -8.800042071E+01  8.255359785E+01  4.226870445E+01  1.788038421E+02  1.250000000E+02  0.00000E+00  9.000E+00
      25     1     1     2     0     0  7.947840031E+01 -9.051899562E+01  1.106340931E+02  2.058528776E+02  1.250000000E+02  0.00000E+00  9.000E+00
      -2     1     1     2     0   501  8.522020404E+00  7.965397774E+00 -5.453674435E+02  5.454921822E+02  0.000000000E+00  0.00000E+00  9.000E+00
#rwgt            1           1   4.7293137789734797E-002           2      223365           0
</event>
<event>
      5   9999  3.79277E-02  6.35538E+01 -1.00000E+00  1.33381E-01
      21    -1     0     0   502   501  0.000000000E+00  0.000000000E+00  6.130277333E+02  6.130277333E+02  0.000000000E+00  0.00000E+00  9.000E+00
      21    -1     0     0   511   502  0.000000000E+00  0.000000000E+00 -1.617596617E+02  1.617596617E+02  0.000000000E+00  0.00000E+00  9.000E+00
      25     1     1     2     0     0  8.631122732E+01 -4.307526060E+01  4.409053503E+02  4.683242829E+02  1.250000000E+02  0.00000E+00  9.000E+00
      25     1     1     2     0     0 -8.542177915E+01 -2.047230143E+01  1.100172691E+02  1.882678809E+02  1.250000000E+02  0.00000E+00  9.000E+00
      21     1     1     2   511   501 -8.894481729E-01  6.354756203E+01 -9.965454787E+01  1.181952312E+02  1.907348633E-06  0.00000E+00  9.000E+00
#rwgt            1           1   4.0240881331682243E-002           2      223596           0
</event>
<event>
      5   9999  3.79277E-02  1.85377E+02 -1.00000E+00  1.12862E-01
      21    -1     0     0   502   512  0.000000000E+00  0.000000000E+00  2.734746531E+03  2.734746531E+03  0.000000000E+00  0.00000E+00  9.000E+00
      21    -1     0     0   501   502  0.000000000E+00  0.000000000E+00 -1.212070280E+02  1.212070280E+02  0.000000000E+00  0.00000E+00  9.000E+00
      25     1     1     2     0     0 -9.275254014E+01 -1.308492769E+02  2.098175924E+02  2.921865655E+02  1.250000000E+02  0.00000E+00  9.000E+00
      25     1     1     2     0     0 -7.867504763E+01  6.029979879E+01  6.790299413E+00  1.596776034E+02  1.250000000E+02  0.00000E+00  9.000E+00
      21     1     1     2   501   512  1.714275878E+02  7.054947813E+01  2.396931612E+03  2.404089390E+03  0.000000000E+00  0.00000E+00  9.000E+00
#rwgt            2          11   8.1448129626901836E-004           2      223866           0
</event>
<event>
      5   9999  3.79277E-02  1.95670E+01 -1.00000E+00  1.67157E-01
      21    -1     0     0   502   501  0.000000000E+00  0.000000000E+00  2.675915867E+02  2.675915867E+02  0.000000000E+00  0.00000E+00  9.000E+00
      21    -1     0     0   501   511  0.000000000E+00  0.000000000E+00 -4.238185776E+02  4.238185776E+02  0.000000000E+00  0.00000E+00  9.000E+00
      25     1     1     2     0     0  2.329218017E+02  1.764479655E+02  1.971559662E+01  3.184339099E+02  1.250000000E+02  0.00000E+00  9.000E+00
      25     1     1     2     0     0 -2.148835914E+02 -1.840300931E+02 -1.651512398E+02  3.506308101E+02  1.250000000E+02  0.00000E+00  9.000E+00
      21     1     1     2   502   511 -1.803821033E+01  7.582127668E+00 -1.079134773E+01  2.234544423E+01  3.576278687E-07  0.00000E+00  9.000E+00
#rwgt            1           1   3.4965902977226272E-002           2      223901           0
</event>
<event>
      5   9999  3.79277E-02  1.45759E+01 -1.00000E+00  1.78565E-01
      21    -1     0     0   512   501  0.000000000E+00  0.000000000E+00  1.244136764E+03  1.244136764E+03  0.000000000E+00  0.00000E+00  9.000E+00
      21    -1     0     0   501   502  0.000000000E+00  0.000000000E+00 -3.407082174E+02  3.407082174E+02  0.000000000E+00  0.00000E+00  9.000E+00
      25     1     1     2     0     0  4.452334076E+02 -3.162239253E+02  3.435801031E+02  6.571930047E+02  1.250000000E+02  0.00000E+00  9.000E+00
      25     1     1     2     0     0 -4.308254709E+02  3.184306009E+02  2.280230935E+02  5.955066458E+02  1.250000000E+02  0.00000E+00  9.000E+00
      21     1     1     2   512   502 -1.440793665E+01 -2.206675588E+00  3.318253497E+02  3.321453308E+02  5.394796609E-06  0.00000E+00  9.000E+00
#rwgt            1           1   1.4772515489599132E-002           2      224190           0
</event>
<event>
      5   9999  3.79277E-02  8.12902E+01 -1.00000E+00  1.28014E-01
      21    -1     0     0   502   511  0.000000000E+00  0.000000000E+00  3.120537548E+01  3.120537548E+01  0.000000000E+00  0.00000E+00  9.000E+00
      21    -1     0     0   501   502  0.000000000E+00  0.000000000E+00 -2.111012641E+03  2.111012641E+03  0.000000000E+00  0.00000E+00  9.000E+00
      25     1     1     2     0     0  3.435533881E+01  1.349164211E+02 -1.260969656E+03  1.274775354E+03  1.250000000E+02  0.00000E+00  9.000E+00
      25     1     1     2     0     0 -1.034994048E+02 -9.217080348E+01 -6.925228195E+02  7.172310920E+02  1.250000000E+02  0.00000E+00  9.000E+00
      21     1     1     2   501   511  6.914406600E+01 -4.274561760E+01 -1.263147896E+02  1.502115700E+02  1.348699152E-06  0.00000E+00  9.000E+00
#rwgt            1           1  0.10606630725923148                2      224439           0
</event>
<event>
      5   9999  3.79277E-02  1.05034E+02 -1.00000E+00  1.22876E-01
       2    -1     0     0   502     0  0.000000000E+00  0.000000000E+00  2.944347679E+03  2.944347679E+03  0.000000000E+00  0.00000E+00  9.000E+00
      21    -1     0     0   501   502  0.000000000E+00  0.000000000E+00 -1.896976973E+02  1.896976973E+02  0.000000000E+00  0.00000E+00  9.000E+00
      25     1     1     2     0     0 -1.177365239E+02  1.226807426E+01  2.249660237E+02  2.832792024E+02  1.250000000E+02  0.00000E+00  9.000E+00
      25     1     1     2     0     0  1.421140123E+02  8.989764718E+01 -9.067079494E+01  2.283071889E+02  1.250000000E+02  0.00000E+00  9.000E+00
       2     1     1     2   501     0 -2.437748836E+01 -1.021657214E+02  2.620354753E+03  2.622458985E+03  3.051757812E-05  0.00000E+00  9.000E+00
#rwgt            1           1   4.3567843411546334E-002           2      224547           0
</event>
<event>
      5   9999  3.79277E-02  5.43190E+01 -1.00000E+00  1.37053E-01
      21    -1     0     0   511   501  0.000000000E+00  0.000000000E+00  7.341211048E+02  7.341211048E+02  0.000000000E+00  0.00000E+00  9.000E+00
      21    -1     0     0   501   502  0.000000000E+00  0.000000000E+00 -2.302322345E+02  2.302322345E+02  0.000000000E+00  0.00000E+00  9.000E+00
      25     1     1     2     0     0  1.237336820E+02 -2.834916876E+02  1.985712157E+01  3.342108111E+02  1.250000000E+02  0.00000E+00  9.000E+00
      25     1     1     2     0     0 -7.977826419E+01  3.154052369E+02  4.302709853E+02  5.537175775E+02  1.250000000E+02  0.00000E+00  9.000E+00
      21     1     1     2   511   502 -4.395541780E+01 -3.191354935E+01  5.376076346E+01  7.642495059E+01  6.743495762E-07  0.00000E+00  9.000E+00
#rwgt            1           1   2.8760657879149318E-002           2      224613           0
</event>
<event>
      5   9999  3.79277E-02  1.33139E+01 -1.00000E+00  1.82405E-01
      21    -1     0     0   502   512  0.000000000E+00  0.000000000E+00  2.462967887E+02  2.462967887E+02  0.000000000E+00  0.00000E+00  9.000E+00
      21    -1     0     0   501   502  0.000000000E+00  0.000000000E+00 -4.000654788E+02  4.000654788E+02  0.000000000E+00  0.00000E+00  9.000E+00
      25     1     1     2     0     0 -1.339570107E+02 -2.174846223E+02 -2.105520794E+02  3.538378439E+02  1.250000000E+02  0.00000E+00  9.000E+00
      25     1     1     2     0     0  1.261010086E+02  2.067355122E+02  4.837658025E+01  2.767784852E+02  1.250000000E+02  0.00000E+00  9.000E+00
      21     1     1     2   501   512  7.856002113E+00  1.074911014E+01  8.406809041E+00  1.574593841E+01  0.000000000E+00  0.00000E+00  9.000E+00
#rwgt            1           1  0.21700448712232800                2      224757           0
</event>
<event>
      5   9999  3.79277E-02  8.55225E+01 -1.00000E+00  1.26962E-01
      21    -1     0     0   502   511  0.000000000E+00  0.000000000E+00  5.045394600E+02  5.045394600E+02  0.000000000E+00  0.00000E+00  9.000E+00
      21    -1     0     0   501   502  0.000000000E+00  0.000000000E+00 -1.489331574E+02  1.489331574E+02  0.000000000E+00  0.00000E+00  9.000E+00
      25     1     1     2     0     0  9.588787985E+01  1.304706790E+02  1.315226584E+02  2.431877736E+02  1.250000000E+02  0.00000E+00  9.000E+00
      25     1     1     2     0     0 -1.636271104E+02 -7.826446897E+01  6.500298156E+01  2.296726931E+02  1.250000000E+02  0.00000E+00  9.000E+00
      21     1     1     2   501   511  6.773923055E+01 -5.220620998E+01  1.590806627E+02  1.806121506E+02  1.907348633E-06  0.00000E+00  9.000E+00
#rwgt            1           1  0.16299069597659180                2      225048           0
</event>
<event>
      5   9999  3.79277E-02  6.60233E+01 -1.00000E+00  1.32520E-01
      21    -1     0     0   502   501  0.000000000E+00  0.000000000E+00  5.043321572E+02  5.043321572E+02  0.000000000E+00  0.00000E+00  9.000E+00
      21    -1     0     0   501   512  0.000000000E+00  0.000000000E+00 -1.295548363E+02  1.295548363E+02  0.000000000E+00  0.00000E+00  9.000E+00
      25     1     1     2     0     0 -9.797283709E+01  8.959622396E+01  3.199632162E+02  3.682765535E+02  1.250000000E+02  0.00000E+00  9.000E+00
      25     1     1     2     0     0  1.423691177E+02 -4.072854751E+01  3.793261850E+01  1.974630695E+02  1.250000000E+02  0.00000E+00  9.000E+00
      21     1     1     2   502   512 -4.439628060E+01 -4.886767644E+01  1.688148615E+01  6.814737051E+01  9.536743164E-07  0.00000E+00  9.000E+00
#rwgt            1           1   4.1750013619037837E-002           2      225182           0
</event>
<event>
      5   9999  3.79277E-02  1.03864E+01 -1.00000E+00  1.93873E-01
      21    -1     0     0   502   511  0.000000000E+00  0.000000000E+00  2.792620532E+02  2.792620532E+02  0.000000000E+00  0.00000E+00  9.000E+00
      21    -1     0     0   501   502  0.000000000E+00  0.000000000E+00 -4.760219505E+02  4.760219505E+02  0.000000000E+00  0.00000E+00  9.000E+00
      25     1     1     2     0     0 -2.218800018E+02  3.838919634E+01  5.428097073E+01  2.632031333E+02  1.250000000E+02  0.00000E+00  9.000E+00
      25     1     1     2     0     0  2.114989984E+02 -3.805438582E+01 -3.295960652E+02  4.128420143E+02  1.250000000E+02  0.00000E+00  9.000E+00
      21     1     1     2   501   511  1.038100335E+01 -3.348105176E-01  7.855519715E+01  7.923885618E+01  9.536743164E-07  0.00000E+00  9.000E+00
#rwgt            1           1   3.7636424205620626E-002           2      225256           0
</event>
<event>
      5   9999  3.79277E-02  2.60411E+01 -1.00000E+00  1.57435E-01
      21    -1     0     0   502   512  0.000000000E+00  0.000000000E+00  2.193041907E+02  2.193041907E+02  0.000000000E+00  0.00000E+00  9.000E+00
      21    -1     0     0   501   502  0.000000000E+00  0.000000000E+00 -3.024198631E+02  3.024198631E+02  0.000000000E+00  0.00000E+00  9.000E+00
      25     1     1     2     0     0  2.912246275E+01 -1.205751621E+02 -2.227859037E+02  2.839807149E+02  1.250000000E+02  0.00000E+00  9.000E+00
      25     1     1     2     0     0 -1.392165003E+01  9.943102151E+01  9.592569639E+01  1.868343641E+02  1.250000000E+02  0.00000E+00  9.000E+00
      21     1     1     2   501   512 -1.520081272E+01  2.114414055E+01  4.374453486E+01  5.090897482E+01  4.768371582E-07  0.00000E+00  9.000E+00
#rwgt            1           1   3.8939024948296028E-002           2      225606           0
</event>
<event>
      5   9999  3.79277E-02  6.13587E+01 -1.00000E+00  1.34186E-01
      21    -1     0     0   502   511  0.000000000E+00  0.000000000E+00  6.568751245E+02  6.568751245E+02  0.000000000E+00  0.00000E+00  9.000E+00
      21    -1     0     0   501   502  0.000000000E+00  0.000000000E+00 -3.089082532E+02  3.089082532E+02  0.000000000E+00  0.00000E+00  9.000E+00
      25     1     1     2     0     0 -1.167164215E+02 -7.307327464E+01 -1.427909971E+02  2.344710971E+02  1.250000000E+02  0.00000E+00  9.000E+00
      25     1     1     2     0     0  1.607484981E+02  3.034078143E+01 -2.903089324E+01  2.079144907E+02  1.250000000E+02  0.00000E+00  9.000E+00
      21     1     1     2   501   511 -4.403207661E+01  4.273249321E+01  5.197887616E+02  5.233977899E+02  1.078959322E-05  0.00000E+00  9.000E+00
#rwgt            1           1   3.1228074394208945E-002           2      225787           0
</event>
<event>
      5   9999  3.79277E-02  8.79808E+01 -1.00000E+00  1.26382E-01
      21    -1     0     0   502   501  0.000000000E+00  0.000000000E+00  4.426925918E+02  4.426925918E+02  0.000000000E+00  0.00000E+00  9.000E+00
      21    -1     0     0   501   512  0.000000000E+00  0.000000000E+00 -1.417468750E+02  1.417468750E+02  0.000000000E+00  0.00000E+00  9.000E+00
      25     1     1     2     0     0 -1.723768841E+01  1.300145803E+02  3.092630252E+02  3.584264886E+02  1.250000000E+02  0.00000E+00  9.000E+00
      25     1     1     2     0     0  1.906480185E+01 -4.205274460E+01 -2.726318647E+01  1.360153717E+02  1.250000000E+02  0.00000E+00  9.000E+00
      21     1     1     2   502   512 -1.827113435E+00 -8.796183565E+01  1.894587814E+01  8.999760648E+01  8.259061849E-07  0.00000E+00  9.000E+00
#rwgt            1           1   5.4022448156676811E-002           2      225890           0
</event>
<event>
      5   9999  3.79277E-02  7.01173E+01 -1.00000E+00  1.31184E-01
      21    -1     0     0   502   501  0.000000000E+00  0.000000000E+00  3.087260259E+02  3.087260259E+02  0.000000000E+00  0.00000E+00  9.000E+00
      21    -1     0     0   501   511  0.000000000E+00  0.000000000E+00 -2.233561985E+02  2.233561985E+02  0.000000000E+00  0.00000E+00  9.000E+00
      25     1     1     2     0     0 -3.680989426E+01  1.172274868E+02 -6.646014743E+01  1.874545363E+02  1.250000000E+02  0.00000E+00  9.000E+00
      25     1     1     2     0     0  4.536341747E+01 -1.868211255E+02  1.508890611E+02  2.745040643E+02  1.250000000E+02  0.00000E+00  9.000E+00
      21     1     1     2   502   511 -8.553523206E+00  6.959363864E+01  9.409136754E-01  7.012362381E+01  1.993639493E-07  0.00000E+00  9.000E+00
#rwgt            1           1   4.2205852625922566E-002           2      225991           0
</event>
<event>
      5   9999  3.79277E-02  3.20356E+01 -1.00000E+00  1.51086E-01
      21    -1     0     0   502   501  0.000000000E+00  0.000000000E+00  1.595352343E+03  1.595352343E+03  0.000000000E+00  0.00000E+00  9.000E+00
      21    -1     0     0   512   502  0.000000000E+00  0.000000000E+00 -2.983760340E+01  2.983760340E+01  0.000000000E+00  0.00000E+00  9.000E+00
      25     1     1     2     0     0  2.203439084E+01 -6.796314772E+01  1.229740182E+03  1.238139902E+03  1.250000000E+02  0.00000E+00  9.000E+00
      25     1     1     2     0     0 -4.551820179E+01  8.975276287E+01  2.810942074E+02  3.236764103E+02  1.250000000E+02  0.00000E+00  9.000E+00
      21     1     1     2   512   501  2.348381095E+01 -2.178961515E+01  5.468035076E+01  6.337363383E+01  9.536743164E-07  0.00000E+00  9.000E+00
#rwgt            1           1   3.8499121710757596E-002           2      226032           0
</event>
<event>
      5   9999  3.79277E-02  3.60498E+01 -1.00000E+00  1.47698E-01
      21    -1     0     0   502   511  0.000000000E+00  0.000000000E+00  2.807750978E+02  2.807750978E+02  0.000000000E+00  0.00000E+00  9.000E+00
      21    -1     0     0   501   502  0.000000000E+00  0.000000000E+00 -6.974216514E+02  6.974216514E+02  0.000000000E+00  0.00000E+00  9.000E+00
      25     1     1     2     0     0  1.634955016E+02 -5.503863317E+01 -4.761136231E+02  5.216025425E+02  1.250000000E+02  0.00000E+00  9.000E+00
      25     1     1     2     0     0 -1.451185584E+02  2.402453491E+01 -1.497409504E+02  2.443029400E+02  1.250000000E+02  0.00000E+00  9.000E+00
      21     1     1     2   501   511 -1.837694316E+01  3.101409826E+01  2.092080199E+02  2.122912667E+02  2.697398305E-06  0.00000E+00  9.000E+00
#rwgt            1           1   4.6170454541244896E-002           2      226206           0
</event>
<event>
      5   9999  3.79277E-02  4.83168E+01 -1.00000E+00  1.39929E-01
      21    -1     0     0   502   501  0.000000000E+00  0.000000000E+00  2.086103482E+02  2.086103482E+02  0.000000000E+00  0.00000E+00  9.000E+00
      21    -1     0     0   512   502  0.000000000E+00  0.000000000E+00 -3.580599381E+02  3.580599381E+02  0.000000000E+00  0.00000E+00  9.000E+00
      25     1     1     2     0     0  1.003645806E+02  1.746836793E+02 -1.188450331E+02  2.652104424E+02  1.250000000E+02  0.00000E+00  9.000E+00
      25     1     1     2     0     0 -1.316674983E+02 -1.378782336E+02  2.319336792E+01  2.291498848E+02  1.250000000E+02  0.00000E+00  9.000E+00
      21     1     1     2   512   501  3.130291763E+01 -3.680544574E+01 -5.379792465E+01  7.230995910E+01  1.348699152E-06  0.00000E+00  9.000E+00
#rwgt            1           1   3.8785553688919339E-002           2      226316           0
</event>
<event>
      5   9999  3.79277E-02  2.22849E+01 -1.00000E+00  1.62584E-01
      21    -1     0     0   511   501  0.000000000E+00  0.000000000E+00  2.873370785E+02  2.873370785E+02  0.000000000E+00  0.00000E+00  9.000E+00
      21    -1     0     0   501   502  0.000000000E+00  0.000000000E+00 -4.082977422E+02  4.082977422E+02  0.000000000E+00  0.00000E+00  9.000E+00
      25     1     1     2     0     0  1.837083086E+02  1.559084517E+02  1.210894672E+02  2.972269285E+02  1.250000000E+02  0.00000E+00  9.000E+00
      25     1     1     2     0     0 -1.623758378E+02 -1.494632433E+02 -2.647224603E+02  3.666171774E+02  1.250000000E+02  0.00000E+00  9.000E+00
      21     1     1     2   511   502 -2.133247077E+01 -6.445208427E+00  2.267232945E+01  3.179071474E+01  4.768371582E-07  0.00000E+00  9.000E+00
#rwgt            1           1   3.5003970354781026E-002           2      226434           0
</event>
<event>
      5   9999  3.79277E-02  4.51770E+01 -1.00000E+00  1.41636E-01
      21    -1     0     0   512   501  0.000000000E+00  0.000000000E+00  2.814963626E+02  2.814963626E+02  0.000000000E+00  0.00000E+00  9.000E+00
      21    -1     0     0   501   502  0.000000000E+00  0.000000000E+00 -1.758787236E+02  1.758787236E+02  0.000000000E+00  0.00000E+00  9.000E+00
      25     1     1     2     0     0 -3.982876124E+01  1.348676096E+02  6.747540916E+01  1.998837992E+02  1.250000000E+02  0.00000E+00  9.000E+00
      25     1     1     2     0     0  5.409188303E+01 -9.200125052E+01 -3.823656895E+01  1.687518803E+02  1.250000000E+02  0.00000E+00  9.000E+00
      21     1     1     2   512   502 -1.426312180E+01 -4.286635913E+01  7.637879883E+01  8.873940669E+01  1.651812370E-06  0.00000E+00  9.000E+00
#rwgt            1           1   3.6129711092274766E-002           2      226707           0
</event>
<event>
      5   9999  3.79277E-02  5.06511E+01 -1.00000E+00  1.38756E-01
      21    -1     0     0   511   501  0.000000000E+00  0.000000000E+00  1.420183071E+03  1.420183071E+03  0.000000000E+00  0.00000E+00  9.000E+00
      21    -1     0     0   501   502  0.000000000E+00  0.000000000E+00 -4.237649900E+01  4.237649900E+01  0.000000000E+00  0.00000E+00  9.000E+00
      25     1     1     2     0     0 -1.382767779E+02 -1.119855729E+02  7.037028739E+02  7.365351116E+02  1.250000000E+02  0.00000E+00  9.000E+00
      25     1     1     2     0     0  8.766482010E+01  1.099949664E+02  3.444136188E+02  3.924662458E+02  1.250000000E+02  0.00000E+00  9.000E+00
      21     1     1     2   511   502  5.061195785E+01  1.990606547E+00  3.296900797E+02  3.335582130E+02  0.000000000E+00  0.00000E+00  9.000E+00
#rwgt            1           1   4.6600698485133082E-002           2      226797           0
</event>
<event>
      5   9999  3.79277E-02  1.45986E+01 -1.00000E+00  1.78501E-01
      21    -1     0     0   502   501  0.000000000E+00  0.000000000E+00  9.652850726E+02  9.652850726E+02  0.000000000E+00  0.00000E+00  9.000E+00
      21    -1     0     0   512   502  0.000000000E+00  0.000000000E+00 -5.693885749E+01  5.693885749E+01  0.000000000E+00  0.00000E+00  9.000E+00
      25     1     1     2     0     0  1.164814630E+02  1.023457306E+02  6.805277255E+02  7.090737374E+02  1.250000000E+02  0.00000E+00  9.000E+00
      25     1     1     2     0     0 -1.056889239E+02 -1.121762419E+02  2.000474755E+02  2.817758867E+02  1.250000000E+02  0.00000E+00  9.000E+00
      21     1     1     2   512   501 -1.079253910E+01  9.830511338E+00  2.777101408E+01  3.137430599E+01  0.000000000E+00  0.00000E+00  9.000E+00
#rwgt            1           1   3.4880224252191692E-002           2      226932           0
</event>
<event>
      5   9999  3.79277E-02  6.06921E+01 -1.00000E+00  1.34438E-01
      21    -1     0     0   511   501  0.000000000E+00  0.000000000E+00  7.968701803E+02  7.968701803E+02  0.000000000E+00  0.00000E+00  9.000E+00
      21    -1     0     0   501   502  0.000000000E+00  0.000000000E+00 -7.321904179E+01  7.321904179E+01  0.000000000E+00  0.00000E+00  9.000E+00
      25     1     1     2     0     0 -1.093084125E+02 -7.539238325E+01  3.192073753E+02  3.676284659E+02  1.250000000E+02  0.00000E+00  9.000E+00
      25     1     1     2     0     0  1.583047877E+02  1.112097841E+02  2.696426066E+02  3.546267857E+02  1.250000000E+02  0.00000E+00  9.000E+00
      21     1     1     2   511   502 -4.899637523E+01 -3.581740082E+01  1.348011567E+02  1.478339705E+02  1.907348633E-06  0.00000E+00  9.000E+00
#rwgt            1           1   4.0950135043214458E-002           2      227151           0
</event>
<event>
      5   9999  3.79277E-02  9.15698E+01 -1.00000E+00  1.25573E-01
      21    -1     0     0   502   501  0.000000000E+00  0.000000000E+00  7.033612317E+01  7.033612317E+01  0.000000000E+00  0.00000E+00  9.000E+00
      21    -1     0     0   512   502  0.000000000E+00  0.000000000E+00 -1.577083415E+03  1.577083415E+03  0.000000000E+00  0.00000E+00  9.000E+00
      25     1     1     2     0     0 -1.771358551E+02 -4.521511038E+01 -4.631725278E+02  5.133958588E+02  1.250000000E+02  0.00000E+00  9.000E+00
      25     1     1     2     0     0  2.413328275E+02  1.105127402E+02 -4.763422821E+02  5.594475570E+02  1.250000000E+02  0.00000E+00  9.000E+00
      21     1     1     2   512   501 -6.419697243E+01 -6.529762980E+01 -5.672324819E+02  5.745761223E+02  0.000000000E+00  0.00000E+00  9.000E+00
#rwgt            1           1   2.0501380098179933E-002           2      227277           0
</event>
<event>
      5   9999  3.79277E-02  5.09843E+01 -1.00000E+00  1.38594E-01
      21    -1     0     0   502   501  0.000000000E+00  0.000000000E+00  8.661280515E+02  8.661280515E+02  0.000000000E+00  0.00000E+00  9.000E+00
      21    -1     0     0   511   502  0.000000000E+00  0.000000000E+00 -8.555962551E+01  8.555962551E+01  0.000000000E+00  0.00000E+00  9.000E+00
      25     1     1     2     0     0  1.934939450E+00  1.512860784E+02  6.238329321E+02  6.539753426E+02  1.250000000E+02  0.00000E+00  9.000E+00
      25     1     1     2     0     0 -3.726713171E+01 -1.145296767E+02  1.721267505E+02  2.444555260E+02  1.250000000E+02  0.00000E+00  9.000E+00
      21     1     1     2   511   501  3.533219226E+01 -3.675640172E+01 -1.539125653E+01  5.325680854E+01  5.591411304E-07  0.00000E+00  9.000E+00
#rwgt            1           1   3.5941239657857171E-002           2      227357           0
</event>
<event>
      5   9999  3.79277E-02  4.87274E+01 -1.00000E+00  1.39717E-01
      21    -1     0     0   512   501  0.000000000E+00  0.000000000E+00  9.826464594E+01  9.826464594E+01  0.000000000E+00  0.00000E+00  9.000E+00
      21    -1     0     0   501   502  0.000000000E+00  0.000000000E+00 -7.086675984E+02  7.086675984E+02  0.000000000E+00  0.00000E+00  9.000E+00
      25     1     1     2     0     0 -9.058695215E+01 -8.877369797E+01 -2.556694945E+02  3.115744787E+02  1.250000000E+02  0.00000E+00  9.000E+00
      25     1     1     2     0     0  1.110060878E+02  1.330163930E+02 -3.833420165E+02  4.388528386E+02  1.250000000E+02  0.00000E+00  9.000E+00
      21     1     1     2   512   502 -2.041913562E+01 -4.424269499E+01  2.860855856E+01  5.650492706E+01  1.261592536E-06  0.00000E+00  9.000E+00
#rwgt            1           1   2.9403491778435192E-002           2      227616           0
</event>
<event>
      5   9999  3.79277E-02  1.23248E+01 -1.00000E+00  1.85817E-01
      21    -1     0     0   511   501  0.000000000E+00  0.000000000E+00  1.920014220E+02  1.920014220E+02  0.000000000E+00  0.00000E+00  9.000E+00
      21    -1     0     0   501   502  0.000000000E+00  0.000000000E+00 -1.252695778E+03  1.252695778E+03  0.000000000E+00  0.00000E+00  9.000E+00
      25     1     1     2     0     0  1.633739073E+01 -8.241361777E+01 -2.736979570E+02  3.124011626E+02  1.250000000E+02  0.00000E+00  9.000E+00
      25     1     1     2     0     0 -1.940081085E+01  9.435158160E+01 -9.529284224E+02  9.659069265E+02  1.250000000E+02  0.00000E+00  9.000E+00
      21     1     1     2   511   502  3.063420125E+00 -1.193796383E+01  1.659320239E+02  1.663891104E+02  4.672030912E-06  0.00000E+00  9.000E+00
#rwgt            1           1   5.2068494426834817E-002           2      227766           0
</event>
<event>
      5   9999  3.79277E-02  1.66380E+01 -1.00000E+00  1.73246E-01
      21    -1     0     0   512   501  0.000000000E+00  0.000000000E+00  3.347052550E+02  3.347052550E+02  0.000000000E+00  0.00000E+00  9.000E+00
      21    -1     0     0   501   502  0.000000000E+00  0.000000000E+00 -2.977231732E+02  2.977231732E+02  0.000000000E+00  0.00000E+00  9.000E+00
      25     1     1     2     0     0  5.963407653E+01 -2.679012982E+02  2.624241750E+01  3.027226340E+02  1.250000000E+02  0.00000E+00  9.000E+00
      25     1     1     2     0     0 -7.592527447E+01  2.645219376E+02 -1.084226859E+01  3.024550505E+02  1.250000000E+02  0.00000E+00  9.000E+00
      21     1     1     2   512   502  1.629119794E+01  3.379360596E+00  2.158193291E+01  2.725074378E+01  0.000000000E+00  0.00000E+00  9.000E+00
#rwgt            1           1   3.5828044872842017E-002           2      228018           0
</event>
<event>
      5   9999  3.79277E-02  1.60253E+02 -1.00000E+00  1.15267E-01
      21    -1     0     0   502   511  0.000000000E+00  0.000000000E+00  3.376840825E+02  3.376840825E+02  0.000000000E+00  0.00000E+00  9.000E+00
      21    -1     0     0   501   502  0.000000000E+00  0.000000000E+00 -3.195206835E+02  3.195206835E+02  0.000000000E+00  0.00000E+00  9.000E+00
      25     1     1     2     0     0 -1.718137865E+02  1.579954008E+02 -4.930887233E+01  2.693304453E+02  1.250000000E+02  0.00000E+00  9.000E+00
      25     1     1     2     0     0  1.304929573E+01 -1.362033188E+02 -4.668524806E+01  1.911181325E+02  1.250000000E+02  0.00000E+00  9.000E+00
      21     1     1     2   501   511  1.587644908E+02 -2.179208194E+01  1.141575193E+02  1.967561882E+02  3.568322551E-06  0.00000E+00  9.000E+00
#rwgt            1           1   3.9983781015564282E-002           2      228288           0
</event>
<event>
      5   9999  3.79277E-02  2.32851E+01 -1.00000E+00  1.61098E-01
      21    -1     0     0   512   501  0.000000000E+00  0.000000000E+00  1.017477650E+03  1.017477650E+03  0.000000000E+00  0.00000E+00  9.000E+00
      21    -1     0     0   501   502  0.000000000E+00  0.000000000E+00 -1.234770748E+02  1.234770748E+02  0.000000000E+00  0.00000E+00  9.000E+00
      25     1     1     2     0     0 -1.810323464E+02 -7.564930790E+01  8.823921474E+01  2.488105449E+02  1.250000000E+02  0.00000E+00  9.000E+00
      25     1     1     2     0     0  1.760498505E+02  9.839512898E+01  2.849190519E+02  3.707816303E+02  1.250000000E+02  0.00000E+00  9.000E+00
      21     1     1     2   512   502  4.982495981E+00 -2.274582108E+01  5.208423084E+02  5.213625494E+02  0.000000000E+00  0.00000E+00  9.000E+00
#rwgt            1           1   3.2924673691930993E-002           2      228454           0
</event>
<event>
      5   9999  3.79277E-02  1.68250E+01 -1.00000E+00  1.72811E-01
      21    -1     0     0   502   501  0.000000000E+00  0.000000000E+00  5.881552853E+01  5.881552853E+01  0.000000000E+00  0.00000E+00  9.000E+00
       2    -1     0     0   501     0  0.000000000E+00  0.000000000E+00 -1.572135999E+03  1.572135999E+03  0.000000000E+00  0.00000E+00  9.000E+00
      25     1     1     2     0     0  2.444443774E+01 -6.241587479E+01 -5.920933351E+01  1.537010642E+02  1.250000000E+02  0.00000E+00  9.000E+00
      25     1     1     2     0     0 -2.177821724E+01  7.902832494E+01 -4.743667441E+02  4.973616137E+02  1.250000000E+02  0.00000E+00  9.000E+00
       2     1     1     2   502     0 -2.666220502E+00 -1.661245015E+01 -9.797443932E+02  9.798888499E+02  1.868812365E-05  0.00000E+00  9.000E+00
#rwgt            1           1   4.4639654327245468E-002           2      228626           0
</event>
<event>
      5   9999  3.79277E-02  3.11096E+01 -1.00000E+00  1.51952E-01
      21    -1     0     0   502   501  0.000000000E+00  0.000000000E+00  2.084391619E+02  2.084391619E+02  0.000000000E+00  0.00000E+00  9.000E+00
      21    -1     0     0   511   502  0.000000000E+00  0.000000000E+00 -2.597865845E+02  2.597865845E+02  0.000000000E+00  0.00000E+00  9.000E+00
      25     1     1     2     0     0 -1.079151559E+02 -1.447741220E+02 -8.202260666E+01  2.344310885E+02  1.250000000E+02  0.00000E+00  9.000E+00
      25     1     1     2     0     0  7.995021624E+01  1.311444817E+02  3.844990592E+01  2.017283010E+02  1.250000000E+02  0.00000E+00  9.000E+00
      21     1     1     2   511   501  2.796493962E+01  1.362964034E+01 -7.774721863E+00  3.206635688E+01  5.127385418E-07  0.00000E+00  9.000E+00
#rwgt            1           1   3.5316733555520584E-002           2      228941           0
</event>
<event>
      5   9999  3.79277E-02  7.10355E+01 -1.00000E+00  1.30899E-01
      21    -1     0     0   502   501  0.000000000E+00  0.000000000E+00  1.068253734E+02  1.068253734E+02  0.000000000E+00  0.00000E+00  9.000E+00
      21    -1     0     0   501   512  0.000000000E+00  0.000000000E+00 -6.038981151E+02  6.038981151E+02  0.000000000E+00  0.00000E+00  9.000E+00
      25     1     1     2     0     0  6.033408467E+01  4.294171006E+01 -6.905687249E+01  1.608665406E+02  1.250000000E+02  0.00000E+00  9.000E+00
      25     1     1     2     0     0 -1.312898228E+02 -3.957698945E+01 -9.329838782E+01  2.076847246E+02  1.250000000E+02  0.00000E+00  9.000E+00
      21     1     1     2   502   512  7.095573815E+01 -3.364720608E+00 -3.347174814E+02  3.421722234E+02  3.814697266E-06  0.00000E+00  9.000E+00
#rwgt            1           1   2.8698651942313740E-002           2      229092           0
</event>
<event>
      5   9999  3.79277E-02  1.00905E+02 -1.00000E+00  1.23652E-01
      21    -1     0     0   502   511  0.000000000E+00  0.000000000E+00  8.599425494E+01  8.599425494E+01  0.000000000E+00  0.00000E+00  9.000E+00
      21    -1     0     0   501   502  0.000000000E+00  0.000000000E+00 -1.019222009E+03  1.019222009E+03  0.000000000E+00  0.00000E+00  9.000E+00
      25     1     1     2     0     0 -8.526773207E+01  2.510079854E+01 -1.427821963E+02  2.095528377E+02  1.250000000E+02  0.00000E+00  9.000E+00
      25     1     1     2     0     0  1.141231424E+02  7.159003293E+01 -7.713843581E+02  7.929741814E+02  1.250000000E+02  0.00000E+00  9.000E+00
      21     1     1     2   501   511 -2.885541033E+01 -9.669083147E+01 -1.906119924E+01  1.026892444E+02  1.846782373E-06  0.00000E+00  9.000E+00
#rwgt            1           1   4.5101578865391477E-002           2      229213           0
</event>
<event>
      5   9999  3.79277E-02  2.19252E+01 -1.00000E+00  1.63142E-01
      21    -1     0     0   512   501  0.000000000E+00  0.000000000E+00  1.557281202E+02  1.557281202E+02  0.000000000E+00  0.00000E+00  9.000E+00
      21    -1     0     0   501   502  0.000000000E+00  0.000000000E+00 -3.725416969E+02  3.725416969E+02  0.000000000E+00  0.00000E+00  9.000E+00
      25     1     1     2     0     0 -6.336747543E+01  2.845318274E+01 -2.995196003E+02  3.319066307E+02  1.250000000E+02  0.00000E+00  9.000E+00
      25     1     1     2     0     0  6.042925496E+01 -5.018065939E+01  4.786252069E+01  1.551954069E+02  1.250000000E+02  0.00000E+00  9.000E+00
      21     1     1     2   512   502  2.938220473E+00  2.172747666E+01  3.484350280E+01  4.116777950E+01  6.743495762E-07  0.00000E+00  9.000E+00
#rwgt            1           1   3.5427311499303497E-002           2      229378           0
</event>
<event>
      5   9999  3.79277E-02  2.20985E+01 -1.00000E+00  1.62871E-01
      21    -1     0     0   502   511  0.000000000E+00  0.000000000E+00  2.389927887E+02  2.389927887E+02  0.000000000E+00  0.00000E+00  9.000E+00
      21    -1     0     0   501   502  0.000000000E+00  0.000000000E+00 -2.527052026E+02  2.527052026E+02  0.000000000E+00  0.00000E+00  9.000E+00
      25     1     1     2     0     0  9.960449530E+01  1.173824455E+02 -1.235030118E+02  2.336186806E+02  1.250000000E+02  0.00000E+00  9.000E+00
      25     1     1     2     0     0 -8.925419026E+01 -9.785770065E+01  4.216784949E+01  1.869373360E+02  1.250000000E+02  0.00000E+00  9.000E+00
      21     1     1     2   501   511 -1.035030504E+01 -1.952474486E+01  6.762274841E+01  7.114197480E+01  0.000000000E+00  0.00000E+00  9.000E+00
#rwgt            1           1   3.8573599720655917E-002           2      229535           0
</event>
<event>
      5   9999  3.79277E-02  1.00383E+02 -1.00000E+00  1.23753E-01
      21    -1     0     0   502   512  0.000000000E+00  0.000000000E+00  2.369341758E+02  2.369341758E+02  0.000000000E+00  0.00000E+00  9.000E+00
      21    -1     0     0   501   502  0.000000000E+00  0.000000000E+00 -2.550987525E+02  2.550987525E+02  0.000000000E+00  0.00000E+00  9.000E+00
      25     1     1     2     0     0  2.419143889E+01  1.855799674E+02  1.706748443E+00  2.250623536E+02  1.250000000E+02  0.00000E+00  9.000E+00
      25     1     1     2     0     0  2.696562967E+01 -9.921053897E+01 -3.462120205E+01  1.655098301E+02  1.250000000E+02  0.00000E+00  9.000E+00
      21     1     1     2   501   512 -5.115706855E+01 -8.636942841E+01  1.474987695E+01  1.014607446E+02  2.821006671E-06  0.00000E+00  9.000E+00
#rwgt            1           1   4.4632496771027534E-002           2      229742           0
</event>
<event>
      5   9999  3.79277E-02  3.41062E+01 -1.00000E+00  1.49268E-01
      21    -1     0     0   502   501  0.000000000E+00  0.000000000E+00  3.374578165E+02  3.374578165E+02  0.000000000E+00  0.00000E+00  9.000E+00
      21    -1     0     0   501   511  0.000000000E+00  0.000000000E+00 -1.770528855E+02  1.770528855E+02  0.000000000E+00  0.00000E+00  9.000E+00
      25     1     1     2     0     0 -1.015105500E+02  1.362653489E+02  1.794047293E+02  2.769182081E+02  1.250000000E+02  0.00000E+00  9.000E+00
      25     1     1     2     0     0  6.758026921E+01 -1.397250751E+02 -1.575008370E+00  1.992929252E+02  1.250000000E+02  0.00000E+00  9.000E+00
      21     1     1     2   502   511  3.393028074E+01  3.459726201E+00 -1.742478998E+01  3.829956870E+01  4.129530925E-07  0.00000E+00  9.000E+00
#rwgt            1           1   3.5036071252955506E-002           2      229801           0
</event>
<event>
      5   9999  3.79277E-02  8.28842E+01 -1.00000E+00  1.27609E-01
      21    -1     0     0   502   501  0.000000000E+00  0.000000000E+00  1.763670372E+03  1.763670372E+03  0.000000000E+00  0.00000E+00  9.000E+00
      21    -1     0     0   512   502  0.000000000E+00  0.000000000E+00 -1.706825858E+02  1.706825858E+02  0.000000000E+00  0.00000E+00  9.000E+00
      25     1     1     2     0     0  2.720864748E+02  1.642032664E+02  3.358338489E+02  4.789604749E+02  1.250000000E+02  0.00000E+00  9.000E+00
      25     1     1     2     0     0 -2.905622186E+02 -2.450019904E+02  1.301346782E+03  1.361462752E+03  1.250000000E+02  0.00000E+00  9.000E+00
      21     1     1     2   512   501  1.847574380E+01  8.079872397E+01 -4.419284440E+01  9.392973118E+01  1.784161275E-06  0.00000E+00  9.000E+00
#rwgt            1           1   3.7590991045194505E-002           2      230004           0
</event>
<event>
      5   9999  3.79277E-02  1.39354E+01 -1.00000E+00  1.80450E-01
      21    -1     0     0   502   511  0.000000000E+00  0.000000000E+00  5.279112693E+01  5.279112693E+01  0.000000000E+00  0.00000E+00  9.000E+00
      21    -1     0     0   501   502  0.000000000E+00  0.000000000E+00 -8.979427857E+02  8.979427857E+02  0.000000000E+00  0.00000E+00  9.000E+00
      25     1     1     2     0     0  1.314491638E+02 -7.709256639E+01 -6.127111570E+02  6.436319665E+02  1.250000000E+02  0.00000E+00  9.000E+00
      25     1     1     2     0     0 -1.188550971E+02  7.112734605E+01 -2.126418850E+02  2.828908000E+02  1.250000000E+02  0.00000E+00  9.000E+00
      21     1     1     2   501   511 -1.259406671E+01  5.965220341E+00 -1.979861681E+01  2.421114615E+01  0.000000000E+00  0.00000E+00  9.000E+00
#rwgt            2          11   5.3084300611435020E-003           2      230168           0
</event>
<event>
      5   9999  3.79277E-02  2.27209E+01 -1.00000E+00  1.61924E-01
      21    -1     0     0   502   512  0.000000000E+00  0.000000000E+00  2.255219485E+02  2.255219485E+02  0.000000000E+00  0.00000E+00  9.000E+00
      21    -1     0     0   501   502  0.000000000E+00  0.000000000E+00 -2.648792918E+02  2.648792918E+02  0.000000000E+00  0.00000E+00  9.000E+00
      25     1     1     2     0     0 -5.745372045E+01  4.478906035E+01  1.563725565E+02  2.130360682E+02  1.250000000E+02  0.00000E+00  9.000E+00
      25     1     1     2     0     0  4.653527626E+01 -6.471464594E+01 -2.048622861E+02  2.528775862E+02  1.250000000E+02  0.00000E+00  9.000E+00
      21     1     1     2   501   512  1.091844418E+01  1.992558559E+01  9.132386345E+00  2.448758593E+01  3.953724850E-07  0.00000E+00  9.000E+00
#rwgt            1           1   3.9467829093389382E-002           2      230203           0
</event>
<event>
      5   9999  3.79277E-02  9.64592E+01 -1.00000E+00  1.24536E-01
      21    -1     0     0   502   511  0.000000000E+00  0.000000000E+00  2.133987133E+03  2.133987133E+03  0.000000000E+00  0.00000E+00  9.000E+00
      21    -1     0     0   501   502  0.000000000E+00  0.000000000E+00 -1.531183023E+02  1.531183023E+02  0.000000000E+00  0.00000E+00  9.000E+00
      25     1     1     2     0     0  2.607749198E+01 -3.882989330E+01  1.884591274E+03  1.889311267E+03  1.250000000E+02  0.00000E+00  9.000E+00
      25     1     1     2     0     0  1.951580570E+01  1.238336309E+02 -8.199431623E+01  1.950992124E+02  1.250000000E+02  0.00000E+00  9.000E+00
      21     1     1     2   501   511 -4.559329768E+01 -8.500373755E+01  1.782718730E+02  2.026949552E+02  2.697398305E-06  0.00000E+00  9.000E+00
#rwgt            1           1   8.2113947039411869E-002           2      230400           0
</event>
<event>
      5   9999  3.79277E-02  9.53743E+00 -1.00000E+00  1.98165E-01
      21    -1     0     0   502   512  0.000000000E+00  0.000000000E+00  3.246011832E+03  3.246011832E+03  0.000000000E+00  0.00000E+00  9.000E+00
      21    -1     0     0   501   502  0.000000000E+00  0.000000000E+00 -2.694596926E+01  2.694596926E+01  0.000000000E+00  0.00000E+00  9.000E+00
      25     1     1     2     0     0  8.980855584E+00  2.332409888E+02  9.150304515E+02  9.525690220E+02  1.250000000E+02  0.00000E+00  9.000E+00
      25     1     1     2     0     0 -1.846055404E+01 -2.321932048E+02  2.175872322E+03  2.191871309E+03  1.250000000E+02  0.00000E+00  9.000E+00
      21     1     1     2   501   512  9.479698453E+00 -1.047784011E+00  1.281630898E+02  1.285174701E+02  2.697398305E-06  0.00000E+00  9.000E+00
#rwgt            1           1   2.8808010877722827E-002           2      230514           0
</event>
<event>
      5   9999  3.79277E-02  3.74810E+01 -1.00000E+00  1.46614E-01
      21    -1     0     0   502   501  0.000000000E+00  0.000000000E+00  4.984790358E+02  4.984790358E+02  0.000000000E+00  0.00000E+00  9.000E+00
      21    -1     0     0   501   511  0.000000000E+00  0.000000000E+00 -8.179680838E+01  8.179680838E+01  0.000000000E+00  0.00000E+00  9.000E+00
      25     1     1     2     0     0  1.256244547E+02 -6.644997054E+01  2.734833138E+02  3.325886726E+02  1.250000000E+02  0.00000E+00  9.000E+00
      25     1     1     2     0     0 -9.537535312E+01  4.431808090E+01  1.051224185E+02  1.942582641E+02  1.250000000E+02  0.00000E+00  9.000E+00
      21     1     1     2   502   511 -3.024910156E+01  2.213188964E+01  3.807649511E+01  5.342890757E+01  0.000000000E+00  0.00000E+00  9.000E+00
#rwgt            1           1  0.26090520640457615                2      230890           0
</event>
<event>
      5   9999  3.79277E-02  5.03939E+01 -1.00000E+00  1.38881E-01
      21    -1     0     0   502   501  0.000000000E+00  0.000000000E+00  5.262457445E+02  5.262457445E+02  0.000000000E+00  0.00000E+00  9.000E+00
      21    -1     0     0   512   502  0.000000000E+00  0.000000000E+00 -1.197391385E+02  1.197391385E+02  0.000000000E+00  0.00000E+00  9.000E+00
      25     1     1     2     0     0  1.048810824E+01 -1.464630324E+02  3.309547620E+02  3.830371715E+02  1.250000000E+02  0.00000E+00  9.000E+00
      25     1     1     2     0     0 -6.055584071E+01  1.407385337E+02  4.126390379E+01  2.019951843E+02  1.250000000E+02  0.00000E+00  9.000E+00
      21     1     1     2   512   501  5.006773247E+01  5.724498654E+00  3.428794032E+01  6.095252719E+01  1.261592536E-06  0.00000E+00  9.000E+00
#rwgt            1           1   4.2515412617298735E-002           2      230981           0
</event>
<event>
      5   9999  3.79277E-02  9.72535E+00 -1.00000E+00  1.97166E-01
      21    -1     0     0   502   511  0.000000000E+00  0.000000000E+00  8.643750813E+01  8.643750813E+01  0.000000000E+00  0.00000E+00  9.000E+00
      21    -1     0     0   501   502  0.000000000E+00  0.000000000E+00 -9.242841910E+02  9.242841910E+02  0.000000000E+00  0.00000E+00  9.000E+00
      25     1     1     2     0     0 -1.180243336E+02  1.627213878E+02 -6.883596473E+02  7.279230711E+02  1.250000000E+02  0.00000E+00  9.000E+00
      25     1     1     2     0     0  1.103524338E+02 -1.567443962E+02 -1.361291394E+02  2.662754363E+02  1.250000000E+02  0.00000E+00  9.000E+00
      21     1     1     2   501   511  7.671899775E+00 -5.976991635E+00 -1.335789623E+01  1.652319179E+01  1.685873940E-07  0.00000E+00  9.000E+00
#rwgt            1           1   4.6974736724122355E-002           2      231103           0
</event>
<event>
      5   9999  3.79277E-02  1.16986E+02 -1.00000E+00  1.20839E-01
      21    -1     0     0   512   501  0.000000000E+00  0.000000000E+00  8.863266678E+02  8.863266678E+02  0.000000000E+00  0.00000E+00  9.000E+00
      21    -1     0     0   501   502  0.000000000E+00  0.000000000E+00 -1.025823337E+02  1.025823337E+02  0.000000000E+00  0.00000E+00  9.000E+00
      25     1     1     2     0     0 -2.226361845E+01  7.984073011E+01  3.148873387E+02  3.487825210E+02  1.250000000E+02  0.00000E+00  9.000E+00
      25     1     1     2     0     0  3.371854636E+01 -1.962649907E+02  1.042227362E+02  2.571852750E+02  1.250000000E+02  0.00000E+00  9.000E+00
      21     1     1     2   512   502 -1.145492791E+01  1.164242606E+02  3.646342592E+02  3.829412054E+02  0.000000000E+00  0.00000E+00  9.000E+00
#rwgt            1           1   3.9697794261317421E-002           2      231408           0
</event>
<event>
      5   9999  3.79277E-02  9.70307E+00 -1.00000E+00  1.97283E-01
      21    -1     0     0   502   501  0.000000000E+00  0.000000000E+00  1.151542209E+03  1.151542209E+03  0.000000000E+00  0.00000E+00  9.000E+00
      21    -1     0     0   511   502  0.000000000E+00  0.000000000E+00 -6.676681414E+01  6.676681414E+01  0.000000000E+00  0.00000E+00  9.000E+00
      25     1     1     2     0     0  1.159150186E+02  8.819254767E+01  1.199531588E+02  2.263359833E+02  1.250000000E+02  0.00000E+00  9.000E+00
      25     1     1     2     0     0 -1.188506728E+02 -9.744087540E+01  9.615316043E+02  9.817271681E+02  1.250000000E+02  0.00000E+00  9.000E+00
      21     1     1     2   511   501  2.935654214E+00  9.248327734E+00  3.290631827E+00  1.024587182E+01  1.032382731E-07  0.00000E+00  9.000E+00
#rwgt            1           1   4.4295186367624119E-002           2      231561           0
</event>
<event>
      5   9999  3.79277E-02  1.23232E+02 -1.00000E+00  1.19880E-01
      21    -1     0     0   502   501  0.000000000E+00  0.000000000E+00  1.162262407E+03  1.162262407E+03  0.000000000E+00  0.00000E+00  9.000E+00
       2    -1     0     0   501     0  0.000000000E+00  0.000000000E+00 -1.103409488E+03  1.103409488E+03  0.000000000E+00  0.00000E+00  9.000E+00
      25     1     1     2     0     0 -4.029454794E+01 -2.052787069E+02  8.754746743E+02  9.087595411E+02  1.250000000E+02  0.00000E+00  9.000E+00
      25     1     1     2     0     0  1.359318125E+02  1.275633050E+02  2.192358643E+02  3.137502488E+02  1.250000000E+02  0.00000E+00  9.000E+00
       2     1     1     2   502     0 -9.563726453E+01  7.771540186E+01 -1.035857620E+03  1.043162105E+03  0.000000000E+00  0.00000E+00  9.000E+00
#rwgt            1           1   9.1473771829604963E-002           2      231860           0
</event>
<event>
      5   9999 -3.79277E-02  1.67940E+02 -1.00000E+00  1.14482E-01
      21    -1     0     0   511   501  0.000000000E+00  0.000000000E+00  3.223786285E+02  3.223786285E+02  0.000000000E+00  0.00000E+00  9.000E+00
      21    -1     0     0   501   502  0.000000000E+00  0.000000000E+00 -3.462043425E+02  3.462043425E+02  0.000000000E+00  0.00000E+00  9.000E+00
      25     1     1     2     0     0  1.546883883E+01 -4.146706675E+01 -1.585116416E+02  2.066633570E+02  1.250000000E+02  0.00000E+00  9.000E+00
      25     1     1     2     0     0 -2.821435737E+01  2.089228554E+02 -2.446406995E+00  2.451036401E+02  1.250000000E+02  0.00000E+00  9.000E+00
      21     1     1     2   511   502  1.274551854E+01 -1.674557886E+02  1.371323345E+02  2.168159739E+02  1.907348633E-06  0.00000E+00  9.000E+00
#rwgt            1           1  -8.4683038391720297E-002           2      232063           0
</event>
<event>
      5   9999  3.79277E-02  7.12653E+01 -1.00000E+00  1.30828E-01
      21    -1     0     0   502   501  0.000000000E+00  0.000000000E+00  4.771503779E+02  4.771503779E+02  0.000000000E+00  0.00000E+00  9.000E+00
      21    -1     0     0   512   502  0.000000000E+00  0.000000000E+00 -2.918308605E+02  2.918308605E+02  0.000000000E+00  0.00000E+00  9.000E+00
      25     1     1     2     0     0 -6.139864457E+01 -1.247363705E+02  2.883689477E+02  3.436722359E+02  1.250000000E+02  0.00000E+00  9.000E+00
      25     1     1     2     0     0  6.852122115E+01  5.382791541E+01  1.182135893E+02  1.928524175E+02  1.250000000E+02  0.00000E+00  9.000E+00
      21     1     1     2   512   501 -7.122576582E+00  7.090845513E+01 -2.212630196E+02  2.324565851E+02  3.814697266E-06  0.00000E+00  9.000E+00
#rwgt            1           1   2.9838984292816305E-002           2      232125           0
</event>
<event>
      5   9999  3.79277E-02  2.42149E+01 -1.00000E+00  1.59796E-01
      21    -1     0     0   502   501  0.000000000E+00  0.000000000E+00  8.399747600E+02  8.399747600E+02  0.000000000E+00  0.00000E+00  9.000E+00
      21    -1     0     0   511   502  0.000000000E+00  0.000000000E+00 -6.353051291E+01  6.353051291E+01  0.000000000E+00  0.00000E+00  9.000E+00
      25     1     1     2     0     0 -4.972838099E+01  4.583841428E+01  2.024794918E+02  2.473803078E+02  1.250000000E+02  0.00000E+00  9.000E+00
      25     1     1     2     0     0  6.304932878E+01 -6.605999819E+01  6.005405114E+02  6.201717884E+02  1.250000000E+02  0.00000E+00  9.000E+00
      21     1     1     2   511   501 -1.332094778E+01  2.022158391E+01 -2.657575611E+01  3.595317675E+01  7.539457465E-07  0.00000E+00  9.000E+00
#rwgt            1           1   4.7143890467540236E-002           2      232196           0
</event>
<event>
      5   9999  3.79277E-02  7.19893E+01 -1.00000E+00  1.30607E-01
      21    -1     0     0   502   501  0.000000000E+00  0.000000000E+00  3.460326844E+02  3.460326844E+02  0.000000000E+00  0.00000E+00  9.000E+00
      21    -1     0     0   501   512  0.000000000E+00  0.000000000E+00 -9.937493244E+02  9.937493244E+02  0.000000000E+00  0.00000E+00  9.000E+00
      25     1     1     2     0     0 -2.056977011E+02  4.054044374E+01  2.149600925E+02  3.252505391E+02  1.250000000E+02  0.00000E+00  9.000E+00
      25     1     1     2     0     0  1.367660651E+02 -1.978243039E+01 -4.239714266E+01  1.910989765E+02  1.250000000E+02  0.00000E+00  9.000E+00
      21     1     1     2   502   512  6.893163605E+01 -2.075801336E+01 -8.202795898E+02  8.234324933E+02  1.078959322E-05  0.00000E+00  9.000E+00
#rwgt            1           1   4.1066482383437228E-002           2      232325           0
</event>
<event>
      5   9999  3.79277E-02  1.39095E+01 -1.00000E+00  1.80528E-01
      21    -1     0     0   511   501  0.000000000E+00  0.000000000E+00  6.801934643E+02  6.801934643E+02  0.000000000E+00  0.00000E+00  9.000E+00
      21    -1     0     0   501   502  0.000000000E+00  0.000000000E+00 -9.055994736E+01  9.055994736E+01  0.000000000E+00  0.00000E+00  9.000E+00
      25     1     1     2     0     0 -9.105222609E+00  9.458510288E+01  1.089293311E+00  1.570204870E+02  1.250000000E+02  0.00000E+00  9.000E+00
      25     1     1     2     0     0 -4.454460675E+00 -9.768485832E+01  5.587509482E+02  5.808526456E+02  1.250000000E+02  0.00000E+00  9.000E+00
      21     1     1     2   511   502  1.355968328E+01  3.099755446E+00  2.979327539E+01  3.288027909E+01  4.768371582E-07  0.00000E+00  9.000E+00
#rwgt            1           1   3.8785718157682766E-002           2      232549           0
</event>
<event>
      5   9999 -3.79277E-02  5.97219E+01 -1.00000E+00  1.34811E-01
      21    -1     0     0   502   512  0.000000000E+00  0.000000000E+00  5.956030671E+02  5.956030671E+02  0.000000000E+00  0.00000E+00  9.000E+00
      21    -1     0     0   501   502  0.000000000E+00  0.000000000E+00 -2.212692424E+02  2.212692424E+02  0.000000000E+00  0.00000E+00  9.000E+00
      25     1     1     2     0     0  1.763096788E+02  1.284217890E+02 -1.015464621E+02  2.711345472E+02  1.250000000E+02  0.00000E+00  9.000E+00
      25     1     1     2     0     0 -1.417137381E+02 -7.974095662E+01  3.361650670E+02  3.937935449E+02  1.250000000E+02  0.00000E+00  9.000E+00
      21     1     1     2   501   512 -3.459594066E+01 -4.868083237E+01  1.397152198E+02  1.519442174E+02  1.907348633E-06  0.00000E+00  9.000E+00
#rwgt            1           1 -0.13154038354925629                2      232838           0
</event>
<event>
      5   9999  3.79277E-02  3.87140E+01 -1.00000E+00  1.45726E-01
      21    -1     0     0   502   501  0.000000000E+00  0.000000000E+00  5.616216843E+02  5.616216843E+02  0.000000000E+00  0.00000E+00  9.000E+00
      21    -1     0     0   501   511  0.000000000E+00  0.000000000E+00 -8.658065440E+01  8.658065440E+01  0.000000000E+00  0.00000E+00  9.000E+00
      25     1     1     2     0     0  3.583420675E+00 -1.288952673E+02  1.535221219E+02  2.362644128E+02  1.250000000E+02  0.00000E+00  9.000E+00
      25     1     1     2     0     0  1.758844253E+01  1.613070330E+02  3.099818516E+02  3.715414654E+02  1.250000000E+02  0.00000E+00  9.000E+00
      21     1     1     2   502   511 -2.117186320E+01 -3.241176575E+01  1.153705644E+01  4.039646051E+01  2.920019320E-07  0.00000E+00  9.000E+00
#rwgt            1           1   3.5938834585221756E-002           2      233168           0
</event>
<event>
      5   9999  3.79277E-02  5.13037E+01 -1.00000E+00  1.38441E-01
      21    -1     0     0   512   501  0.000000000E+00  0.000000000E+00  2.800103220E+02  2.800103220E+02  0.000000000E+00  0.00000E+00  9.000E+00
      21    -1     0     0   501   502  0.000000000E+00  0.000000000E+00 -8.032298608E+02  8.032298608E+02  0.000000000E+00  0.00000E+00  9.000E+00
      25     1     1     2     0     0 -2.149244064E+01 -1.908932277E+01 -6.638746142E+02  6.761514849E+02  1.250000000E+02  0.00000E+00  9.000E+00
      25     1     1     2     0     0  7.261888771E+01  2.334982726E+01 -8.927511170E+01  1.715044106E+02  1.250000000E+02  0.00000E+00  9.000E+00
      21     1     1     2   512   502 -5.112644707E+01 -4.260504494E+00  2.299301871E+02  2.355842873E+02  0.000000000E+00  0.00000E+00  9.000E+00
#rwgt            1           1   4.7661088144634066E-002           2      233264           0
</event>
<event>
      5   9999  3.79277E-02  4.85127E+01 -1.00000E+00  1.39828E-01
      21    -1     0     0   502   501  0.000000000E+00  0.000000000E+00  1.490844398E+03  1.490844398E+03  0.000000000E+00  0.00000E+00  9.000E+00
      21    -1     0     0   511   502  0.000000000E+00  0.000000000E+00 -3.900816482E+02  3.900816482E+02  0.000000000E+00  0.00000E+00  9.000E+00
      25     1     1     2     0     0  4.467803931E+02 -4.630572389E+02  8.432283749E+02  1.068032686E+03  1.250000000E+02  0.00000E+00  9.000E+00
      25     1     1     2     0     0 -4.495120581E+02  5.114929938E+02  2.940424446E+02  7.521782584E+02  1.250000000E+02  0.00000E+00  9.000E+00
      21     1     1     2   511   501  2.731665041E+00 -4.843575488E+01 -3.650807026E+01  6.071510140E+01  4.768371582E-07  0.00000E+00  9.000E+00
#rwgt            1           1   1.9268205682183508E-002           2      233332           0
</event>
<event>
      5   9999  3.79277E-02  8.30149E+01 -1.00000E+00  1.27577E-01
      21    -1     0     0   502   501  0.000000000E+00  0.000000000E+00  3.583425531E+02  3.583425531E+02  0.000000000E+00  0.00000E+00  9.000E+00
      21    -1     0     0   501   512  0.000000000E+00  0.000000000E+00 -5.041775053E+02  5.041775053E+02  0.000000000E+00  0.00000E+00  9.000E+00
      25     1     1     2     0     0  1.919346117E+02  1.390722299E+01  6.635947954E+01  2.388742065E+02  1.250000000E+02  0.00000E+00  9.000E+00
      25     1     1     2     0     0 -1.818019059E+02  6.848692385E+01  1.343885085E+02  2.672595423E+02  1.250000000E+02  0.00000E+00  9.000E+00
      21     1     1     2   502   512 -1.013270574E+01 -8.239414684E+01 -3.465829403E+02  3.563863096E+02  3.814697266E-06  0.00000E+00  9.000E+00
#rwgt            1           1   3.6828008787303794E-002           2      233514           0
</event>
<event>
      5   9999  3.79277E-02  3.15516E+01 -1.00000E+00  1.51534E-01
      21    -1     0     0   502   501  0.000000000E+00  0.000000000E+00  6.548387931E+02  6.548387931E+02  0.000000000E+00  0.00000E+00  9.000E+00
      21    -1     0     0   501   511  0.000000000E+00  0.000000000E+00 -1.268116870E+02  1.268116870E+02  0.000000000E+00  0.00000E+00  9.000E+00
      25     1     1     2     0     0  8.441193412E+01 -6.266431909E+01  1.604401181E+02  2.289502632E+02  1.250000000E+02  0.00000E+00  9.000E+00
      25     1     1     2     0     0 -1.140230068E+02  7.355866667E+01  4.381481719E+02  4.754060833E+02  1.250000000E+02  0.00000E+00  9.000E+00
      21     1     1     2   502   511  2.961107265E+01 -1.089434758E+01 -7.056118386E+01  7.729413368E+01  1.907348633E-06  0.00000E+00  9.000E+00
#rwgt            1           1   2.6844197595798848E-002           2      233695           0
</event>
<event>
      5   9999  3.79277E-02  2.15884E+01 -1.00000E+00  1.63676E-01
      21    -1     0     0   502   501  0.000000000E+00  0.000000000E+00  1.931774903E+03  1.931774903E+03  0.000000000E+00  0.00000E+00  9.000E+00
       4    -1     0     0   501     0  0.000000000E+00  0.000000000E+00 -8.015220594E+01  8.015220594E+01  0.000000000E+00  0.00000E+00  9.000E+00
      25     1     1     2     0     0 -4.148713906E+00  1.109772480E+02  4.880379550E+02  5.158868160E+02  1.250000000E+02  0.00000E+00  9.000E+00
      25     1     1     2     0     0 -1.740228169E+01 -1.122473075E+02  1.422915125E+03  1.432904306E+03  1.250000000E+02  0.00000E+00  9.000E+00
       4     1     1     2   502     0  2.155099559E+01  1.270059524E+00 -5.933038307E+01  6.313598671E+01  2.611744678E-06  0.00000E+00  9.000E+00
#rwgt            1           1  0.11585208422650728                2      233894           0
</event>
<event>
      5   9999  3.79277E-02  4.63564E+01 -1.00000E+00  1.40977E-01
      21    -1     0     0   502   501  0.000000000E+00  0.000000000E+00  3.736872152E+02  3.736872152E+02  0.000000000E+00  0.00000E+00  9.000E+00
      21    -1     0     0   511   502  0.000000000E+00  0.000000000E+00 -1.264453518E+02  1.264453518E+02  0.000000000E+00  0.00000E+00  9.000E+00
      25     1     1     2     0     0 -1.197128286E+02 -3.478452468E+01  2.126637725E+02  2.763910357E+02  1.250000000E+02  0.00000E+00  9.000E+00
      25     1     1     2     0     0  9.510633802E+01  7.407111706E+01  3.606018067E+01  1.773614460E+02  1.250000000E+02  0.00000E+00  9.000E+00
      21     1     1     2   511   501  2.460649057E+01 -3.928659238E+01 -1.482089739E+00  4.638008526E+01  7.554168615E-07  0.00000E+00  9.000E+00
#rwgt            1           1   1.1917787068037807E-002           2      234112           0
</event>
<event>
      5   9999  3.79277E-02  2.92406E+01 -1.00000E+00  1.53817E-01
      21    -1     0     0   502   501  0.000000000E+00  0.000000000E+00  1.451303682E+02  1.451303682E+02  0.000000000E+00  0.00000E+00  9.000E+00
       2    -1     0     0   501     0  0.000000000E+00  0.000000000E+00 -7.728364987E+02  7.728364987E+02  0.000000000E+00  0.00000E+00  9.000E+00
      25     1     1     2     0     0 -1.276820360E+02 -1.033197099E+02  2.297117855E+01  2.076784529E+02  1.250000000E+02  0.00000E+00  9.000E+00
      25     1     1     2     0     0  1.128629172E+02  1.285269434E+02 -3.567703145E+02  4.149304406E+02  1.250000000E+02  0.00000E+00  9.000E+00
       2     1     1     2   502     0  1.481911874E+01 -2.520723347E+01 -2.939069947E+02  2.953579733E+02  3.814697266E-06  0.00000E+00  9.000E+00
#rwgt            1           1   3.7527238089511840E-002           2      234210           0
</event>
<event>
      5   9999  3.79277E-02  2.13085E+01 -1.00000E+00  1.64130E-01
      21    -1     0     0   502   501  0.000000000E+00  0.000000000E+00  3.127707397E+02  3.127707397E+02  0.000000000E+00  0.00000E+00  9.000E+00
      21    -1     0     0   511   502  0.000000000E+00  0.000000000E+00 -1.879750397E+02  1.879750397E+02  0.000000000E+00  0.00000E+00  9.000E+00
      25     1     1     2     0     0 -1.841623059E+02 -6.570740766E+01  3.981191214E+01  2.354638119E+02  1.250000000E+02  0.00000E+00  9.000E+00
      25     1     1     2     0     0  1.836547450E+02  4.440500063E+01  8.934258627E+01  2.435322713E+02  1.250000000E+02  0.00000E+00  9.000E+00
      21     1     1     2   511   501  5.075609727E-01  2.130240703E+01 -4.358798380E+00  2.174969624E+01  2.795705652E-07  0.00000E+00  9.000E+00
#rwgt            1           1   4.2659129757113126E-002           2      234397           0
</event>
<event>
      5   9999  3.79277E-02  1.59841E+01 -1.00000E+00  1.74823E-01
      21    -1     0     0   502   512  0.000000000E+00  0.000000000E+00  1.258368666E+02  1.258368666E+02  0.000000000E+00  0.00000E+00  9.000E+00
      21    -1     0     0   501   502  0.000000000E+00  0.000000000E+00 -4.358987003E+02  4.358987003E+02  0.000000000E+00  0.00000E+00  9.000E+00
      25     1     1     2     0     0  7.577185243E+01  1.557656139E+02 -1.251815467E+02  2.475878021E+02  1.250000000E+02  0.00000E+00  9.000E+00
      25     1     1     2     0     0 -5.981942653E+01 -1.547595335E+02 -2.026766673E+02  2.902269947E+02  1.250000000E+02  0.00000E+00  9.000E+00
      21     1     1     2   501   512 -1.595242589E+01 -1.006080445E+00  1.779638038E+01  2.392077015E+01  3.371747881E-07  0.00000E+00  9.000E+00
#rwgt            1           1   4.1990896614111414E-002           2      234634           0
</event>
<event>
      5   9999  3.79277E-02  5.61026E+01 -1.00000E+00  1.36281E-01
      21    -1     0     0   502   501  0.000000000E+00  0.000000000E+00  2.314643702E+02  2.314643702E+02  0.000000000E+00  0.00000E+00  9.000E+00
       1    -1     0     0   501     0  0.000000000E+00  0.000000000E+00 -2.421171920E+03  2.421171920E+03  0.000000000E+00  0.00000E+00  9.000E+00
      25     1     1     2     0     0  3.432642632E+02 -7.973923617E+01 -6.156043130E+01  3.789503752E+02  1.250000000E+02  0.00000E+00  9.000E+00
      25     1     1     2     0     0 -2.872496988E+02  7.659697692E+01 -2.870768745E+02  4.317610661E+02  1.250000000E+02  0.00000E+00  9.000E+00
       1     1     1     2   502     0 -5.601456439E+01  3.142259250E+00 -1.841070244E+03  1.841924849E+03  2.157918644E-05  0.00000E+00  9.000E+00
#rwgt            1           1   4.0756067686957435E-002           2      234845           0
</event>
<event>
      5   9999  3.79277E-02  1.58254E+01 -1.00000E+00  1.75220E-01
      21    -1     0     0   502   501  0.000000000E+00  0.000000000E+00  9.335838662E+01  9.335838662E+01  0.000000000E+00  0.00000E+00  9.000E+00
      21    -1     0     0   501   511  0.000000000E+00  0.000000000E+00 -6.387414952E+02  6.387414952E+02  0.000000000E+00  0.00000E+00  9.000E+00
      25     1     1     2     0     0 -2.251087546E+01  1.128624969E+02 -4.157136402E+02  4.490963297E+02  1.250000000E+02  0.00000E+00  9.000E+00
      25     1     1     2     0     0  3.216468217E+01 -1.003227049E+02 -1.160894000E+01  1.638870934E+02  1.250000000E+02  0.00000E+00  9.000E+00
      21     1     1     2   502   511 -9.653806708E+00 -1.253979199E+01 -1.180605284E+02  1.191164587E+02  0.000000000E+00  0.00000E+00  9.000E+00
#rwgt            1           1   4.9033076015716076E-002           2      234995           0
</event>
<event>
      5   9999 -3.79277E-02  1.83241E+02 -1.00000E+00  1.13049E-01
      21    -1     0     0   502   501  0.000000000E+00  0.000000000E+00  9.817781175E+01  9.817781175E+01  0.000000000E+00  0.00000E+00  9.000E+00
      21    -1     0     0   501   512  0.000000000E+00  0.000000000E+00 -2.342261836E+03  2.342261836E+03  0.000000000E+00  0.00000E+00  9.000E+00
      25     1     1     2     0     0  9.756901181E+01 -2.057522197E+02 -1.013014133E+03  1.045789808E+03  1.250000000E+02  0.00000E+00  9.000E+00
      25     1     1     2     0     0 -2.540451669E+02  3.011068529E+02 -5.418769150E+02  6.815129307E+02  1.250000000E+02  0.00000E+00  9.000E+00
      21     1     1     2   502   512  1.564761551E+02 -9.535463320E+01 -6.891929758E+02  7.131369090E+02  1.078959322E-05  0.00000E+00  9.000E+00
#rwgt            1           1 -0.29482288465166961                2      235340           0
</event>
<event>
      5   9999  3.79277E-02  3.44255E+01 -1.00000E+00  1.49002E-01
      21    -1     0     0   502   511  0.000000000E+00  0.000000000E+00  3.138157660E+02  3.138157660E+02  0.000000000E+00  0.00000E+00  9.000E+00
      21    -1     0     0   501   502  0.000000000E+00  0.000000000E+00 -1.916290836E+02  1.916290836E+02  0.000000000E+00  0.00000E+00  9.000E+00
      25     1     1     2     0     0  1.108709035E+00 -1.126920651E+02 -1.068393955E+02  1.993499115E+02  1.250000000E+02  0.00000E+00  9.000E+00
      25     1     1     2     0     0 -1.345572659E+01  8.055691788E+01  1.193838575E+02  1.911752573E+02  1.250000000E+02  0.00000E+00  9.000E+00
      21     1     1     2   501   511  1.234701756E+01  3.213514723E+01  1.096422204E+02  1.149196807E+02  0.000000000E+00  0.00000E+00  9.000E+00
#rwgt            1           1   4.9466030219023210E-002           2      235424           0
</event>
<event>
      5   9999  3.79277E-02  4.83928E+01 -1.00000E+00  1.39890E-01
      21    -1     0     0   502   512  0.000000000E+00  0.000000000E+00  4.616435044E+02  4.616435044E+02  0.000000000E+00  0.00000E+00  9.000E+00
      21    -1     0     0   501   502  0.000000000E+00  0.000000000E+00 -1.579144362E+02  1.579144362E+02  0.000000000E+00  0.00000E+00  9.000E+00
      25     1     1     2     0     0  7.299746940E+01 -2.841412288E+01 -8.277903029E+01  1.691548426E+02  1.250000000E+02  0.00000E+00  9.000E+00
      25     1     1     2     0     0 -1.004925291E+02  6.823726778E+01  2.436819780E+02  2.996013677E+02  1.250000000E+02  0.00000E+00  9.000E+00
      21     1     1     2   501   512  2.749505971E+01 -3.982314490E+01  1.428261205E+02  1.508017303E+02  1.907348633E-06  0.00000E+00  9.000E+00
#rwgt            1           1   4.4931269911333095E-002           2      235521           0
</event>
<event>
      5   9999  3.79277E-02  1.98914E+01 -1.00000E+00  1.66564E-01
      21    -1     0     0   502   501  0.000000000E+00  0.000000000E+00  1.887182777E+02  1.887182777E+02  0.000000000E+00  0.00000E+00  9.000E+00
      21    -1     0     0   511   502  0.000000000E+00  0.000000000E+00 -1.934882543E+02  1.934882543E+02  0.000000000E+00  0.00000E+00  9.000E+00
      25     1     1     2     0     0  2.757884381E+01 -2.357424165E+01 -1.279277170E+02  1.825016117E+02  1.250000000E+02  0.00000E+00  9.000E+00
      25     1     1     2     0     0 -2.986382154E+01  3.814541360E+00  1.255063381E+02  1.796753725E+02  1.250000000E+02  0.00000E+00  9.000E+00
      21     1     1     2   511   501  2.284977725E+00  1.975970029E+01 -2.348597724E+00  2.002954793E+01  4.470348358E-07  0.00000E+00  9.000E+00
#rwgt            1           1   4.4573135154116594E-002           2      235660           0
</event>
<event>
      5   9999  3.79277E-02  2.92654E+01 -1.00000E+00  1.53791E-01
       2    -1     0     0   502     0  0.000000000E+00  0.000000000E+00  2.707070585E+03  2.707070585E+03  0.000000000E+00  0.00000E+00  9.000E+00
      21    -1     0     0   501   502  0.000000000E+00  0.000000000E+00 -8.005365392E+01  8.005365392E+01  0.000000000E+00  0.00000E+00  9.000E+00
      25     1     1     2     0     0 -7.576763126E+01 -1.024471052E+02  6.621152459E+02  6.857534121E+02  1.250000000E+02  0.00000E+00  9.000E+00
      25     1     1     2     0     0  5.270571329E+01  1.204640757E+02  5.266874307E+01  1.889139546E+02  1.250000000E+02  0.00000E+00  9.000E+00
       2     1     1     2   501     0  2.306191797E+01 -1.801697055E+01  1.912232942E+03  1.912456873E+03  0.000000000E+00  0.00000E+00  9.000E+00
#rwgt            1           1   2.9531821233576158E-002           2      235781           0
</event>
<event>
      5   9999  3.79277E-02  3.13551E+01 -1.00000E+00  1.51719E-01
      21    -1     0     0   511   501  0.000000000E+00  0.000000000E+00  8.691757279E+02  8.691757279E+02  0.000000000E+00  0.00000E+00  9.000E+00
      21    -1     0     0   501   502  0.000000000E+00  0.000000000E+00 -2.474290498E+02  2.474290498E+02  0.000000000E+00  0.00000E+00  9.000E+00
      25     1     1     2     0     0  4.939494271E+01  1.139032941E+02 -1.982319784E+02  2.652069721E+02  1.250000000E+02  0.00000E+00  9.000E+00
      25     1     1     2     0     0 -7.814538134E+01 -1.264153871E+02  7.496697280E+02  7.744141346E+02  1.250000000E+02  0.00000E+00  9.000E+00
      21     1     1     2   511   502  2.875043863E+01  1.251209292E+01  7.030892843E+01  7.698367105E+01  0.000000000E+00  0.00000E+00  9.000E+00
#rwgt            1           1   3.9117819876008875E-002           2      235889           0
</event>
<event>
      5   9999  3.79277E-02  1.29401E+02 -1.00000E+00  1.18994E-01
      21    -1     0     0   512   501  0.000000000E+00  0.000000000E+00  1.043405601E+02  1.043405601E+02  0.000000000E+00  0.00000E+00  9.000E+00
      21    -1     0     0   501   502  0.000000000E+00  0.000000000E+00 -8.751143193E+02  8.751143193E+02  0.000000000E+00  0.00000E+00  9.000E+00
      25     1     1     2     0     0 -6.687453168E+00 -6.975901434E+01 -5.335366707E+01  1.529138839E+02  1.250000000E+02  0.00000E+00  9.000E+00
      25     1     1     2     0     0 -3.904580882E+00  1.987260391E+02 -6.246447963E+02  6.673180695E+02  1.250000000E+02  0.00000E+00  9.000E+00
      21     1     1     2   512   502  1.059203405E+01 -1.289670247E+02 -9.277529585E+01  1.592229260E+02  1.348699152E-06  0.00000E+00  9.000E+00
#rwgt            1           1   4.0897919656533326E-002           2      236304           0
</event>
<event>
      5   9999  3.79277E-02  5.10886E+01 -1.00000E+00  1.38544E-01
      21    -1     0     0   502   511  0.000000000E+00  0.000000000E+00  5.949127659E+01  5.949127659E+01  0.000000000E+00  0.00000E+00  9.000E+00
      21    -1     0     0   501   502  0.000000000E+00  0.000000000E+00 -9.061513256E+02  9.061513256E+02  0.000000000E+00  0.00000E+00  9.000E+00
      25     1     1     2     0     0  5.805056457E+01  6.015071378E+01 -1.211317507E+02  1.930955138E+02  1.250000000E+02  0.00000E+00  9.000E+00
      25     1     1     2     0     0 -7.341858904E+01 -1.142836412E+01 -7.009112840E+02  7.158369400E+02  1.250000000E+02  0.00000E+00  9.000E+00
      21     1     1     2   501   511  1.536802447E+01 -4.872234965E+01 -2.461701429E+01  5.671014834E+01  0.000000000E+00  0.00000E+00  9.000E+00
#rwgt            1           1   6.0636871825808882E-002           2      236367           0
</event>
<event>
      5   9999  3.79277E-02  5.61356E+01 -1.00000E+00  1.36267E-01
      21    -1     0     0   502   501  0.000000000E+00  0.000000000E+00  4.811965123E+02  4.811965123E+02  0.000000000E+00  0.00000E+00  9.000E+00
       2    -1     0     0   501     0  0.000000000E+00  0.000000000E+00 -2.741165105E+03  2.741165105E+03  0.000000000E+00  0.00000E+00  9.000E+00
      25     1     1     2     0     0 -5.281334988E+02  9.586642811E+00 -1.161313191E+02  5.550931269E+02  1.250000000E+02  0.00000E+00  9.000E+00
      25     1     1     2     0     0  5.082764531E+02 -6.209286973E+01 -4.415135987E+00  5.271100177E+02  1.250000000E+02  0.00000E+00  9.000E+00
       2     1     1     2   502     0  1.985704565E+01  5.250622691E+01 -2.139422137E+03  2.140158472E+03  0.000000000E+00  0.00000E+00  9.000E+00
#rwgt            2          13   1.0913918444966914E-002           2      236459           0
</event>
<event>
      5   9999  3.79277E-02  1.77482E+01 -1.00000E+00  1.70766E-01
      21    -1     0     0   502   501  0.000000000E+00  0.000000000E+00  4.830261117E+02  4.830261117E+02  0.000000000E+00  0.00000E+00  9.000E+00
      21    -1     0     0   511   502  0.000000000E+00  0.000000000E+00 -8.938026250E+01  8.938026250E+01  0.000000000E+00  0.00000E+00  9.000E+00
      25     1     1     2     0     0 -4.483892090E+01  1.338895626E+02  2.077175914E+02  2.805504261E+02  1.250000000E+02  0.00000E+00  9.000E+00
      25     1     1     2     0     0  3.052330975E+01 -1.443806073E+02  1.925559264E+02  2.729106392E+02  1.250000000E+02  0.00000E+00  9.000E+00
      21     1     1     2   511   501  1.431561116E+01  1.049104473E+01 -6.627668528E+00  1.894530898E+01  2.920019320E-07  0.00000E+00  9.000E+00
#rwgt            1           1   3.3682627408739743E-002           2      236508           0
</event>
<event>
      5   9999  3.79277E-02  1.91770E+01 -1.00000E+00  1.67889E-01
      21    -1     0     0   502   512  0.000000000E+00  0.000000000E+00  2.451715752E+02  2.451715752E+02  0.000000000E+00  0.00000E+00  9.000E+00
      21    -1     0     0   501   502  0.000000000E+00  0.000000000E+00 -9.563646647E+02  9.563646647E+02  0.000000000E+00  0.00000E+00  9.000E+00
      25     1     1     2     0     0  1.070973559E+02  8.855901938E+01 -2.994561534E+02  3.530035855E+02  1.250000000E+02  0.00000E+00  9.000E+00
      25     1     1     2     0     0 -1.158097755E+02 -1.056426276E+02 -6.137212502E+02  6.456400249E+02  1.250000000E+02  0.00000E+00  9.000E+00
      21     1     1     2   501   512  8.712419558E+00  1.708360819E+01  2.019843142E+02  2.028926295E+02  4.672030912E-06  0.00000E+00  9.000E+00
#rwgt            1           1   2.3862962985506039E-002           2      236739           0
</event>
<event>
      5   9999  3.79277E-02  1.41347E+02 -1.00000E+00  1.17426E-01
      21    -1     0     0   502   501  0.000000000E+00  0.000000000E+00  1.318365286E+03  1.318365286E+03  0.000000000E+00  0.00000E+00  9.000E+00
      21    -1     0     0   501   511  0.000000000E+00  0.000000000E+00 -7.985836176E+01  7.985836176E+01  0.000000000E+00  0.00000E+00  9.000E+00
      25     1     1     2     0     0 -5.785040215E+01  1.753131189E+01  9.368670286E+02  9.471002298E+02  1.250000000E+02  0.00000E+00  9.000E+00
      25     1     1     2     0     0 -1.212996537E+01 -1.403393204E+02  1.303203107E+02  2.290210564E+02  1.250000000E+02  0.00000E+00  9.000E+00
      21     1     1     2   502   511  6.998036753E+01  1.228080085E+02  1.713195847E+02  2.221023613E+02  4.672030912E-06  0.00000E+00  9.000E+00
#rwgt            1           1   4.2516279439249453E-002           2      236865           0
</event>
<event>
      5   9999  3.79277E-02  2.87751E+01 -1.00000E+00  1.54308E-01
      21    -1     0     0   502   501  0.000000000E+00  0.000000000E+00  1.841329663E+03  1.841329663E+03  0.000000000E+00  0.00000E+00  9.000E+00
      21    -1     0     0   512   502  0.000000000E+00  0.000000000E+00 -6.649169994E+01  6.649169994E+01  0.000000000E+00  0.00000E+00  9.000E+00
      25     1     1     2     0     0 -2.470246486E+02  1.028458849E+01  9.438207832E+02  9.836410019E+02  1.250000000E+02  0.00000E+00  9.000E+00
      25     1     1     2     0     0  2.472967006E+02 -3.905837943E+01  8.464651219E+02  8.915208454E+02  1.250000000E+02  0.00000E+00  9.000E+00
      21     1     1     2   512   501 -2.720519617E-01  2.877379095E+01 -1.544794199E+01  3.265951575E+01  1.105501472E-06  0.00000E+00  9.000E+00
#rwgt            1           1   1.7717533619634983E-002           2      237024           0
</event>
<event>
      5   9999  3.79277E-02  8.02595E+01 -1.00000E+00  1.28281E-01
      21    -1     0     0   502   501  0.000000000E+00  0.000000000E+00  2.546744615E+02  2.546744615E+02  0.000000000E+00  0.00000E+00  9.000E+00
      21    -1     0     0   501   511  0.000000000E+00  0.000000000E+00 -4.445778694E+02  4.445778694E+02  0.000000000E+00  0.00000E+00  9.000E+00
      25     1     1     2     0     0  2.294876626E+02 -1.208018363E+01 -1.834478832E+02  3.195131359E+02  1.250000000E+02  0.00000E+00  9.000E+00
      25     1     1     2     0     0 -2.230490201E+02 -6.792061554E+01  6.484206801E+01  2.723849650E+02  1.250000000E+02  0.00000E+00  9.000E+00
      21     1     1     2   502   511 -6.438642570E+00  8.000079917E+01 -7.129759264E+01  1.073542300E+02  1.907348633E-06  0.00000E+00  9.000E+00
#rwgt            1           1   3.7585432711437307E-002           2      237167           0
</event>
<event>
      5   9999  3.79277E-02  1.82115E+01 -1.00000E+00  1.69797E-01
      21    -1     0     0   512   501  0.000000000E+00  0.000000000E+00  9.481809415E+01  9.481809415E+01  0.000000000E+00  0.00000E+00  9.000E+00
      21    -1     0     0   501   502  0.000000000E+00  0.000000000E+00 -6.189858492E+02  6.189858492E+02  0.000000000E+00  0.00000E+00  9.000E+00
      25     1     1     2     0     0 -5.851944139E+01 -1.279533629E+02 -4.583816279E+02  4.955151914E+02  1.250000000E+02  0.00000E+00  9.000E+00
      25     1     1     2     0     0  4.263942055E+01  1.190379912E+02 -8.021120872E+01  1.950564061E+02  1.250000000E+02  0.00000E+00  9.000E+00
      21     1     1     2   512   502  1.588002084E+01  8.915371676E+00  1.442508162E+01  2.323234585E+01  4.460403188E-07  0.00000E+00  9.000E+00
#rwgt            1           1   4.7529078344209871E-002           2      237246           0
</event>
<event>
      5   9999  3.79277E-02  8.96315E+01 -1.00000E+00  1.26005E-01
      21    -1     0     0   502   501  0.000000000E+00  0.000000000E+00  5.400536363E+02  5.400536363E+02  0.000000000E+00  0.00000E+00  9.000E+00
      21    -1     0     0   511   502  0.000000000E+00  0.000000000E+00 -1.379622825E+02  1.379622825E+02  0.000000000E+00  0.00000E+00  9.000E+00
      25     1     1     2     0     0 -8.279649161E+01 -1.041983200E+02  7.888923157E+01  1.988996224E+02  1.250000000E+02  0.00000E+00  9.000E+00
      25     1     1     2     0     0  1.410362430E+02  1.723300661E+02  2.820741966E+02  3.804993113E+02  1.250000000E+02  0.00000E+00  9.000E+00
      21     1     1     2   511   501 -5.823975142E+01 -6.813174612E+01  4.112792572E+01  9.861698509E+01  1.066240300E-06  0.00000E+00  9.000E+00
#rwgt            1           1   3.9212683794922563E-002           2      237380           0
</event>
<event>
      5   9999  3.79277E-02  3.33620E+01 -1.00000E+00  1.49903E-01
      21    -1     0     0   512   501  0.000000000E+00  0.000000000E+00  1.009441733E+02  1.009441733E+02  0.000000000E+00  0.00000E+00  9.000E+00
      21    -1     0     0   501   502  0.000000000E+00  0.000000000E+00 -3.958488417E+02  3.958488417E+02  0.000000000E+00  0.00000E+00  9.000E+00
      25     1     1     2     0     0 -5.945453553E+01 -1.526171535E+01 -2.449417751E+02  2.817609535E+02  1.250000000E+02  0.00000E+00  9.000E+00
      25     1     1     2     0     0  9.250837268E+01  1.978571647E+01 -7.455303031E+01  1.735869463E+02  1.250000000E+02  0.00000E+00  9.000E+00
      21     1     1     2   512   502 -3.305383714E+01 -4.524001122E+00  2.459013701E+01  4.144511520E+01  3.371747881E-07  0.00000E+00  9.000E+00
#rwgt            1           1   2.6312401355281487E-002           2      237436           0
</event>
<event>
      5   9999  3.79277E-02  5.12020E+01 -1.00000E+00  1.38489E-01
      21    -1     0     0   502   511  0.000000000E+00  0.000000000E+00  8.842269524E+02  8.842269524E+02  0.000000000E+00  0.00000E+00  9.000E+00
      21    -1     0     0   501   502  0.000000000E+00  0.000000000E+00 -3.835147185E+01  3.835147185E+01  0.000000000E+00  0.00000E+00  9.000E+00
      25     1     1     2     0     0 -6.609699594E+01 -2.358814581E+01  4.528977964E+02  4.750438164E+02  1.250000000E+02  0.00000E+00  9.000E+00
      25     1     1     2     0     0  5.887797143E+01  7.427871875E+01  2.447100925E+02  2.906750298E+02  1.250000000E+02  0.00000E+00  9.000E+00
      21     1     1     2   501   511  7.219024509E+00 -5.069057294E+01  1.482675917E+02  1.568595782E+02  0.000000000E+00  0.00000E+00  9.000E+00
#rwgt            1           1   2.4054992776778136E-002           2      237556           0
</event>
<event>
      5   9999  3.79277E-02  3.91855E+01 -1.00000E+00  1.45396E-01
      21    -1     0     0   502   501  0.000000000E+00  0.000000000E+00  1.557382514E+02  1.557382514E+02  0.000000000E+00  0.00000E+00  9.000E+00
      21    -1     0     0   512   502  0.000000000E+00  0.000000000E+00 -5.442545656E+02  5.442545656E+02  0.000000000E+00  0.00000E+00  9.000E+00
      25     1     1     2     0     0  1.724321777E+02 -1.084269382E+02 -5.148260604E+01  2.444682302E+02  1.250000000E+02  0.00000E+00  9.000E+00
      25     1     1     2     0     0 -2.114755056E+02  1.050915206E+02 -2.905648562E+02  3.947392213E+02  1.250000000E+02  0.00000E+00  9.000E+00
      21     1     1     2   512   501  3.904332793E+01  3.335417578E+00 -4.646885191E+01  6.078536554E+01  0.000000000E+00  0.00000E+00  9.000E+00
#rwgt            1           1   5.3826911475563004E-002           2      237614           0
</event>
<event>
      5   9999  3.79277E-02  4.51151E+01 -1.00000E+00  1.41672E-01
       1    -1     0     0   502     0  0.000000000E+00  0.000000000E+00  6.208336882E+02  6.208336882E+02  0.000000000E+00  0.00000E+00  9.000E+00
      21    -1     0     0   501   502  0.000000000E+00  0.000000000E+00 -1.991251380E+02  1.991251380E+02  0.000000000E+00  0.00000E+00  9.000E+00
      25     1     1     2     0     0  1.437589513E+01  4.142465487E+01  3.025994207E+02  3.303242010E+02  1.250000000E+02  0.00000E+00  9.000E+00
      25     1     1     2     0     0  3.073814214E+01 -4.111404199E+01 -1.585566065E+02  2.083276153E+02  1.250000000E+02  0.00000E+00  9.000E+00
       1     1     1     2   501     0 -4.511403726E+01 -3.106128739E-01  2.776657361E+02  2.813070099E+02  3.814697266E-06  0.00000E+00  9.000E+00
#rwgt            1           1   3.4083109386226988E-002           2      237728           0
</event>
<event>
      5   9999  3.79277E-02  8.13984E+01 -1.00000E+00  1.27986E-01
      -1    -1     0     0     0   501  0.000000000E+00  0.000000000E+00  1.097372835E+03  1.097372835E+03  0.000000000E+00  0.00000E+00  9.000E+00
      21    -1     0     0   501   502  0.000000000E+00  0.000000000E+00 -1.057251133E+02  1.057251133E+02  0.000000000E+00  0.00000E+00  9.000E+00
      25     1     1     2     0     0 -1.498418744E+02 -2.638519331E+00  3.612825395E+02  4.106210205E+02  1.250000000E+02  0.00000E+00  9.000E+00
      25     1     1     2     0     0  2.300684924E+02  1.640037231E+01  1.438434747E+02  2.991929622E+02  1.250000000E+02  0.00000E+00  9.000E+00
      -1     1     1     2     0   502 -8.022661802E+01 -1.376185298E+01  4.865217075E+02  4.932839656E+02  7.629394531E-06  0.00000E+00  9.000E+00
#rwgt            1           1   3.6711102795064718E-002           2      237855           0
</event>
<event>
      5   9999  3.79277E-02  3.58622E+01 -1.00000E+00  1.47844E-01
      21    -1     0     0   502   511  0.000000000E+00  0.000000000E+00  6.038530656E+02  6.038530656E+02  0.000000000E+00  0.00000E+00  9.000E+00
      21    -1     0     0   501   502  0.000000000E+00  0.000000000E+00 -1.370824378E+02  1.370824378E+02  0.000000000E+00  0.00000E+00  9.000E+00
      25     1     1     2     0     0  1.721820720E+02 -4.404199506E+01  1.931951396E+02  2.907502798E+02  1.250000000E+02  0.00000E+00  9.000E+00
      25     1     1     2     0     0 -2.079572531E+02  4.653926026E+01  8.968700891E+01  2.628324208E+02  1.250000000E+02  0.00000E+00  9.000E+00
      21     1     1     2   501   511  3.577518105E+01 -2.497265194E+00  1.838884793E+02  1.873528028E+02  2.697398305E-06  0.00000E+00  9.000E+00
#rwgt            1           1   3.2191728982446849E-002           2      237884           0
</event>
<event>
      5   9999  3.79277E-02  1.02966E+02 -1.00000E+00  1.23260E-01
       2    -1     0     0   502     0  0.000000000E+00  0.000000000E+00  4.744782677E+02  4.744782677E+02  0.000000000E+00  0.00000E+00  9.000E+00
      21    -1     0     0   501   502  0.000000000E+00  0.000000000E+00 -1.741902292E+02  1.741902292E+02  0.000000000E+00  0.00000E+00  9.000E+00
      25     1     1     2     0     0 -2.732392159E+01 -1.484765719E+02  1.223343443E+02  2.310467072E+02  1.250000000E+02  0.00000E+00  9.000E+00
      25     1     1     2     0     0 -2.114083664E+01  2.393234329E+02  1.008845726E+02  2.890075042E+02  1.250000000E+02  0.00000E+00  9.000E+00
       2     1     1     2   501     0  4.846475823E+01 -9.084686096E+01  7.706912161E+01  1.286142855E+02  1.348699152E-06  0.00000E+00  9.000E+00
#rwgt            2          18   6.3948539961361801E-005           2      238307           0
</event>
<event>
      5   9999  3.79277E-02  3.20888E+01 -1.00000E+00  1.51037E-01
      21    -1     0     0   502   501  0.000000000E+00  0.000000000E+00  2.505255930E+02  2.505255930E+02  0.000000000E+00  0.00000E+00  9.000E+00
      21    -1     0     0   511   502  0.000000000E+00  0.000000000E+00 -3.078371648E+02  3.078371648E+02  0.000000000E+00  0.00000E+00  9.000E+00
      25     1     1     2     0     0  1.880627962E+02 -4.125841784E+01 -1.036011434E+02  2.518492988E+02  1.250000000E+02  0.00000E+00  9.000E+00
      25     1     1     2     0     0 -2.194441158E+02  4.795967785E+01  7.022437923E+01  2.664813579E+02  1.250000000E+02  0.00000E+00  9.000E+00
      21     1     1     2   511   501  3.138131963E+01 -6.701260014E+00 -2.393480754E+01  4.003210111E+01  4.768371582E-07  0.00000E+00  9.000E+00
#rwgt            1           1   3.6052669110037509E-002           2      238326           0
</event>
<event>
      5   9999  3.79277E-02  8.45082E+01 -1.00000E+00  1.27208E-01
      21    -1     0     0   502   501  0.000000000E+00  0.000000000E+00  3.226803199E+02  3.226803199E+02  0.000000000E+00  0.00000E+00  9.000E+00
      21    -1     0     0   501   512  0.000000000E+00  0.000000000E+00 -1.065667366E+03  1.065667366E+03  0.000000000E+00  0.00000E+00  9.000E+00
      25     1     1     2     0     0  9.083669077E+00  1.711529697E+01 -3.229733788E+02  3.468605625E+02  1.250000000E+02  0.00000E+00  9.000E+00
      25     1     1     2     0     0 -4.383978170E+01  5.991487008E+01  2.910914197E+02  3.253781381E+02  1.250000000E+02  0.00000E+00  9.000E+00
      21     1     1     2   502   512  3.475611262E+01 -7.703016705E+01 -7.111050868E+02  7.161089850E+02  1.525878906E-05  0.00000E+00  9.000E+00
#rwgt            1           1   5.2152674019129437E-002           2      238574           0
</event>
<event>
      5   9999  3.79277E-02  3.01160E+01 -1.00000E+00  1.52924E-01
      21    -1     0     0   502   501  0.000000000E+00  0.000000000E+00  9.193506453E+01  9.193506453E+01  0.000000000E+00  0.00000E+00  9.000E+00
      21    -1     0     0   501   511  0.000000000E+00  0.000000000E+00 -9.698643777E+02  9.698643777E+02  0.000000000E+00  0.00000E+00  9.000E+00
      25     1     1     2     0     0 -6.928867227E+01  9.260254563E+01 -1.389145006E+02  2.197689469E+02  1.250000000E+02  0.00000E+00  9.000E+00
      25     1     1     2     0     0  9.940422544E+01 -9.244356636E+01 -1.153054663E+02  2.175944934E+02  1.250000000E+02  0.00000E+00  9.000E+00
      21     1     1     2   502   511 -3.011555317E+01 -1.589792737E-01 -6.237093463E+02  6.244360019E+02  7.629394531E-06  0.00000E+00  9.000E+00
#rwgt            1           1   4.1696609829725666E-002           2      238674           0
</event>
<event>
      5   9999  3.79277E-02  4.71615E+01 -1.00000E+00  1.40539E-01
      21    -1     0     0   502   501  0.000000000E+00  0.000000000E+00  5.352991085E+02  5.352991085E+02  0.000000000E+00  0.00000E+00  9.000E+00
      21    -1     0     0   512   502  0.000000000E+00  0.000000000E+00 -9.067261662E+01  9.067261662E+01  0.000000000E+00  0.00000E+00  9.000E+00
      25     1     1     2     0     0 -9.917688708E+01 -3.544440939E+01  1.146870248E+02  1.996759243E+02  1.250000000E+02  0.00000E+00  9.000E+00
      25     1     1     2     0     0  9.996475925E+01 -1.171047299E+01  3.418565902E+02  3.776519780E+02  1.250000000E+02  0.00000E+00  9.000E+00
      21     1     1     2   512   501 -7.878721710E-01  4.715488239E+01 -1.191712307E+01  4.864382281E+01  9.078709013E-07  0.00000E+00  9.000E+00
#rwgt            1           1   3.1574963333712902E-002           2      238813           0
</event>
<event>
      5   9999  3.79277E-02  1.36699E+02 -1.00000E+00  1.18015E-01
      21    -1     0     0   511   501  0.000000000E+00  0.000000000E+00  1.724859722E+02  1.724859722E+02  0.000000000E+00  0.00000E+00  9.000E+00
      21    -1     0     0   501   502  0.000000000E+00  0.000000000E+00 -9.165502809E+02  9.165502809E+02  0.000000000E+00  0.00000E+00  9.000E+00
      25     1     1     2     0     0 -5.767602661E+00  4.342307097E+01 -2.230925016E+01  1.343187663E+02  1.250000000E+02  0.00000E+00  9.000E+00
      25     1     1     2     0     0  7.682991445E+01  7.335316239E+01 -7.865261890E+02  8.034500409E+02  1.250000000E+02  0.00000E+00  9.000E+00
      21     1     1     2   511   502 -7.106231179E+01 -1.167762334E+02  6.477113053E+01  1.512674459E+02  4.473129043E-06  0.00000E+00  9.000E+00
#rwgt            1           1   4.5935617690508655E-002           2      238895           0
</event>
<event>
      5   9999  3.79277E-02  7.15554E+01 -1.00000E+00  1.30739E-01
      21    -1     0     0   502   512  0.000000000E+00  0.000000000E+00  7.613016662E+02  7.613016662E+02  0.000000000E+00  0.00000E+00  9.000E+00
      21    -1     0     0   501   502  0.000000000E+00  0.000000000E+00 -6.098448832E+01  6.098448832E+01  0.000000000E+00  0.00000E+00  9.000E+00
      25     1     1     2     0     0 -8.610462768E+01 -2.429820574E+01  1.598008205E+02  2.217334254E+02  1.250000000E+02  0.00000E+00  9.000E+00
      25     1     1     2     0     0  8.656591926E+01  9.585214595E+01  3.010518540E+02  3.506258848E+02  1.250000000E+02  0.00000E+00  9.000E+00
      21     1     1     2   501   512 -4.612915807E-01 -7.155394021E+01  2.394645033E+02  2.499268443E+02  2.697398305E-06  0.00000E+00  9.000E+00
#rwgt            1           1   3.5695833238361091E-002           2      239041           0
</event>
<event>
      5   9999  3.79277E-02  7.23113E+01 -1.00000E+00  1.30510E-01
      21    -1     0     0   502   501  0.000000000E+00  0.000000000E+00  3.741231002E+01  3.741231002E+01  0.000000000E+00  0.00000E+00  9.000E+00
      21    -1     0     0   501   511  0.000000000E+00  0.000000000E+00 -1.939175098E+03  1.939175098E+03  0.000000000E+00  0.00000E+00  9.000E+00
      25     1     1     2     0     0  1.229117622E+01 -1.463646425E+02 -1.098668622E+03  1.115469150E+03  1.250000000E+02  0.00000E+00  9.000E+00
      25     1     1     2     0     0 -6.166564193E+01  9.353390977E+01 -2.369895871E+02  2.904140287E+02  1.250000000E+02  0.00000E+00  9.000E+00
      21     1     1     2   502   511  4.937446571E+01  5.283073270E+01 -5.661045786E+02  5.707042300E+02  1.078959322E-05  0.00000E+00  9.000E+00
#rwgt            1           1   1.4796546990092247E-002           2      239135           0
</event>
<event>
      5   9999  3.79277E-02  1.02577E+02 -1.00000E+00  1.23333E-01
      21    -1     0     0   502   501  0.000000000E+00  0.000000000E+00  1.295394164E+03  1.295394164E+03  0.000000000E+00  0.00000E+00  9.000E+00
      21    -1     0     0   512   502  0.000000000E+00  0.000000000E+00 -4.323194022E+02  4.323194022E+02  0.000000000E+00  0.00000E+00  9.000E+00
      25     1     1     2     0     0  1.855525345E+02 -1.628546248E+02  7.414517603E+01  2.864853906E+02  1.250000000E+02  0.00000E+00  9.000E+00
      25     1     1     2     0     0 -2.623266149E+02  9.482712142E+01  1.085344624E+03  1.127566135E+03  1.250000000E+02  0.00000E+00  9.000E+00
      21     1     1     2   512   501  7.677408045E+01  6.802750339E+01 -2.964150385E+02  3.136620405E+02  8.529922400E-06  0.00000E+00  9.000E+00
#rwgt            1           1   3.8871403542965401E-002           2      239308           0
</event>
<event>
      5   9999  3.79277E-02  1.25508E+02 -1.00000E+00  1.19547E-01
      21    -1     0     0   502   511  0.000000000E+00  0.000000000E+00  4.188041222E+02  4.188041222E+02  0.000000000E+00  0.00000E+00  9.000E+00
      21    -1     0     0   501   502  0.000000000E+00  0.000000000E+00 -3.205778864E+02  3.205778864E+02  0.000000000E+00  0.00000E+00  9.000E+00
      25     1     1     2     0     0 -1.284029827E+02  1.714090879E+02 -1.141066315E+02  2.729720219E+02  1.250000000E+02  0.00000E+00  9.000E+00
      25     1     1     2     0     0  3.613473914E+01 -2.564898118E+02  1.692628030E+02  3.337179040E+02  1.250000000E+02  0.00000E+00  9.000E+00
      21     1     1     2   501   511  9.226824358E+01  8.508072394E+01  4.307006433E+01  1.326920827E+02  2.821006671E-06  0.00000E+00  9.000E+00
#rwgt            1           1   3.3413384786221988E-002           2      239421           0
</event>
<event>
      5   9999  3.79277E-02  1.18053E+02 -1.00000E+00  1.20671E-01
      21    -1     0     0   512   501  0.000000000E+00  0.000000000E+00  3.129915880E+02  3.129915880E+02  0.000000000E+00  0.00000E+00  9.000E+00
      21    -1     0     0   501   502  0.000000000E+00  0.000000000E+00 -3.056657594E+02  3.056657594E+02  0.000000000E+00  0.00000E+00  9.000E+00
      25     1     1     2     0     0  1.902843473E+02 -9.241499785E+01 -1.056573682E+02  2.674642857E+02  1.250000000E+02  0.00000E+00  9.000E+00
      25     1     1     2     0     0 -1.707339961E+02 -2.400813329E+01  5.651831493E+01  2.203311322E+02  1.250000000E+02  0.00000E+00  9.000E+00
      21     1     1     2   512   502 -1.955035123E+01  1.164231311E+02  5.646488198E+01  1.308619295E+02  1.651812370E-06  0.00000E+00  9.000E+00
#rwgt            1           1   3.4304106156725696E-002           2      239557           0
</event>
<event>
      5   9999  3.79277E-02  1.56265E+02 -1.00000E+00  1.15694E-01
      21    -1     0     0   502   511  0.000000000E+00  0.000000000E+00  5.441512653E+02  5.441512653E+02  0.000000000E+00  0.00000E+00  9.000E+00
      21    -1     0     0   501   502  0.000000000E+00  0.000000000E+00 -1.804776889E+02  1.804776889E+02  0.000000000E+00  0.00000E+00  9.000E+00
      25     1     1     2     0     0 -2.222476167E+00 -1.616110388E+02  2.923543149E+02  3.566778837E+02  1.250000000E+02  0.00000E+00  9.000E+00
      25     1     1     2     0     0  1.017869074E+02  4.117117767E+01 -4.591949077E+01  1.725955968E+02  1.250000000E+02  0.00000E+00  9.000E+00
      21     1     1     2   501   511 -9.956443126E+01  1.204398611E+02  1.172387522E+02  1.953554738E+02  1.907348633E-06  0.00000E+00  9.000E+00
#rwgt            1           1   3.9110641428591379E-002           2      239634           0
</event>
<event>
      5   9999  3.79277E-02  1.90602E+01 -1.00000E+00  1.68112E-01
      21    -1     0     0   512   501  0.000000000E+00  0.000000000E+00  3.848163934E+02  3.848163934E+02  0.000000000E+00  0.00000E+00  9.000E+00
      21    -1     0     0   501   502  0.000000000E+00  0.000000000E+00 -3.325937720E+02  3.325937720E+02  0.000000000E+00  0.00000E+00  9.000E+00
      25     1     1     2     0     0  6.262060266E+01 -7.393295581E+01 -2.366366435E+02  2.846213675E+02  1.250000000E+02  0.00000E+00  9.000E+00
      25     1     1     2     0     0 -7.665683434E+01  8.682769326E+01  2.976223552E+01  1.729916450E+02  1.250000000E+02  0.00000E+00  9.000E+00
      21     1     1     2   512   502  1.403623168E+01 -1.289473746E+01  2.590970293E+02  2.597971529E+02  3.814697266E-06  0.00000E+00  9.000E+00
#rwgt            1           1   2.9421462357967616E-002           2      239716           0
</event>
<event>
      5   9999  3.79277E-02  2.52604E+01 -1.00000E+00  1.58415E-01
      21    -1     0     0   502   501  0.000000000E+00  0.000000000E+00  7.917388845E+01  7.917388845E+01  0.000000000E+00  0.00000E+00  9.000E+00
      21    -1     0     0   501   511  0.000000000E+00  0.000000000E+00 -8.151678160E+02  8.151678160E+02  0.000000000E+00  0.00000E+00  9.000E+00
      25     1     1     2     0     0 -4.988292041E+01  1.833554233E+02 -2.813679661E+02  3.618016713E+02  1.250000000E+02  0.00000E+00  9.000E+00
      25     1     1     2     0     0  3.582330316E+01 -2.043414340E+02 -3.549492212E+02  4.297123227E+02  1.250000000E+02  0.00000E+00  9.000E+00
      21     1     1     2   502   511  1.405961725E+01  2.098601073E+01 -9.967674025E+01  1.028277104E+02  0.000000000E+00  0.00000E+00  9.000E+00
#rwgt            1           1  0.30429303251112411                2      239921           0
</event>
<event>
      5   9999  3.79277E-02  6.40523E+01 -1.00000E+00  1.33204E-01
      21    -1     0     0   502   501  0.000000000E+00  0.000000000E+00  6.083702313E+01  6.083702313E+01  0.000000000E+00  0.00000E+00  9.000E+00
      21    -1     0     0   512   502  0.000000000E+00  0.000000000E+00 -1.263910486E+03  1.263910486E+03  0.000000000E+00  0.00000E+00  9.000E+00
      25     1     1     2     0     0  8.175797303E+01 -1.247258597E+02 -4.529784062E+02  4.930064327E+02  1.250000000E+02  0.00000E+00  9.000E+00
      25     1     1     2     0     0 -6.334864791E+01  1.860756412E+02 -3.140194506E+02  3.909864585E+02  1.250000000E+02  0.00000E+00  9.000E+00
      21     1     1     2   512   501 -1.840932511E+01 -6.134978151E+01 -4.360756065E+02  4.407546183E+02  0.000000000E+00  0.00000E+00  9.000E+00
#rwgt            1           1   4.5281401597448319E-002           2      240090           0
</event>
<event>
      5   9999  3.79277E-02  2.45120E+01 -1.00000E+00  1.59395E-01
       2    -1     0     0   502     0  0.000000000E+00  0.000000000E+00  7.914116267E+02  7.914116267E+02  0.000000000E+00  0.00000E+00  9.000E+00
      21    -1     0     0   501   502  0.000000000E+00  0.000000000E+00 -2.615510214E+02  2.615510214E+02  0.000000000E+00  0.00000E+00  9.000E+00
      25     1     1     2     0     0  3.062209416E-01 -9.556662681E+00 -2.041790761E+02  2.395944880E+02  1.250000000E+02  0.00000E+00  9.000E+00
      25     1     1     2     0     0  1.088857632E+01 -1.224962580E+01  6.130185729E+01  1.401839225E+02  1.250000000E+02  0.00000E+00  9.000E+00
       2     1     1     2   501     0 -1.119479727E+01  2.180628848E+01  6.727378241E+02  6.731842376E+02  7.629394531E-06  0.00000E+00  9.000E+00
#rwgt            1           1   2.8626770034518054E-003           2      240169           0
</event>
<event>
      5   9999  3.79277E-02  2.81724E+01 -1.00000E+00  1.54960E-01
      21    -1     0     0   511   501  0.000000000E+00  0.000000000E+00  7.559341981E+02  7.559341981E+02  0.000000000E+00  0.00000E+00  9.000E+00
      21    -1     0     0   501   502  0.000000000E+00  0.000000000E+00 -1.416148932E+02  1.416148932E+02  0.000000000E+00  0.00000E+00  9.000E+00
      25     1     1     2     0     0 -1.344687416E+02 -6.676045837E+01 -4.691544319E+01  2.009100796E+02  1.250000000E+02  0.00000E+00  9.000E+00
      25     1     1     2     0     0  1.289197762E+02  3.913993716E+01  4.946570196E+02  5.276957556E+02  1.250000000E+02  0.00000E+00  9.000E+00
      21     1     1     2   511   502  5.548965422E+00  2.762052121E+01  1.665777284E+02  1.689432562E+02  0.000000000E+00  0.00000E+00  9.000E+00
#rwgt            1           1   4.3149586896967795E-002           2      240298           0
</event>
<event>
      5   9999  3.79277E-02  2.50728E+01 -1.00000E+00  1.58656E-01
      21    -1     0     0   502   501  0.000000000E+00  0.000000000E+00  1.048126594E+03  1.048126594E+03  0.000000000E+00  0.00000E+00  9.000E+00
      21    -1     0     0   512   502  0.000000000E+00  0.000000000E+00 -1.812042071E+02  1.812042071E+02  0.000000000E+00  0.00000E+00  9.000E+00
      25     1     1     2     0     0  1.539814026E+01 -2.845915500E+02  5.694875870E+02  6.489765518E+02  1.250000000E+02  0.00000E+00  9.000E+00
      25     1     1     2     0     0  1.876721149E+00  3.027636658E+02  3.755408871E+02  4.983225033E+02  1.250000000E+02  0.00000E+00  9.000E+00
      21     1     1     2   512   501 -1.727486141E+01 -1.817211590E+01 -7.810608672E+01  8.203174638E+01  2.523185073E-06  0.00000E+00  9.000E+00
#rwgt            1           1   3.5712418461506433E-002           2      240569           0
</event>
<event>
      5   9999  3.79277E-02  2.39922E+01 -1.00000E+00  1.60101E-01
      21    -1     0     0   502   501  0.000000000E+00  0.000000000E+00  2.124188508E+03  2.124188508E+03  0.000000000E+00  0.00000E+00  9.000E+00
      21    -1     0     0   511   502  0.000000000E+00  0.000000000E+00 -3.992852067E+01  3.992852067E+01  0.000000000E+00  0.00000E+00  9.000E+00
      25     1     1     2     0     0 -1.649510827E+02 -1.780042360E+02  9.039412673E+02  9.442611834E+02  1.250000000E+02  0.00000E+00  9.000E+00
      25     1     1     2     0     0  1.455126906E+02  1.920675002E+02  1.147686757E+03  1.179353111E+03  1.250000000E+02  0.00000E+00  9.000E+00
      21     1     1     2   511   501  1.943839206E+01 -1.406326417E+01  3.263196276E+01  4.050273421E+01  4.768371582E-07  0.00000E+00  9.000E+00
#rwgt            1           1  0.12368765234333651                2      240847           0
</event>
<event>
      5   9999  3.79277E-02  9.66557E+00 -1.00000E+00  1.97480E-01
      21    -1     0     0   502   501  0.000000000E+00  0.000000000E+00  1.840464101E+02  1.840464101E+02  0.000000000E+00  0.00000E+00  9.000E+00
      21    -1     0     0   512   502  0.000000000E+00  0.000000000E+00 -4.109076817E+02  4.109076817E+02  0.000000000E+00  0.00000E+00  9.000E+00
      25     1     1     2     0     0 -1.362607298E+02 -5.305811476E+00 -5.390269875E+01  1.926801470E+02  1.250000000E+02  0.00000E+00  9.000E+00
      25     1     1     2     0     0  1.350481969E+02 -4.283398703E+00  4.060284695E+01  1.884939102E+02  1.250000000E+02  0.00000E+00  9.000E+00
      21     1     1     2   512   501  1.212532902E+00  9.589210178E+00 -2.135614198E+02  2.137800346E+02  0.000000000E+00  0.00000E+00  9.000E+00
#rwgt            1           1   1.6590914240498363E-002           2      241096           0
</event>
<event>
      5   9999  3.79277E-02  1.74219E+01 -1.00000E+00  1.71471E-01
      21    -1     0     0   502   501  0.000000000E+00  0.000000000E+00  1.460595490E+03  1.460595490E+03  0.000000000E+00  0.00000E+00  9.000E+00
      21    -1     0     0   501   511  0.000000000E+00  0.000000000E+00 -5.775961942E+01  5.775961942E+01  0.000000000E+00  0.00000E+00  9.000E+00
      25     1     1     2     0     0 -7.883147102E+01  1.276736801E+02  9.452758902E+02  9.652390782E+02  1.250000000E+02  0.00000E+00  9.000E+00
      25     1     1     2     0     0  6.232892473E+01 -1.332583258E+02  4.842112771E+02  5.212755865E+02  1.250000000E+02  0.00000E+00  9.000E+00
      21     1     1     2   502   511  1.650254628E+01  5.584645703E+00 -2.665129672E+01  3.184044469E+01  2.023048729E-06  0.00000E+00  9.000E+00
#rwgt            1           1   5.6570228227230547E-002           2      241398           0
</event>
<event>
      5   9999  3.79277E-02  9.93596E+01 -1.00000E+00  1.23954E-01
      21    -1     0     0   512   501  0.000000000E+00  0.000000000E+00  3.942536184E+02  3.942536184E+02  0.000000000E+00  0.00000E+00  9.000E+00
      21    -1     0     0   501   502  0.000000000E+00  0.000000000E+00 -2.299813772E+02  2.299813772E+02  0.000000000E+00  0.00000E+00  9.000E+00
      25     1     1     2     0     0 -1.688481758E+02 -1.383974006E+02 -2.030727734E+01  2.523904366E+02  1.250000000E+02  0.00000E+00  9.000E+00
      25     1     1     2     0     0  6.976123906E+01  1.457534417E+02  6.085927528E+01  2.131655404E+02  1.250000000E+02  0.00000E+00  9.000E+00
      21     1     1     2   512   502  9.908693673E+01 -7.356041036E+00  1.237202433E+02  1.586790187E+02  3.015782986E-06  0.00000E+00  9.000E+00
#rwgt            1           1   3.3816422767806990E-002           2      241785           0
</event>
<event>
      5   9999  3.79277E-02  3.31317E+01 -1.00000E+00  1.50104E-01
      21    -1     0     0   502   501  0.000000000E+00  0.000000000E+00  1.388877427E+02  1.388877427E+02  0.000000000E+00  0.00000E+00  9.000E+00
      21    -1     0     0   501   511  0.000000000E+00  0.000000000E+00 -3.353018065E+02  3.353018065E+02  0.000000000E+00  0.00000E+00  9.000E+00
      25     1     1     2     0     0 -6.180737217E+01  1.499112886E+02 -5.463265429E+01  2.119039231E+02  1.250000000E+02  0.00000E+00  9.000E+00
      25     1     1     2     0     0  3.237213116E+01 -1.347035317E+02 -1.113203481E+02  2.172791206E+02  1.250000000E+02  0.00000E+00  9.000E+00
      21     1     1     2   502   511  2.943524101E+01 -1.520775686E+01 -3.046106140E+01  4.500650557E+01  5.840038640E-07  0.00000E+00  9.000E+00
#rwgt            1           1   3.1976183832340806E-002           2      241989           0
</event>
<event>
      5   9999  3.79277E-02  4.16052E+01 -1.00000E+00  1.43788E-01
      21    -1     0     0   502   501  0.000000000E+00  0.000000000E+00  4.485463431E+02  4.485463431E+02  0.000000000E+00  0.00000E+00  9.000E+00
      21    -1     0     0   501   512  0.000000000E+00  0.000000000E+00 -7.130257003E+02  7.130257003E+02  0.000000000E+00  0.00000E+00  9.000E+00
      25     1     1     2     0     0  9.300133077E+01 -2.846911202E+02 -5.534982515E+02  6.416257444E+02  1.250000000E+02  0.00000E+00  9.000E+00
      25     1     1     2     0     0 -1.154662464E+02  3.197099358E+02  3.068432436E+02  4.746837614E+02  1.250000000E+02  0.00000E+00  9.000E+00
      21     1     1     2   502   512  2.246491568E+01 -3.501881566E+01 -1.782434941E+01  4.526253770E+01  2.384185791E-07  0.00000E+00  9.000E+00
#rwgt            1           1   4.9462620025765867E-002           2      242248           0
</event>
<event>
      5   9999  3.79277E-02  5.08255E+01 -1.00000E+00  1.38671E-01
      21    -1     0     0   502   501  0.000000000E+00  0.000000000E+00  4.367141335E+01  4.367141335E+01  0.000000000E+00  0.00000E+00  9.000E+00
      21    -1     0     0   501   511  0.000000000E+00  0.000000000E+00 -8.211431881E+02  8.211431881E+02  0.000000000E+00  0.00000E+00  9.000E+00
      25     1     1     2     0     0  5.566963085E+01  9.971955430E+01 -2.711317561E+02  3.196568887E+02  1.250000000E+02  0.00000E+00  9.000E+00
      25     1     1     2     0     0 -8.059446198E+00 -8.192917350E+01 -3.468809989E+02  3.777946155E+02  1.250000000E+02  0.00000E+00  9.000E+00
      21     1     1     2   502   511 -4.761018465E+01 -1.779038080E+01 -1.594590198E+02  1.673630973E+02  2.697398305E-06  0.00000E+00  9.000E+00
#rwgt            1           1   2.5487352994870278E-002           2      242466           0
</event>
<event>
      5   9999  3.79277E-02  7.32444E+01 -1.00000E+00  1.30232E-01
      21    -1     0     0   502   501  0.000000000E+00  0.000000000E+00  3.350328836E+02  3.350328836E+02  0.000000000E+00  0.00000E+00  9.000E+00
      21    -1     0     0   512   502  0.000000000E+00  0.000000000E+00 -2.885903345E+02  2.885903345E+02  0.000000000E+00  0.00000E+00  9.000E+00
      25     1     1     2     0     0  1.250084434E+02 -7.085180295E+01 -8.783373510E+01  2.097304316E+02  1.250000000E+02  0.00000E+00  9.000E+00
      25     1     1     2     0     0 -1.681336384E+02  1.164911351E+01  2.180503705E+02  3.026145837E+02  1.250000000E+02  0.00000E+00  9.000E+00
      21     1     1     2   512   501  4.312519504E+01  5.920268944E+01 -8.377408628E+01  1.112782028E+02  9.536743164E-07  0.00000E+00  9.000E+00
#rwgt            1           1   5.2963643333613954E-002           2      242593           0
</event>
<event>
      5   9999  3.79277E-02  3.13025E+01 -1.00000E+00  1.51769E-01
      21    -1     0     0   511   501  0.000000000E+00  0.000000000E+00  4.154187444E+01  4.154187444E+01  0.000000000E+00  0.00000E+00  9.000E+00
      21    -1     0     0   501   502  0.000000000E+00  0.000000000E+00 -1.340261537E+03  1.340261537E+03  0.000000000E+00  0.00000E+00  9.000E+00
      25     1     1     2     0     0  5.678909299E+01  2.535161124E+01 -1.100492661E+03  1.109313663E+03  1.250000000E+02  0.00000E+00  9.000E+00
      25     1     1     2     0     0 -8.748158588E+01 -1.920222743E+01 -1.779807554E+02  2.352103371E+02  1.250000000E+02  0.00000E+00  9.000E+00
      21     1     1     2   511   502  3.069249289E+01 -6.149383808E+00 -2.024624597E+01  3.727941144E+01  6.743495762E-07  0.00000E+00  9.000E+00
#rwgt            1           1   3.6334325323218279E-002           2      242667           0
</event>
<event>
      5   9999  3.79277E-02  3.09054E+01 -1.00000E+00  1.52148E-01
      21    -1     0     0   502   501  0.000000000E+00  0.000000000E+00  1.255206766E+03  1.255206766E+03  0.000000000E+00  0.00000E+00  9.000E+00
      21    -1     0     0   501   512  0.000000000E+00  0.000000000E+00 -1.621263798E+02  1.621263798E+02  0.000000000E+00  0.00000E+00  9.000E+00
      25     1     1     2     0     0 -1.491020019E+02 -5.940795397E+01  8.415075793E+02  8.657486460E+02  1.250000000E+02  0.00000E+00  9.000E+00
      25     1     1     2     0     0  1.796007438E+02  5.441084290E+01  3.677470207E+02  4.313697234E+02  1.250000000E+02  0.00000E+00  9.000E+00
      21     1     1     2   502   512 -3.049874181E+01  4.997111068E+00 -1.161742141E+02  1.202147761E+02  3.568322551E-06  0.00000E+00  9.000E+00
#rwgt            1           1   3.9194225014443654E-002           2      242891           0
</event>
<event>
      5   9999  3.79277E-02  5.40230E+00 -1.00000E+00  2.32791E-01
      21    -1     0     0   502   501  0.000000000E+00  0.000000000E+00  2.650711971E+02  2.650711971E+02  0.000000000E+00  0.00000E+00  9.000E+00
      21    -1     0     0   511   502  0.000000000E+00  0.000000000E+00 -4.394745442E+02  4.394745442E+02  0.000000000E+00  0.00000E+00  9.000E+00
      25     1     1     2     0     0 -6.703435567E+01 -3.021269804E+02 -6.177968474E+01  3.394348930E+02  1.250000000E+02  0.00000E+00  9.000E+00
      25     1     1     2     0     0  6.330092565E+01  3.060316384E+02 -9.959706663E+01  3.510084708E+02  1.250000000E+02  0.00000E+00  9.000E+00
      21     1     1     2   511   501  3.733430014E+00 -3.904658000E+00 -1.302659571E+01  1.410237744E+01  0.000000000E+00  0.00000E+00  9.000E+00
#rwgt            1           1   3.5452739464553289E-002           2      243140           0
</event>
<event>
      5   9999  3.79277E-02  5.36357E+01 -1.00000E+00  1.37358E-01
      21    -1     0     0   502   512  0.000000000E+00  0.000000000E+00  3.232683289E+01  3.232683289E+01  0.000000000E+00  0.00000E+00  9.000E+00
      21    -1     0     0   501   502  0.000000000E+00  0.000000000E+00 -1.720913496E+03  1.720913496E+03  0.000000000E+00  0.00000E+00  9.000E+00
      25     1     1     2     0     0  6.662949410E+01 -5.311543118E+01 -1.182965912E+03  1.192599718E+03  1.250000000E+02  0.00000E+00  9.000E+00
      25     1     1     2     0     0 -9.408800388E+01  9.918948194E+01 -3.494173635E+02  3.954852712E+02  1.250000000E+02  0.00000E+00  9.000E+00
      21     1     1     2   501   512  2.745850978E+01 -4.607405076E+01 -1.562033869E+02  1.651553389E+02  3.303624740E-06  0.00000E+00  9.000E+00
#rwgt            1           1   4.9076132263536652E-002           2      243534           0
</event>
<event>
      5   9999  3.79277E-02  3.23366E+01 -1.00000E+00  1.50811E-01
      21    -1     0     0   502   511  0.000000000E+00  0.000000000E+00  8.693199827E+02  8.693199827E+02  0.000000000E+00  0.00000E+00  9.000E+00
      21    -1     0     0   501   502  0.000000000E+00  0.000000000E+00 -1.001664472E+02  1.001664472E+02  0.000000000E+00  0.00000E+00  9.000E+00
      25     1     1     2     0     0  1.507273422E+02 -3.526257720E+01  6.755702148E+02  7.042601055E+02  1.250000000E+02  0.00000E+00  9.000E+00
      25     1     1     2     0     0 -1.408385548E+02  6.605003189E+01  4.135410039E+01  2.037971218E+02  1.250000000E+02  0.00000E+00  9.000E+00
      21     1     1     2   501   511 -9.888787468E+00 -3.078745469E+01  5.222922039E+01  6.142920271E+01  9.536743164E-07  0.00000E+00  9.000E+00
#rwgt            1           1   4.1288923211596197E-002           2      243615           0
</event>
<event>
      5   9999  3.79277E-02  2.00486E+02 -1.00000E+00  1.11610E-01
      21    -1     0     0   512   501  0.000000000E+00  0.000000000E+00  4.674903393E+02  4.674903393E+02  0.000000000E+00  0.00000E+00  9.000E+00
      21    -1     0     0   501   502  0.000000000E+00  0.000000000E+00 -1.133135677E+03  1.133135677E+03  0.000000000E+00  0.00000E+00  9.000E+00
      25     1     1     2     0     0  3.948673450E+02  5.422234438E+01 -2.726266813E+01  4.186030767E+02  1.250000000E+02  0.00000E+00  9.000E+00
      25     1     1     2     0     0 -5.489988160E+02 -1.824341223E+02 -7.477516199E+02  9.536453188E+02  1.250000000E+02  0.00000E+00  9.000E+00
      21     1     1     2   512   502  1.541314710E+02  1.282117779E+02  1.093689503E+02  2.283776208E+02  1.907348633E-06  0.00000E+00  9.000E+00
#rwgt            1           1   5.7142009533164638E-002           2      243756           0
</event>
<event>
      5   9999  3.79277E-02  3.85651E+02 -1.00000E+00  1.02165E-01
      21    -1     0     0   511   501  0.000000000E+00  0.000000000E+00  7.410249493E+02  7.410249493E+02  0.000000000E+00  0.00000E+00  9.000E+00
      21    -1     0     0   501   502  0.000000000E+00  0.000000000E+00 -4.335464386E+02  4.335464386E+02  0.000000000E+00  0.00000E+00  9.000E+00
      25     1     1     2     0     0  2.512971621E+01  1.618689873E+02 -1.820072939E+02  2.749267661E+02  1.250000000E+02  0.00000E+00  9.000E+00
      25     1     1     2     0     0 -3.152894280E+02  9.216600028E+01  1.371435018E+02  3.772735548E+02  1.250000000E+02  0.00000E+00  9.000E+00
      21     1     1     2   511   502  2.901597118E+02 -2.540349876E+02  3.523423027E+02  5.223710670E+02  6.607249480E-06  0.00000E+00  9.000E+00
#rwgt            1           1  0.13980139008019310                2      243848           0
</event>
<event>
      5   9999  3.79277E-02  5.27594E+01 -1.00000E+00  1.37757E-01
      21    -1     0     0   502   512  0.000000000E+00  0.000000000E+00  6.184016487E+02  6.184016487E+02  0.000000000E+00  0.00000E+00  9.000E+00
      21    -1     0     0   501   502  0.000000000E+00  0.000000000E+00 -9.092838703E+01  9.092838703E+01  0.000000000E+00  0.00000E+00  9.000E+00
      25     1     1     2     0     0 -4.356659475E+01 -9.141116850E+01  4.938621162E+01  1.682796714E+02  1.250000000E+02  0.00000E+00  9.000E+00
      25     1     1     2     0     0  7.919068672E+01  1.303274258E+02  4.096574924E+02  4.546434470E+02  1.250000000E+02  0.00000E+00  9.000E+00
      21     1     1     2   501   512 -3.562409197E+01 -3.891625730E+01  6.842955761E+01  8.640691735E+01  9.536743164E-07  0.00000E+00  9.000E+00
#rwgt            1           1   4.9154144966191249E-002           2      243914           0
</event>
<event>
      5   9999  3.79277E-02  2.79587E+01 -1.00000E+00  1.55196E-01
      21    -1     0     0   511   501  0.000000000E+00  0.000000000E+00  9.833480958E+01  9.833480958E+01  0.000000000E+00  0.00000E+00  9.000E+00
      21    -1     0     0   501   502  0.000000000E+00  0.000000000E+00 -8.343184569E+02  8.343184569E+02  0.000000000E+00  0.00000E+00  9.000E+00
      25     1     1     2     0     0 -1.235708098E+02 -8.155999689E+01 -6.745774047E+02  7.018557210E+02  1.250000000E+02  0.00000E+00  9.000E+00
      25     1     1     2     0     0  1.178279025E+02  5.419750700E+01 -8.013233067E+01  1.971470892E+02  1.250000000E+02  0.00000E+00  9.000E+00
      21     1     1     2   511   502  5.742907256E+00  2.736248989E+01  1.872608803E+01  3.365045630E+01  8.920806376E-07  0.00000E+00  9.000E+00
#rwgt            1           1   3.6249731608600164E-002           2      244050           0
</event>
<event>
      5   9999  3.79277E-02  3.46988E+01 -1.00000E+00  1.48776E-01
      21    -1     0     0   502   501  0.000000000E+00  0.000000000E+00  2.032604269E+02  2.032604269E+02  0.000000000E+00  0.00000E+00  9.000E+00
      21    -1     0     0   512   502  0.000000000E+00  0.000000000E+00 -3.331608656E+02  3.331608656E+02  0.000000000E+00  0.00000E+00  9.000E+00
      25     1     1     2     0     0  6.023603499E+01  1.848385796E+02  2.467150549E+01  2.324378704E+02  1.250000000E+02  0.00000E+00  9.000E+00
      25     1     1     2     0     0 -3.010963256E+01 -1.676221506E+02 -8.788008811E+01  2.288049065E+02  1.250000000E+02  0.00000E+00  9.000E+00
      21     1     1     2   512   501 -3.012640243E+01 -1.721642898E+01 -6.669185607E+01  7.517851566E+01  1.907348633E-06  0.00000E+00  9.000E+00
#rwgt            1           1   4.2141198915278164E-002           2      244283           0
</event>
<event>
      5   9999  3.79277E-02  1.10009E+01 -1.00000E+00  1.91087E-01
      21    -1     0     0   502   501  0.000000000E+00  0.000000000E+00  5.167764344E+01  5.167764344E+01  0.000000000E+00  0.00000E+00  9.000E+00
       1    -1     0     0   501     0  0.000000000E+00  0.000000000E+00 -1.561501159E+03  1.561501159E+03  0.000000000E+00  0.00000E+00  9.000E+00
      25     1     1     2     0     0 -1.248998603E+02  2.115937335E+01 -1.496790343E+02  2.325435604E+02  1.250000000E+02  0.00000E+00  9.000E+00
      25     1     1     2     0     0  1.216461060E+02 -3.166809577E+01 -7.604240061E+02  7.808138783E+02  1.250000000E+02  0.00000E+00  9.000E+00
       1     1     1     2   502     0  3.253754297E+00  1.050872242E+01 -5.997204752E+02  5.998213639E+02  7.629394531E-06  0.00000E+00  9.000E+00
#rwgt            1           1   2.3254417956527391E-002           2      244363           0
</event>
<event>
      5   9999  3.79277E-02  7.48745E+01 -1.00000E+00  1.29757E-01
      21    -1     0     0   502   501  0.000000000E+00  0.000000000E+00  6.574376379E+02  6.574376379E+02  0.000000000E+00  0.00000E+00  9.000E+00
      21    -1     0     0   511   502  0.000000000E+00  0.000000000E+00 -1.336817970E+02  1.336817970E+02  0.000000000E+00  0.00000E+00  9.000E+00
      25     1     1     2     0     0 -1.424241636E+02  1.286213716E+02  9.166181746E+01  2.466880386E+02  1.250000000E+02  0.00000E+00  9.000E+00
      25     1     1     2     0     0  6.977361785E+01 -1.467346899E+02  4.216363748E+02  4.688300967E+02  1.250000000E+02  0.00000E+00  9.000E+00
      21     1     1     2   511   501  7.265054572E+01  1.811331824E+01  1.045764853E+01  7.560129961E+01  5.960464478E-07  0.00000E+00  9.000E+00
#rwgt            1           1   4.4371938999341158E-002           2      244604           0
</event>
<event>
      5   9999  3.79277E-02  8.97936E+01 -1.00000E+00  1.25968E-01
      21    -1     0     0   502   501  0.000000000E+00  0.000000000E+00  5.944519157E+02  5.944519157E+02  0.000000000E+00  0.00000E+00  9.000E+00
      -5    -1     0     0     0   502  0.000000000E+00  0.000000000E+00 -5.825069410E+01  5.825069410E+01  0.000000000E+00  0.00000E+00  9.000E+00
      25     1     1     2     0     0  4.550128169E+01 -1.180657094E+01  1.170183664E+02  1.775614255E+02  1.250000000E+02  0.00000E+00  9.000E+00
      25     1     1     2     0     0  4.262266697E+01 -5.429048814E+00  2.779893437E+02  3.078136474E+02  1.250000000E+02  0.00000E+00  9.000E+00
      -5     1     1     2     0   501 -8.812394866E+01  1.723561976E+01  1.411935115E+02  1.673275369E+02  1.907348633E-06  0.00000E+00  9.000E+00
#rwgt            1           1   1.4146589534268651E-002           2      244789           0
</event>
<event>
      5   9999  3.79277E-02  8.14879E+00 -1.00000E+00  2.06630E-01
       4    -1     0     0   502     0  0.000000000E+00  0.000000000E+00  2.121903371E+02  2.121903371E+02  0.000000000E+00  0.00000E+00  9.000E+00
      21    -1     0     0   501   502  0.000000000E+00  0.000000000E+00 -1.914292647E+02  1.914292647E+02  0.000000000E+00  0.00000E+00  9.000E+00
      25     1     1     2     0     0 -3.831502555E+00  7.521485618E+01 -2.794614562E+01  1.485864801E+02  1.250000000E+02  0.00000E+00  9.000E+00
      25     1     1     2     0     0  1.127121419E+01 -7.853952506E+01 -4.978686308E+01  1.562025256E+02  1.250000000E+02  0.00000E+00  9.000E+00
       4     1     1     2   501     0 -7.439711639E+00  3.324668879E+00  9.849408108E+01  9.883059618E+01  0.000000000E+00  0.00000E+00  9.000E+00
#rwgt            1           1   8.5758060021255952E-002           2      244944           0
</event>
<event>
      5   9999  3.79277E-02  3.17169E+01 -1.00000E+00  1.51380E-01
      21    -1     0     0   502   501  0.000000000E+00  0.000000000E+00  4.590004182E+02  4.590004182E+02  0.000000000E+00  0.00000E+00  9.000E+00
      21    -1     0     0   501   511  0.000000000E+00  0.000000000E+00 -5.888095708E+02  5.888095708E+02  0.000000000E+00  0.00000E+00  9.000E+00
      25     1     1     2     0     0  8.395370922E+01 -1.751753496E+02  6.882306617E+01  2.410316221E+02  1.250000000E+02  0.00000E+00  9.000E+00
      25     1     1     2     0     0 -5.352099131E+01  1.841089126E+02  2.603782776E+02  3.466733847E+02  1.250000000E+02  0.00000E+00  9.000E+00
      21     1     1     2   502   511 -3.043271791E+01 -8.933562992E+00 -4.590104964E+02  4.601049822E+02  9.344061824E-06  0.00000E+00  9.000E+00
#rwgt            1           1   4.2150194496860992E-002           2      245232           0
</event>
<event>
      5   9999  3.79277E-02  1.74654E+01 -1.00000E+00  1.71376E-01
      21    -1     0     0   512   501  0.000000000E+00  0.000000000E+00  8.366162326E+01  8.366162326E+01  0.000000000E+00  0.00000E+00  9.000E+00
      21    -1     0     0   501   502  0.000000000E+00  0.000000000E+00 -4.758455084E+02  4.758455084E+02  0.000000000E+00  0.00000E+00  9.000E+00
      25     1     1     2     0     0  5.051714113E+01 -4.871457767E+01 -3.421252776E+01  1.473790646E+02  1.250000000E+02  0.00000E+00  9.000E+00
      25     1     1     2     0     0 -3.355552697E+01  5.287901441E+01 -3.668114470E+02  3.925529279E+02  1.250000000E+02  0.00000E+00  9.000E+00
      21     1     1     2   512   502 -1.696161416E+01 -4.164436747E+00  8.840089629E+00  1.957513915E+01  4.915124924E-07  0.00000E+00  9.000E+00
#rwgt            1           1   5.3267899836958135E-002           2      245332           0
</event>
<event>
      5   9999  3.79277E-02  2.36776E+01 -1.00000E+00  1.60539E-01
      21    -1     0     0   511   501  0.000000000E+00  0.000000000E+00  9.215781890E+01  9.215781890E+01  0.000000000E+00  0.00000E+00  9.000E+00
      21    -1     0     0   501   502  0.000000000E+00  0.000000000E+00 -1.082245278E+03  1.082245278E+03  0.000000000E+00  0.00000E+00  9.000E+00
      25     1     1     2     0     0 -8.630007667E+01 -2.611131174E+02 -5.200746305E+02  6.014402585E+02  1.250000000E+02  0.00000E+00  9.000E+00
      25     1     1     2     0     0  6.310718694E+01  2.658793276E+02 -4.537732908E+02  5.442513513E+02  1.250000000E+02  0.00000E+00  9.000E+00
      21     1     1     2   511   502  2.319288973E+01 -4.766210216E+00 -1.623953732E+01  2.871148666E+01  5.840038640E-07  0.00000E+00  9.000E+00
#rwgt            1           1   3.8248578277519631E-002           2      245555           0
</event>
<event>
      5   9999  3.79277E-02  2.19249E+01 -1.00000E+00  1.63142E-01
       2    -1     0     0   502     0  0.000000000E+00  0.000000000E+00  7.234622875E+02  7.234622875E+02  0.000000000E+00  0.00000E+00  9.000E+00
      21    -1     0     0   501   502  0.000000000E+00  0.000000000E+00 -1.508668177E+02  1.508668177E+02  0.000000000E+00  0.00000E+00  9.000E+00
      25     1     1     2     0     0 -8.239195198E+00  8.252076212E+01  2.366871283E+02  2.802201941E+02  1.250000000E+02  0.00000E+00  9.000E+00
      25     1     1     2     0     0  1.628664191E+01 -1.029153944E+02 -7.741254311E+01  1.802069225E+02  1.250000000E+02  0.00000E+00  9.000E+00
       2     1     1     2   501     0 -8.047446711E+00  2.039463225E+01  4.133208846E+02  4.139019885E+02  0.000000000E+00  0.00000E+00  9.000E+00
#rwgt            1           1   4.9603536136070769E-002           2      245680           0
</event>
<event>
      5   9999  3.79277E-02  8.77792E+01 -1.00000E+00  1.26429E-01
      21    -1     0     0   502   501  0.000000000E+00  0.000000000E+00  1.551713514E+02  1.551713514E+02  0.000000000E+00  0.00000E+00  9.000E+00
      21    -1     0     0   501   511  0.000000000E+00  0.000000000E+00 -1.061488039E+03  1.061488039E+03  0.000000000E+00  0.00000E+00  9.000E+00
      25     1     1     2     0     0 -1.424359834E+01 -1.251931201E+02  7.308562816E+01  1.919445400E+02  1.250000000E+02  0.00000E+00  9.000E+00
      25     1     1     2     0     0  8.044192179E+01  6.754797385E+01 -3.175472607E+02  3.570642720E+02  1.250000000E+02  0.00000E+00  9.000E+00
      21     1     1     2   502   511 -6.619832345E+01  5.764514621E+01 -6.618550551E+02  6.676505784E+02  1.078959322E-05  0.00000E+00  9.000E+00
#rwgt            1           1   4.0070009852804886E-002           2      245894           0
</event>
<event>
      5   9999  3.79277E-02  1.06079E+01 -1.00000E+00  1.92840E-01
      21    -1     0     0   502   512  0.000000000E+00  0.000000000E+00  3.424419143E+02  3.424419143E+02  0.000000000E+00  0.00000E+00  9.000E+00
      21    -1     0     0   501   502  0.000000000E+00  0.000000000E+00 -1.012697749E+02  1.012697749E+02  0.000000000E+00  0.00000E+00  9.000E+00
      25     1     1     2     0     0  1.080957221E+02  5.408529673E+01  1.645944615E+02  2.394289899E+02  1.250000000E+02  0.00000E+00  9.000E+00
      25     1     1     2     0     0 -1.033301458E+02 -6.356251746E+01  5.929849091E+01  1.840071294E+02  1.250000000E+02  0.00000E+00  9.000E+00
      21     1     1     2   501   512 -4.765576324E+00  9.477220732E+00  1.727918699E+01  2.027556987E+01  2.384185791E-07  0.00000E+00  9.000E+00
#rwgt            1           1   3.5610371398245910E-002           2      245981           0
</event>
<event>
      5   9999  3.79277E-02  2.73156E+01 -1.00000E+00  1.55922E-01
       2    -1     0     0   502     0  0.000000000E+00  0.000000000E+00  4.861165958E+02  4.861165958E+02  0.000000000E+00  0.00000E+00  9.000E+00
      21    -1     0     0   501   502  0.000000000E+00  0.000000000E+00 -2.091199955E+02  2.091199955E+02  0.000000000E+00  0.00000E+00  9.000E+00
      25     1     1     2     0     0 -1.347780019E+02 -3.266545286E+01  3.271650408E+02  3.766883400E+02  1.250000000E+02  0.00000E+00  9.000E+00
      25     1     1     2     0     0  1.538522143E+02  5.221840554E+01 -1.241692033E+02  2.396669705E+02  1.250000000E+02  0.00000E+00  9.000E+00
       2     1     1     2   501     0 -1.907421240E+01 -1.955295269E+01  7.400076287E+01  7.888128068E+01  1.907348633E-06  0.00000E+00  9.000E+00
#rwgt            1           1   4.6994918194981680E-002           2      246215           0
</event>
<event>
      5   9999  3.79277E-02  2.31720E+01 -1.00000E+00  1.61261E-01
      21    -1     0     0   502   511  0.000000000E+00  0.000000000E+00  1.720883867E+02  1.720883867E+02  0.000000000E+00  0.00000E+00  9.000E+00
      21    -1     0     0   501   502  0.000000000E+00  0.000000000E+00 -1.865503154E+02  1.865503154E+02  0.000000000E+00  0.00000E+00  9.000E+00
      25     1     1     2     0     0 -1.300740175E+01  5.684796294E+01  2.501072279E+01  1.401835213E+02  1.250000000E+02  0.00000E+00  9.000E+00
      25     1     1     2     0     0  1.219617122E+01 -3.369011790E+01 -9.317299697E+01  1.599686782E+02  1.250000000E+02  0.00000E+00  9.000E+00
      21     1     1     2   501   511  8.112305325E-01 -2.315784504E+01  5.370034546E+01  5.848650258E+01  9.536743164E-07  0.00000E+00  9.000E+00
#rwgt            1           1   8.4293102239983889E-002           2      246455           0
</event>
<event>
      5   9999  3.79277E-02  4.90596E+01 -1.00000E+00  1.39548E-01
      21    -1     0     0   502   501  0.000000000E+00  0.000000000E+00  1.745164123E+02  1.745164123E+02  0.000000000E+00  0.00000E+00  9.000E+00
      21    -1     0     0   501   512  0.000000000E+00  0.000000000E+00 -1.073299629E+03  1.073299629E+03  0.000000000E+00  0.00000E+00  9.000E+00
      25     1     1     2     0     0  2.057732178E+02 -8.793144062E+01 -3.696993085E+02  4.498634616E+02  1.250000000E+02  0.00000E+00  9.000E+00
      25     1     1     2     0     0 -1.648058012E+02  1.149224933E+02  2.838861928E+01  2.383255028E+02  1.250000000E+02  0.00000E+00  9.000E+00
      21     1     1     2   502   512 -4.096741658E+01 -2.699105272E+01 -5.574725279E+02  5.596270772E+02  1.078959322E-05  0.00000E+00  9.000E+00
#rwgt            1           1   3.0357757418411839E-002           2      246557           0
</event>
<event>
      5   9999  3.79277E-02  4.68227E+01 -1.00000E+00  1.40722E-01
      21    -1     0     0   502   501  0.000000000E+00  0.000000000E+00  8.523495815E+02  8.523495815E+02  0.000000000E+00  0.00000E+00  9.000E+00
      21    -1     0     0   511   502  0.000000000E+00  0.000000000E+00 -5.662391423E+01  5.662391423E+01  0.000000000E+00  0.00000E+00  9.000E+00
      25     1     1     2     0     0 -7.931259909E+01  6.329948601E+01  2.102446545E+02  2.648114953E+02  1.250000000E+02  0.00000E+00  9.000E+00
      25     1     1     2     0     0  1.261307038E+02 -6.395282284E+01  5.597932624E+02  5.907557994E+02  1.250000000E+02  0.00000E+00  9.000E+00
      21     1     1     2   511   501 -4.681810476E+01  6.533368281E-01  2.568775045E+01  5.340620100E+01  1.215700987E-06  0.00000E+00  9.000E+00
#rwgt            1           1   5.3713455346196627E-002           2      246736           0
</event>
<event>
      5   9999  3.79277E-02  2.14905E+01 -1.00000E+00  1.63834E-01
      21    -1     0     0   502   501  0.000000000E+00  0.000000000E+00  4.008665540E+02  4.008665540E+02  0.000000000E+00  0.00000E+00  9.000E+00
      21    -1     0     0   501   512  0.000000000E+00  0.000000000E+00 -2.062813470E+02  2.062813470E+02  0.000000000E+00  0.00000E+00  9.000E+00
      25     1     1     2     0     0  1.333416605E+02 -1.057411271E+02  9.341409744E+00  2.113609385E+02  1.250000000E+02  0.00000E+00  9.000E+00
      25     1     1     2     0     0 -1.481131108E+02  9.013193217E+01  2.492044125E+02  3.283125005E+02  1.250000000E+02  0.00000E+00  9.000E+00
      21     1     1     2   502   512  1.477145033E+01  1.560919497E+01 -6.396061523E+01  6.747446194E+01  0.000000000E+00  0.00000E+00  9.000E+00
#rwgt            1           1   3.2544981623431314E-002           2      246851           0
</event>
<event>
      5   9999  3.79277E-02  6.54481E+01 -1.00000E+00  1.32717E-01
       2    -1     0     0   502     0  0.000000000E+00  0.000000000E+00  1.859542239E+03  1.859542239E+03  0.000000000E+00  0.00000E+00  9.000E+00
      21    -1     0     0   501   502  0.000000000E+00  0.000000000E+00 -3.247019000E+01  3.247019000E+01  0.000000000E+00  0.00000E+00  9.000E+00
      25     1     1     2     0     0  3.978021861E+01 -6.859311093E+01  2.558256359E+02  2.955659599E+02  1.250000000E+02  0.00000E+00  9.000E+00
      25     1     1     2     0     0  2.398028876E+01  5.382633491E+01  3.967589314E+02  4.201368566E+02  1.250000000E+02  0.00000E+00  9.000E+00
       2     1     1     2   501     0 -6.376050737E+01  1.476677601E+01  1.174487482E+03  1.176309613E+03  2.642899792E-05  0.00000E+00  9.000E+00
#rwgt            1           1   6.5327041999066277E-002           2      247068           0
</event>
<event>
      5   9999  3.79277E-02  1.90193E+01 -1.00000E+00  1.68191E-01
      21    -1     0     0   502   501  0.000000000E+00  0.000000000E+00  5.310225697E+02  5.310225697E+02  0.000000000E+00  0.00000E+00  9.000E+00
      21    -1     0     0   511   502  0.000000000E+00  0.000000000E+00 -1.099080770E+02  1.099080770E+02  0.000000000E+00  0.00000E+00  9.000E+00
      25     1     1     2     0     0  3.548798845E+01  1.669356368E+02  1.078883158E+02  2.374695619E+02  1.250000000E+02  0.00000E+00  9.000E+00
      25     1     1     2     0     0 -4.134764683E+01 -1.850298207E+02  3.098278296E+02  3.841405296E+02  1.250000000E+02  0.00000E+00  9.000E+00
      21     1     1     2   511   501  5.859658380E+00  1.809418393E+01  3.398347269E+00  1.932055518E+01  1.976862425E-07  0.00000E+00  9.000E+00
#rwgt            1           1   2.8172807901787545E-002           2      247223           0
</event>
<event>
      5   9999  3.79277E-02  3.57017E+01 -1.00000E+00  1.47970E-01
      21    -1     0     0   502   501  0.000000000E+00  0.000000000E+00  1.100261385E+02  1.100261385E+02  0.000000000E+00  0.00000E+00  9.000E+00
      -4    -1     0     0     0   502  0.000000000E+00  0.000000000E+00 -4.370599684E+02  4.370599684E+02  0.000000000E+00  0.00000E+00  9.000E+00
      25     1     1     2     0     0 -3.121123709E+01  1.197653262E+02 -7.187166797E+01  1.900221338E+02  1.250000000E+02  0.00000E+00  9.000E+00
      25     1     1     2     0     0 -1.870015054E+00 -1.331908873E+02 -1.231389436E+02  2.202986810E+02  1.250000000E+02  0.00000E+00  9.000E+00
      -4     1     1     2     0   501  3.308125215E+01  1.342556110E+01 -1.320232184E+02  1.367652921E+02  1.907348633E-06  0.00000E+00  9.000E+00
#rwgt            1           1   3.4486262304169901E-002           2      247394           0
</event>
<event>
      5   9999  3.79277E-02  9.69902E+01 -1.00000E+00  1.24428E-01
      21    -1     0     0   502   501  0.000000000E+00  0.000000000E+00  8.549357091E+02  8.549357091E+02  0.000000000E+00  0.00000E+00  9.000E+00
       1    -1     0     0   501     0  0.000000000E+00  0.000000000E+00 -2.472898140E+02  2.472898140E+02  0.000000000E+00  0.00000E+00  9.000E+00
      25     1     1     2     0     0 -2.301523860E+02  1.318798378E+02  7.162304365E+01  3.018563778E+02  1.250000000E+02  0.00000E+00  9.000E+00
      25     1     1     2     0     0  3.223434520E+02 -1.017483146E+02  5.885067076E+02  6.900892446E+02  1.250000000E+02  0.00000E+00  9.000E+00
       1     1     1     2   502     0 -9.219106594E+01 -3.013152326E+01 -5.248385624E+01  1.102799007E+02  2.523185073E-06  0.00000E+00  9.000E+00
#rwgt            1           1   7.1941238098578789E-002           2      247488           0
</event>
<event>
      5   9999  3.79277E-02  7.92446E+01 -1.00000E+00  1.28549E-01
      21    -1     0     0   502   501  0.000000000E+00  0.000000000E+00  1.360132820E+02  1.360132820E+02  0.000000000E+00  0.00000E+00  9.000E+00
      21    -1     0     0   511   502  0.000000000E+00  0.000000000E+00 -5.672882197E+02  5.672882197E+02  0.000000000E+00  0.00000E+00  9.000E+00
      25     1     1     2     0     0 -1.333717372E+02 -6.516374060E+01 -3.260593756E+02  3.794391253E+02  1.250000000E+02  0.00000E+00  9.000E+00
      25     1     1     2     0     0  1.151559834E+02 -1.195880379E+01  2.422364900E+01  1.720921227E+02  1.250000000E+02  0.00000E+00  9.000E+00
      21     1     1     2   511   501  1.821575375E+01  7.712254440E+01 -1.294392112E+02  1.517702538E+02  0.000000000E+00  0.00000E+00  9.000E+00
#rwgt            1           1   4.6029328003719054E-002           2      247682           0
</event>
<event>
      5   9999  3.79277E-02  8.73513E+01 -1.00000E+00  1.26528E-01
      21    -1     0     0   502   501  0.000000000E+00  0.000000000E+00  1.988097340E+03  1.988097340E+03  0.000000000E+00  0.00000E+00  9.000E+00
      21    -1     0     0   512   502  0.000000000E+00  0.000000000E+00 -3.679416444E+01  3.679416444E+01  0.000000000E+00  0.00000E+00  9.000E+00
      25     1     1     2     0     0 -2.349597220E+01  1.272159365E+02  9.495535315E+02  9.664434099E+02  1.250000000E+02  0.00000E+00  9.000E+00
      25     1     1     2     0     0  6.986994668E+01 -2.012409943E+02  8.267973479E+02  8.629012699E+02  1.250000000E+02  0.00000E+00  9.000E+00
      21     1     1     2   512   501 -4.637397448E+01  7.402505779E+01  1.749522962E+02  1.955468246E+02  2.697398305E-06  0.00000E+00  9.000E+00
#rwgt            1           1   3.8762285116682504E-002           2      247866           0
</event>
<event>
      5   9999  3.79277E-02  8.32873E+01 -1.00000E+00  1.27509E-01
      21    -1     0     0   502   501  0.000000000E+00  0.000000000E+00  2.680972404E+02  2.680972404E+02  0.000000000E+00  0.00000E+00  9.000E+00
      21    -1     0     0   511   502  0.000000000E+00  0.000000000E+00 -3.316671598E+02  3.316671598E+02  0.000000000E+00  0.00000E+00  9.000E+00
      25     1     1     2     0     0  1.347047676E+02 -4.698678657E+01 -1.786409174E+02  2.605584577E+02  1.250000000E+02  0.00000E+00  9.000E+00
      25     1     1     2     0     0 -5.479098340E+01  7.045093062E+01  1.777888092E+02  2.349451982E+02  1.250000000E+02  0.00000E+00  9.000E+00
      21     1     1     2   511   501 -7.991378416E+01 -2.346414404E+01 -6.271781122E+01  1.042607443E+02  0.000000000E+00  0.00000E+00  9.000E+00
#rwgt            1           1   4.0514778871229007E-002           2      247925           0
</event>
<event>
      5   9999  3.79277E-02  4.39642E+01 -1.00000E+00  1.42340E-01
      21    -1     0     0   502   501  0.000000000E+00  0.000000000E+00  2.383813984E+02  2.383813984E+02  0.000000000E+00  0.00000E+00  9.000E+00
      21    -1     0     0   501   512  0.000000000E+00  0.000000000E+00 -2.662997070E+02  2.662997070E+02  0.000000000E+00  0.00000E+00  9.000E+00
      25     1     1     2     0     0  6.953551117E+01  1.503904821E+02 -6.082279570E+00  2.076402623E+02  1.250000000E+02  0.00000E+00  9.000E+00
      25     1     1     2     0     0 -4.947093728E+01 -1.895090222E+02  2.393147424E+01  2.335781638E+02  1.250000000E+02  0.00000E+00  9.000E+00
      21     1     1     2   502   512 -2.006457388E+01  3.911854011E+01 -4.576750323E+01  6.346267925E+01  6.743495762E-07  0.00000E+00  9.000E+00
#rwgt            1           1  0.12968428745582947                2      248049           0
</event>
<event>
      5   9999  3.79277E-02  5.15808E+01 -1.00000E+00  1.38309E-01
       2    -1     0     0   502     0  0.000000000E+00  0.000000000E+00  7.644426391E+02  7.644426391E+02  0.000000000E+00  0.00000E+00  9.000E+00
      21    -1     0     0   501   502  0.000000000E+00  0.000000000E+00 -2.342144672E+02  2.342144672E+02  0.000000000E+00  0.00000E+00  9.000E+00
      25     1     1     2     0     0 -1.058627045E+02  8.442656984E+01 -5.506163596E+01  1.923318529E+02  1.250000000E+02  0.00000E+00  9.000E+00
      25     1     1     2     0     0  5.680653194E+01 -1.003662704E+02 -4.339862720E+01  1.755243890E+02  1.250000000E+02  0.00000E+00  9.000E+00
       2     1     1     2   501     0  4.905617257E+01  1.593970053E+01  6.286884351E+02  6.308008644E+02  7.629394531E-06  0.00000E+00  9.000E+00
#rwgt            1           1   4.5909723246013182E-002           2      248142           0
</event>
<event>
      5   9999  3.79277E-02  3.45211E+01 -1.00000E+00  1.48923E-01
      21    -1     0     0   502   501  0.000000000E+00  0.000000000E+00  2.375743445E+01  2.375743445E+01  0.000000000E+00  0.00000E+00  9.000E+00
       2    -1     0     0   501     0  0.000000000E+00  0.000000000E+00 -3.405492845E+03  3.405492845E+03  0.000000000E+00  0.00000E+00  9.000E+00
      25     1     1     2     0     0 -1.478093829E+01  5.853153516E+01 -7.162730312E+02  7.296002138E+02  1.250000000E+02  0.00000E+00  9.000E+00
      25     1     1     2     0     0 -1.494735201E+01 -7.607963622E+01 -3.018202675E+02  3.357558760E+02  1.250000000E+02  0.00000E+00  9.000E+00
       2     1     1     2   502     0  2.972829031E+01  1.754810106E+01 -2.363642112E+03  2.363894190E+03  3.051757812E-05  0.00000E+00  9.000E+00
#rwgt            1           1   4.2351648780781265E-002           2      248279           0
</event>
<event>
      5   9999  3.79277E-02  5.49596E+01 -1.00000E+00  1.36772E-01
      21    -1     0     0   502   511  0.000000000E+00  0.000000000E+00  2.018877112E+02  2.018877112E+02  0.000000000E+00  0.00000E+00  9.000E+00
      21    -1     0     0   501   502  0.000000000E+00  0.000000000E+00 -7.330824089E+02  7.330824089E+02  0.000000000E+00  0.00000E+00  9.000E+00
      25     1     1     2     0     0 -2.036537274E+02  2.048068789E+02 -4.141607385E+02  5.201680648E+02  1.250000000E+02  0.00000E+00  9.000E+00
      25     1     1     2     0     0  1.569426090E+02 -1.758478317E+02 -1.870209470E+02  3.258147895E+02  1.250000000E+02  0.00000E+00  9.000E+00
      21     1     1     2   501   511  4.671111841E+01 -2.895904718E+01  6.998698785E+01  8.898726574E+01  2.132480600E-06  0.00000E+00  9.000E+00
#rwgt            1           1   4.0865185900082271E-002           2      248348           0
</event>
<event>
      5   9999  3.79277E-02  7.13750E+01 -1.00000E+00  1.30794E-01
      21    -1     0     0   502   501  0.000000000E+00  0.000000000E+00  4.313177197E+02  4.313177197E+02  0.000000000E+00  0.00000E+00  9.000E+00
      21    -1     0     0   501   512  0.000000000E+00  0.000000000E+00 -2.714447662E+02  2.714447662E+02  0.000000000E+00  0.00000E+00  9.000E+00
      25     1     1     2     0     0 -2.898344169E+02 -5.919499038E+01  1.192068017E+02  3.425540799E+02  1.250000000E+02  0.00000E+00  9.000E+00
      25     1     1     2     0     0  2.569240792E+02 -4.139795163E+00  4.201516128E+01  2.888206955E+02  1.250000000E+02  0.00000E+00  9.000E+00
      21     1     1     2   502   512  3.291033773E+01  6.333478554E+01 -1.349009558E+00  7.138771054E+01  8.800520337E-07  0.00000E+00  9.000E+00
#rwgt            1           1   2.9735757778898489E-002           2      248477           0
</event>
<event>
      5   9999  3.79277E-02  7.83887E+01 -1.00000E+00  1.28779E-01
      21    -1     0     0   502   501  0.000000000E+00  0.000000000E+00  1.036794257E+02  1.036794257E+02  0.000000000E+00  0.00000E+00  9.000E+00
       2    -1     0     0   501     0  0.000000000E+00  0.000000000E+00 -7.926091534E+02  7.926091534E+02  0.000000000E+00  0.00000E+00  9.000E+00
      25     1     1     2     0     0  1.141855408E+02  1.219298457E+02 -1.075267711E+02  2.347173439E+02  1.250000000E+02  0.00000E+00  9.000E+00
      25     1     1     2     0     0 -1.777217416E+02 -7.601758497E+01 -3.662455172E+02  4.325788593E+02  1.250000000E+02  0.00000E+00  9.000E+00
       2     1     1     2   502     0  6.353620080E+01 -4.591226074E+01 -2.151574394E+02  2.289923759E+02  2.697398305E-06  0.00000E+00  9.000E+00
#rwgt            1           1   4.2660072476209496E-002           2      248596           0
</event>
<event>
      5   9999  3.79277E-02  5.13641E+01 -1.00000E+00  1.38412E-01
      21    -1     0     0   511   501  0.000000000E+00  0.000000000E+00  2.406395060E+02  2.406395060E+02  0.000000000E+00  0.00000E+00  9.000E+00
      21    -1     0     0   501   502  0.000000000E+00  0.000000000E+00 -2.085171471E+02  2.085171471E+02  0.000000000E+00  0.00000E+00  9.000E+00
      25     1     1     2     0     0 -2.319085966E+01 -1.026994963E+02  9.427107858E+01  1.886717752E+02  1.250000000E+02  0.00000E+00  9.000E+00
      25     1     1     2     0     0 -2.363603014E+01  1.238065736E+02 -9.316961705E+01  2.004801914E+02  1.250000000E+02  0.00000E+00  9.000E+00
      21     1     1     2   511   502  4.682688980E+01 -2.110707734E+01  3.102089736E+01  6.000468644E+01  6.743495762E-07  0.00000E+00  9.000E+00
#rwgt            1           1   3.7641924739480852E-002           2      248697           0
</event>
<event>
      5   9999  3.79277E-02  2.07623E+01 -1.00000E+00  1.65040E-01
      21    -1     0     0   512   501  0.000000000E+00  0.000000000E+00  3.379962467E+02  3.379962467E+02  0.000000000E+00  0.00000E+00  9.000E+00
      21    -1     0     0   501   502  0.000000000E+00  0.000000000E+00 -9.564198540E+01  9.564198540E+01  0.000000000E+00  0.00000E+00  9.000E+00
      25     1     1     2     0     0  5.253476259E+01  3.954133147E+01  2.020499224E+02  2.465209713E+02  1.250000000E+02  0.00000E+00  9.000E+00
      25     1     1     2     0     0 -7.249073098E+01 -4.527136666E+01  1.184203153E+01  1.518869199E+02  1.250000000E+02  0.00000E+00  9.000E+00
      21     1     1     2   512   502  1.995596839E+01  5.730035188E+00  2.846230743E+01  3.523034093E+01  3.371747881E-07  0.00000E+00  9.000E+00
#rwgt            1           1   4.3357031870808874E-002           2      248739           0
</event>
<event>
      5   9999  3.79277E-02  6.11506E+00 -1.00000E+00  2.24198E-01
      21    -1     0     0   502   501  0.000000000E+00  0.000000000E+00  1.126131506E+03  1.126131506E+03  0.000000000E+00  0.00000E+00  9.000E+00
      21    -1     0     0   511   502  0.000000000E+00  0.000000000E+00 -6.586311342E+01  6.586311342E+01  0.000000000E+00  0.00000E+00  9.000E+00
      25     1     1     2     0     0 -2.574304735E+01 -8.553764541E+01  4.400452502E+01  1.598148663E+02  1.250000000E+02  0.00000E+00  9.000E+00
      25     1     1     2     0     0  2.007633095E+01  8.323932618E+01  1.014588291E+03  1.025839288E+03  1.250000000E+02  0.00000E+00  9.000E+00
      21     1     1     2   511   501  5.666716400E+00  2.298319226E+00  1.675577034E+00  6.340465632E+00  8.429369702E-08  0.00000E+00  9.000E+00
#rwgt            1           1   4.7081307790622952E-002           2      248872           0
</event>
<event>
      5   9999  3.79277E-02  1.23168E+02 -1.00000E+00  1.19890E-01
      21    -1     0     0   512   501  0.000000000E+00  0.000000000E+00  2.364221440E+02  2.364221440E+02  0.000000000E+00  0.00000E+00  9.000E+00
      21    -1     0     0   501   502  0.000000000E+00  0.000000000E+00 -5.520570862E+02  5.520570862E+02  0.000000000E+00  0.00000E+00  9.000E+00
      25     1     1     2     0     0 -1.478691001E+02  4.786075819E+01 -3.287392776E+02  3.845132450E+02  1.250000000E+02  0.00000E+00  9.000E+00
      25     1     1     2     0     0  1.493607277E+02  7.529780701E+01 -1.046458892E+02  2.335682959E+02  1.250000000E+02  0.00000E+00  9.000E+00
      21     1     1     2   512   502 -1.491627628E+00 -1.231585652E+02  1.177502245E+02  1.703976893E+02  1.348699152E-06  0.00000E+00  9.000E+00
#rwgt            1           1   3.3559856665992073E-002           2      249218           0
</event>
<event>
      5   9999  3.79277E-02  1.20125E+02 -1.00000E+00  1.20349E-01
      21    -1     0     0   502   501  0.000000000E+00  0.000000000E+00  2.211671899E+03  2.211671899E+03  0.000000000E+00  0.00000E+00  9.000E+00
      21    -1     0     0   511   502  0.000000000E+00  0.000000000E+00 -3.181653326E+02  3.181653326E+02  0.000000000E+00  0.00000E+00  9.000E+00
      25     1     1     2     0     0  1.083209736E+01  1.442854593E+02  1.271530746E+03  1.285826997E+03  1.250000000E+02  0.00000E+00  9.000E+00
      25     1     1     2     0     0 -5.172937878E+01 -2.572339170E+02  8.975281663E+02  9.434124368E+02  1.250000000E+02  0.00000E+00  9.000E+00
      21     1     1     2   511   501  4.089728142E+01  1.129484577E+02 -2.755523450E+02  3.005977986E+02  9.344061824E-06  0.00000E+00  9.000E+00
#rwgt            1           1   7.9916100812144772E-002           2      249367           0
</event>
<event>
      5   9999  3.79277E-02  2.03699E+01 -1.00000E+00  1.65715E-01
      21    -1     0     0   502   501  0.000000000E+00  0.000000000E+00  1.880266973E+03  1.880266973E+03  0.000000000E+00  0.00000E+00  9.000E+00
      21    -1     0     0   512   502  0.000000000E+00  0.000000000E+00 -2.065910255E+01  2.065910255E+01  0.000000000E+00  0.00000E+00  9.000E+00
      25     1     1     2     0     0 -5.974261297E+01 -1.157983189E+02  7.655435568E+02  7.865496602E+02  1.250000000E+02  0.00000E+00  9.000E+00
      25     1     1     2     0     0  4.908461162E+01  1.331575076E+02  1.027719055E+03  1.044974486E+03  1.250000000E+02  0.00000E+00  9.000E+00
      21     1     1     2   512   501  1.065800135E+01 -1.735918867E+01  6.634525837E+01  6.940192888E+01  9.536743164E-07  0.00000E+00  9.000E+00
#rwgt            1           1  0.25088593426441907                2      249413           0
</event>
<event>
      5   9999  3.79277E-02  1.67826E+01 -1.00000E+00  1.72909E-01
      21    -1     0     0   502   501  0.000000000E+00  0.000000000E+00  8.299399032E+01  8.299399032E+01  0.000000000E+00  0.00000E+00  9.000E+00
       2    -1     0     0   501     0  0.000000000E+00  0.000000000E+00 -1.194422286E+03  1.194422286E+03  0.000000000E+00  0.00000E+00  9.000E+00
      25     1     1     2     0     0  8.228097853E+01  2.141944430E+01 -3.240860972E+02  3.576111721E+02  1.250000000E+02  0.00000E+00  9.000E+00
      25     1     1     2     0     0 -6.955598627E+01 -3.236154068E+01 -1.516534598E+01  1.474458960E+02  1.250000000E+02  0.00000E+00  9.000E+00
       2     1     1     2   502     0 -1.272499225E+01  1.094209637E+01 -7.721768527E+02  7.723592084E+02  1.078959322E-05  0.00000E+00  9.000E+00
#rwgt            1           1   4.5661622421255030E-002           2      249517           0
</event>
<event>
      5   9999  3.79277E-02  2.79527E+01 -1.00000E+00  1.55203E-01
      21    -1     0     0   502   501  0.000000000E+00  0.000000000E+00  2.429246236E+01  2.429246236E+01  0.000000000E+00  0.00000E+00  9.000E+00
      21    -1     0     0   511   502  0.000000000E+00  0.000000000E+00 -1.982716961E+03  1.982716961E+03  0.000000000E+00  0.00000E+00  9.000E+00
      25     1     1     2     0     0  1.421210149E+02  2.823781265E+01 -7.016067329E+02  7.272363883E+02  1.250000000E+02  0.00000E+00  9.000E+00
      25     1     1     2     0     0 -1.666940504E+02 -4.156146459E+01 -1.071695405E+03  1.092552197E+03  1.250000000E+02  0.00000E+00  9.000E+00
      21     1     1     2   511   501  2.457303550E+01  1.332365194E+01 -1.851223603E+02  1.872208377E+02  0.000000000E+00  0.00000E+00  9.000E+00
#rwgt            1           1   1.1524596788435102E-002           2      249747           0
</event>
<event>
      5   9999  3.79277E-02  2.31206E+01 -1.00000E+00  1.61336E-01
      21    -1     0     0   502   512  0.000000000E+00  0.000000000E+00  5.679771052E+01  5.679771052E+01  0.000000000E+00  0.00000E+00  9.000E+00
      21    -1     0     0   501   502  0.000000000E+00  0.000000000E+00 -8.649750390E+02  8.649750390E+02  0.000000000E+00  0.00000E+00  9.000E+00
      25     1     1     2     0     0 -1.389220184E+02  5.565559409E+01 -5.433689982E+02  5.772969258E+02  1.250000000E+02  0.00000E+00  9.000E+00
      25     1     1     2     0     0  1.159457697E+02 -5.307561913E+01 -2.670472085E+02  3.212470302E+02  1.250000000E+02  0.00000E+00  9.000E+00
      21     1     1     2   501   512  2.297624867E+01 -2.579974964E+00  2.238878180E+00  2.322879354E+01  4.140270945E-07  0.00000E+00  9.000E+00
#rwgt            1           1   4.5167472443423527E-002           2      249921           0
</event>
<event>
      5   9999  3.79277E-02  1.72987E+02 -1.00000E+00  1.13991E-01
      21    -1     0     0   511   501  0.000000000E+00  0.000000000E+00  1.619385618E+02  1.619385618E+02  0.000000000E+00  0.00000E+00  9.000E+00
      21    -1     0     0   501   502  0.000000000E+00  0.000000000E+00 -1.441667426E+03  1.441667426E+03  0.000000000E+00  0.00000E+00  9.000E+00
      25     1     1     2     0     0  4.375998457E+01  1.906012089E+02  9.603314871E+00  2.322950295E+02  1.250000000E+02  0.00000E+00  9.000E+00
      25     1     1     2     0     0 -7.974976857E+01 -2.139939655E+01 -1.117460543E+03  1.127457771E+03  1.250000000E+02  0.00000E+00  9.000E+00
      21     1     1     2   511   502  3.598978400E+01 -1.692018123E+02 -1.718716364E+02  2.438531879E+02  5.394796609E-06  0.00000E+00  9.000E+00
#rwgt            1           1   2.6827176776762825E-002           2      250067           0
</event>
<event>
      5   9999  3.79277E-02  1.59840E+01 -1.00000E+00  1.74823E-01
      -2    -1     0     0     0   501  0.000000000E+00  0.000000000E+00  8.075148268E+01  8.075148268E+01  0.000000000E+00  0.00000E+00  9.000E+00
      21    -1     0     0   501   502  0.000000000E+00  0.000000000E+00 -1.424605063E+03  1.424605063E+03  0.000000000E+00  0.00000E+00  9.000E+00
      25     1     1     2     0     0  5.954399314E+01 -9.917781377E-02 -5.724790462E+01  1.498259642E+02  1.250000000E+02  0.00000E+00  9.000E+00
      25     1     1     2     0     0 -4.884855535E+01 -1.177914302E+01 -1.315569168E+03  1.322449305E+03  1.250000000E+02  0.00000E+00  9.000E+00
      -2     1     1     2     0   502 -1.069543779E+01  1.187832083E+01  2.896349268E+01  3.308127572E+01  8.259061849E-07  0.00000E+00  9.000E+00
#rwgt            1           1   2.2051458265734156E-002           2      250127           0
</event>
<event>
      5   9999  3.79277E-02  3.52159E+01 -1.00000E+00  1.48357E-01
      21    -1     0     0   511   501  0.000000000E+00  0.000000000E+00  9.389917326E+02  9.389917326E+02  0.000000000E+00  0.00000E+00  9.000E+00
      21    -1     0     0   501   502  0.000000000E+00  0.000000000E+00 -1.439718715E+02  1.439718715E+02  0.000000000E+00  0.00000E+00  9.000E+00
      25     1     1     2     0     0 -1.547772138E+02  1.931909709E+02  6.261842670E+02  6.848433933E+02  1.250000000E+02  0.00000E+00  9.000E+00
      25     1     1     2     0     0  1.195762885E+02 -1.921657308E+02  3.642793162E+01  2.611094618E+02  1.250000000E+02  0.00000E+00  9.000E+00
      21     1     1     2   511   502  3.520092531E+01 -1.025240119E+00  1.324076625E+02  1.370107490E+02  3.303624740E-06  0.00000E+00  9.000E+00
#rwgt            1           1   1.1977296959047257E-002           2      250346           0
</event>
<event>
      5   9999  3.79277E-02  2.37289E+01 -1.00000E+00  1.60467E-01
      21    -1     0     0   502   512  0.000000000E+00  0.000000000E+00  6.285686410E+02  6.285686410E+02  0.000000000E+00  0.00000E+00  9.000E+00
      21    -1     0     0   501   502  0.000000000E+00  0.000000000E+00 -1.597278032E+02  1.597278032E+02  0.000000000E+00  0.00000E+00  9.000E+00
      25     1     1     2     0     0 -1.128835138E+02  5.463888449E+00  5.281051205E+02  5.543397515E+02  1.250000000E+02  0.00000E+00  9.000E+00
      25     1     1     2     0     0  1.024906989E+02 -2.679581846E+01 -9.623771196E+01  1.900238313E+02  1.250000000E+02  0.00000E+00  9.000E+00
      21     1     1     2   501   512  1.039281491E+01  2.133193002E+01  3.697342925E+01  4.393286140E+01  0.000000000E+00  0.00000E+00  9.000E+00
#rwgt            1           1   3.9078539691388574E-002           2      250547           0
</event>
<event>
      5   9999  3.79277E-02  4.37449E+01 -1.00000E+00  1.42470E-01
      21    -1     0     0   511   501  0.000000000E+00  0.000000000E+00  4.066591403E+02  4.066591403E+02  0.000000000E+00  0.00000E+00  9.000E+00
      21    -1     0     0   501   502  0.000000000E+00  0.000000000E+00 -1.392821672E+02  1.392821672E+02  0.000000000E+00  0.00000E+00  9.000E+00
      25     1     1     2     0     0 -7.224394582E+00  9.959680839E+01  1.232590632E+02  2.019641374E+02  1.250000000E+02  0.00000E+00  9.000E+00
      25     1     1     2     0     0 -3.597157458E+01 -1.065048963E+02 -2.439889556E+01  1.698751107E+02  1.250000000E+02  0.00000E+00  9.000E+00
      21     1     1     2   511   502  4.319596916E+01  6.908087936E+00  1.685168054E+02  1.741020595E+02  2.697398305E-06  0.00000E+00  9.000E+00
#rwgt            1           1   3.9425760590250589E-002           2      250835           0
</event>
<event>
      5   9999  3.79277E-02  3.09811E+01 -1.00000E+00  1.52075E-01
      21    -1     0     0   502   512  0.000000000E+00  0.000000000E+00  7.082448596E+02  7.082448596E+02  0.000000000E+00  0.00000E+00  9.000E+00
      21    -1     0     0   501   502  0.000000000E+00  0.000000000E+00 -2.665043028E+02  2.665043028E+02  0.000000000E+00  0.00000E+00  9.000E+00
      25     1     1     2     0     0 -1.265635636E+02 -1.109736363E+01 -2.143347335E+02  2.787577175E+02  1.250000000E+02  0.00000E+00  9.000E+00
      25     1     1     2     0     0  1.481373501E+02  3.333248615E+01  6.059122231E+02  6.370324570E+02  1.250000000E+02  0.00000E+00  9.000E+00
      21     1     1     2   501   512 -2.157378651E+01 -2.223512252E+01  5.016306718E+01  5.895898784E+01  6.743495762E-07  0.00000E+00  9.000E+00
#rwgt            1           1   5.7248123214901539E-002           2      250982           0
</event>
<event>
      5   9999  3.79277E-02  3.78510E+01 -1.00000E+00  1.46343E-01
      21    -1     0     0   502   501  0.000000000E+00  0.000000000E+00  1.312332267E+03  1.312332267E+03  0.000000000E+00  0.00000E+00  9.000E+00
      21    -1     0     0   511   502  0.000000000E+00  0.000000000E+00 -7.602184289E+01  7.602184289E+01  0.000000000E+00  0.00000E+00  9.000E+00
      25     1     1     2     0     0  1.262360297E+02 -2.090607078E+02  4.066532012E+02  4.905443311E+02  1.250000000E+02  0.00000E+00  9.000E+00
      25     1     1     2     0     0 -1.629933552E+02  2.180940007E+02  7.786104526E+02  8.342607889E+02  1.250000000E+02  0.00000E+00  9.000E+00
      21     1     1     2   511   501  3.675732554E+01 -9.033292961E+00  5.104677041E+01  6.354899002E+01  9.536743164E-07  0.00000E+00  9.000E+00
#rwgt            1           1   3.1311890720996195E-002           2      251388           0
</event>
<event>
      5   9999  3.79277E-02  2.89182E+01 -1.00000E+00  1.54156E-01
      21    -1     0     0   502   501  0.000000000E+00  0.000000000E+00  1.600740125E+03  1.600740125E+03  0.000000000E+00  0.00000E+00  9.000E+00
      21    -1     0     0   501   512  0.000000000E+00  0.000000000E+00 -1.120347755E+03  1.120347755E+03  0.000000000E+00  0.00000E+00  9.000E+00
      25     1     1     2     0     0  5.480429275E+01  7.927404965E+01  7.865003609E+02  8.021818392E+02  1.250000000E+02  0.00000E+00  9.000E+00
      25     1     1     2     0     0 -8.044076463E+01 -9.265436117E+01  7.966956548E+02  8.157233071E+02  1.250000000E+02  0.00000E+00  9.000E+00
      21     1     1     2   502   512  2.563647187E+01  1.338031151E+01 -1.102803646E+03  1.103182733E+03  2.157918644E-05  0.00000E+00  9.000E+00
#rwgt            1           1   4.6592040134449141E-002           2      251828           0
</event>
<event>
      5   9999  3.79277E-02  1.44463E+02 -1.00000E+00  1.17045E-01
      21    -1     0     0   502   501  0.000000000E+00  0.000000000E+00  6.869192138E+02  6.869192138E+02  0.000000000E+00  0.00000E+00  9.000E+00
       1    -1     0     0   501     0  0.000000000E+00  0.000000000E+00 -8.217512750E+02  8.217512750E+02  0.000000000E+00  0.00000E+00  9.000E+00
      25     1     1     2     0     0 -3.372316771E+01 -1.724598209E+02  4.086668406E+02  4.620749165E+02  1.250000000E+02  0.00000E+00  9.000E+00
      25     1     1     2     0     0 -1.104267278E+02  1.629546980E+02  1.888944543E+02  3.000906708E+02  1.250000000E+02  0.00000E+00  9.000E+00
       1     1     1     2   502     0  1.441498955E+02  9.505122854E+00 -7.323933561E+02  7.465049014E+02  1.078959322E-05  0.00000E+00  9.000E+00
#rwgt            2          12   2.1477855740725952E-003           2      251960           0
</event>
<event>
      5   9999  3.79277E-02  1.54091E+02 -1.00000E+00  1.15932E-01
      21    -1     0     0   502   501  0.000000000E+00  0.000000000E+00  1.994998948E+02  1.994998948E+02  0.000000000E+00  0.00000E+00  9.000E+00
      21    -1     0     0   511   502  0.000000000E+00  0.000000000E+00 -1.311182986E+03  1.311182986E+03  0.000000000E+00  0.00000E+00  9.000E+00
      25     1     1     2     0     0  1.950386931E+01  1.773961858E+02 -4.093008258E+02  4.636830530E+02  1.250000000E+02  0.00000E+00  9.000E+00
      25     1     1     2     0     0  1.341297802E+02 -1.655387091E+02  7.210814946E+01  2.573294530E+02  1.250000000E+02  0.00000E+00  9.000E+00
      21     1     1     2   511   501 -1.536336495E+02 -1.185747665E+01 -7.744904150E+02  7.896703749E+02  1.078959322E-05  0.00000E+00  9.000E+00
#rwgt            1           1   3.0775838678867552E-002           2      252009           0
</event>
<event>
      5   9999 -3.79277E-02  9.53150E+00 -1.00000E+00  1.98197E-01
      21    -1     0     0   502   501  0.000000000E+00  0.000000000E+00  9.478388214E+02  9.478388214E+02  0.000000000E+00  0.00000E+00  9.000E+00
      21    -1     0     0   501   512  0.000000000E+00  0.000000000E+00 -1.083515061E+02  1.083515061E+02  0.000000000E+00  0.00000E+00  9.000E+00
      25     1     1     2     0     0  1.983596387E+02 -2.051670294E+02  5.146461195E+02  6.016025969E+02  1.250000000E+02  0.00000E+00  9.000E+00
      25     1     1     2     0     0 -1.998597938E+02  1.957543233E+02  3.223307656E+02  4.447311713E+02  1.250000000E+02  0.00000E+00  9.000E+00
      21     1     1     2   502   512  1.500155126E+00  9.412706086E+00  2.510430190E+00  9.856559289E+00  1.604904177E-07  0.00000E+00  9.000E+00
#rwgt            1           1 -0.37952138633970495                2      252110           0
</event>
<event>
      5   9999  3.79277E-02  1.60098E+01 -1.00000E+00  1.74759E-01
      21    -1     0     0   511   501  0.000000000E+00  0.000000000E+00  5.130482611E+02  5.130482611E+02  0.000000000E+00  0.00000E+00  9.000E+00
      21    -1     0     0   501   502  0.000000000E+00  0.000000000E+00 -2.569661026E+02  2.569661026E+02  0.000000000E+00  0.00000E+00  9.000E+00
      25     1     1     2     0     0 -1.642534880E+02  6.263459278E+01 -1.759345775E+02  2.783527907E+02  1.250000000E+02  0.00000E+00  9.000E+00
      25     1     1     2     0     0  1.550718603E+02 -4.951928172E+01  3.316117325E+02  3.899881822E+02  1.250000000E+02  0.00000E+00  9.000E+00
      21     1     1     2   511   502  9.181627737E+00 -1.311531105E+01  1.004050035E+02  1.016733908E+02  1.348699152E-06  0.00000E+00  9.000E+00
#rwgt            1           1   4.4873295068951859E-002           2      252479           0
</event>
<event>
      5   9999  3.79277E-02  4.63861E+01 -1.00000E+00  1.40960E-01
      21    -1     0     0   502   512  0.000000000E+00  0.000000000E+00  8.114701232E+02  8.114701232E+02  0.000000000E+00  0.00000E+00  9.000E+00
      21    -1     0     0   501   502  0.000000000E+00  0.000000000E+00 -5.636779193E+01  5.636779193E+01  0.000000000E+00  0.00000E+00  9.000E+00
      25     1     1     2     0     0 -1.070711910E+02 -6.840350452E+01  4.394619006E+02  4.742310001E+02  1.250000000E+02  0.00000E+00  9.000E+00
      25     1     1     2     0     0  1.303544973E+02  2.828424073E+01  2.111786202E+02  2.793093319E+02  1.250000000E+02  0.00000E+00  9.000E+00
      21     1     1     2   501   512 -2.328330628E+01  4.011926379E+01  1.044618105E+02  1.142975832E+02  1.348699152E-06  0.00000E+00  9.000E+00
#rwgt            1           1   3.4282000394868464E-002           2      252703           0
</event>
<event>
      5   9999  3.79277E-02  9.82685E+00 -1.00000E+00  1.96638E-01
      21    -1     0     0   511   501  0.000000000E+00  0.000000000E+00  1.812087701E+01  1.812087701E+01  0.000000000E+00  0.00000E+00  9.000E+00
      21    -1     0     0   501   502  0.000000000E+00  0.000000000E+00 -2.211881552E+03  2.211881552E+03  0.000000000E+00  0.00000E+00  9.000E+00
      25     1     1     2     0     0  5.725579305E+01  1.270216742E+02 -1.203806418E+03  1.218272393E+03  1.250000000E+02  0.00000E+00  9.000E+00
      25     1     1     2     0     0 -4.773609650E+01 -1.245839871E+02 -9.825799407E+02  9.994439677E+02  1.250000000E+02  0.00000E+00  9.000E+00
      21     1     1     2   511   502 -9.519696555E+00 -2.437687035E+00 -7.374317077E+00  1.228606906E+01  5.960464478E-07  0.00000E+00  9.000E+00
#rwgt            1           1   7.9412872135140561E-002           2      252929           0
</event>
<event>
      5   9999  3.79277E-02  4.70253E+01 -1.00000E+00  1.40613E-01
      21    -1     0     0   502   501  0.000000000E+00  0.000000000E+00  1.230670334E+03  1.230670334E+03  0.000000000E+00  0.00000E+00  9.000E+00
      21    -1     0     0   501   512  0.000000000E+00  0.000000000E+00 -1.113608136E+02  1.113608136E+02  0.000000000E+00  0.00000E+00  9.000E+00
      25     1     1     2     0     0 -7.618856301E+01  2.927973968E+02  6.697547156E+02  7.454739377E+02  1.250000000E+02  0.00000E+00  9.000E+00
      25     1     1     2     0     0  3.171902302E+01 -2.775056126E+02  4.559300875E+02  5.491017266E+02  1.250000000E+02  0.00000E+00  9.000E+00
      21     1     1     2   502   512  4.446953999E+01 -1.529178424E+01 -6.375282827E+00  4.745548317E+01  1.105501472E-06  0.00000E+00  9.000E+00
#rwgt            1           1   3.3631152500539149E-002           2      253163           0
</event>
<event>
      5   9999  3.79277E-02  1.43704E+02 -1.00000E+00  1.17136E-01
      21    -1     0     0   502   501  0.000000000E+00  0.000000000E+00  8.269371060E+02  8.269371060E+02  0.000000000E+00  0.00000E+00  9.000E+00
      21    -1     0     0   511   502  0.000000000E+00  0.000000000E+00 -1.268870907E+02  1.268870907E+02  0.000000000E+00  0.00000E+00  9.000E+00
      25     1     1     2     0     0 -2.536658147E+02  2.350702216E+01  2.672662154E+02  3.898142577E+02  1.250000000E+02  0.00000E+00  9.000E+00
      25     1     1     2     0     0  1.172296756E+02  2.161634217E+01  3.677105187E+02  4.062586475E+02  1.250000000E+02  0.00000E+00  9.000E+00
      21     1     1     2   511   501  1.364361391E+02 -4.512336433E+01  6.507328113E+01  1.577512915E+02  9.536743164E-07  0.00000E+00  9.000E+00
#rwgt            1           1   4.3073731888996845E-002           2      253373           0
</event>
<event>
      5   9999  3.79277E-02  7.47276E+01 -1.00000E+00  1.29799E-01
      21    -1     0     0   512   501  0.000000000E+00  0.000000000E+00  1.909974210E+02  1.909974210E+02  0.000000000E+00  0.00000E+00  9.000E+00
      21    -1     0     0   501   502  0.000000000E+00  0.000000000E+00 -5.412870717E+02  5.412870717E+02  0.000000000E+00  0.00000E+00  9.000E+00
      25     1     1     2     0     0  7.431259012E+01 -1.989495626E+01 -4.479132382E+02  4.713485327E+02  1.250000000E+02  0.00000E+00  9.000E+00
      25     1     1     2     0     0 -3.110770801E+00  4.257783838E+01 -7.105160378E+00  1.322801290E+02  1.250000000E+02  0.00000E+00  9.000E+00
      21     1     1     2   512   502 -7.120181932E+01 -2.268288212E+01  1.047287479E+02  1.286558310E+02  2.697398305E-06  0.00000E+00  9.000E+00
#rwgt            1           1   3.9126164387411226E-002           2      253442           0
</event>
<event>
      5   9999  3.79277E-02  4.04226E+01 -1.00000E+00  1.44558E-01
      21    -1     0     0   511   501  0.000000000E+00  0.000000000E+00  1.364374833E+02  1.364374833E+02  0.000000000E+00  0.00000E+00  9.000E+00
      21    -1     0     0   501   502  0.000000000E+00  0.000000000E+00 -4.284827502E+02  4.284827502E+02  0.000000000E+00  0.00000E+00  9.000E+00
      25     1     1     2     0     0 -3.077629226E+01  1.945446415E+02 -1.546128610E+02  2.798659223E+02  1.250000000E+02  0.00000E+00  9.000E+00
      25     1     1     2     0     0  5.282825754E+00 -1.631747512E+02 -1.318183956E+02  2.442437248E+02  1.250000000E+02  0.00000E+00  9.000E+00
      21     1     1     2   511   502  2.549346651E+01 -3.136989025E+01 -5.614010220E+00  4.081058637E+01  5.127385418E-07  0.00000E+00  9.000E+00
#rwgt            1           1   4.0892378633254824E-002           2      253494           0
</event>
<event>
      5   9999  3.79277E-02  6.70506E+01 -1.00000E+00  1.32175E-01
      21    -1     0     0   512   501  0.000000000E+00  0.000000000E+00  3.821769724E+02  3.821769724E+02  0.000000000E+00  0.00000E+00  9.000E+00
      21    -1     0     0   501   502  0.000000000E+00  0.000000000E+00 -5.742957821E+02  5.742957821E+02  0.000000000E+00  0.00000E+00  9.000E+00
      25     1     1     2     0     0  3.728002502E+02 -2.049786961E+02  4.601145580E+01  4.458007924E+02  1.250000000E+02  0.00000E+00  9.000E+00
      25     1     1     2     0     0 -3.190798193E+02  1.648550805E+02 -2.264873942E+02  4.426179711E+02  1.250000000E+02  0.00000E+00  9.000E+00
      21     1     1     2   512   502 -5.372043095E+01  4.012361566E+01 -1.164287137E+01  6.805399098E+01  5.840038640E-07  0.00000E+00  9.000E+00
#rwgt            1           1   2.8193046953000764E-002           2      253623           0
</event>
<event>
      5   9999  3.79277E-02  2.91117E+01 -1.00000E+00  1.53952E-01
      21    -1     0     0   502   511  0.000000000E+00  0.000000000E+00  3.094679826E+02  3.094679826E+02  0.000000000E+00  0.00000E+00  9.000E+00
      21    -1     0     0   501   502  0.000000000E+00  0.000000000E+00 -3.590659869E+02  3.590659869E+02  0.000000000E+00  0.00000E+00  9.000E+00
      25     1     1     2     0     0 -2.128009554E+02  1.954676061E+02  2.282252515E+01  3.156543985E+02  1.250000000E+02  0.00000E+00  9.000E+00
      25     1     1     2     0     0  2.139261013E+02 -1.663776567E+02 -9.800091243E+01  3.141258988E+02  1.250000000E+02  0.00000E+00  9.000E+00
      21     1     1     2   501   511 -1.125145893E+00 -2.908994940E+01  2.558038299E+01  3.875367213E+01  3.371747881E-07  0.00000E+00  9.000E+00
#rwgt            1           1   3.5053246263581896E-002           2      253764           0
</event>
<event>
      5   9999  3.79277E-02  2.72217E+01 -1.00000E+00  1.56030E-01
      21    -1     0     0   512   501  0.000000000E+00  0.000000000E+00  1.560949968E+02  1.560949968E+02  0.000000000E+00  0.00000E+00  9.000E+00
      21    -1     0     0   501   502  0.000000000E+00  0.000000000E+00 -2.758874949E+02  2.758874949E+02  0.000000000E+00  0.00000E+00  9.000E+00
      25     1     1     2     0     0 -1.095133483E+02 -2.016392996E+01  4.058971046E+01  1.722564429E+02  1.250000000E+02  0.00000E+00  9.000E+00
      25     1     1     2     0     0  9.058199869E+01  3.972479719E+01 -1.678713805E+02  2.314928906E+02  1.250000000E+02  0.00000E+00  9.000E+00
      21     1     1     2   512   502  1.893134959E+01 -1.956086722E+01  7.489171939E+00  2.823315817E+01  1.685873940E-07  0.00000E+00  9.000E+00
#rwgt            1           1   4.4200797950934768E-002           2      253901           0
</event>
<event>
      5   9999  3.79277E-02  1.49346E+02 -1.00000E+00  1.16469E-01
       1    -1     0     0   502     0  0.000000000E+00  0.000000000E+00  2.612648023E+03  2.612648023E+03  0.000000000E+00  0.00000E+00  9.000E+00
      21    -1     0     0   501   502  0.000000000E+00  0.000000000E+00 -8.262667878E+01  8.262667878E+01  0.000000000E+00  0.00000E+00  9.000E+00
      25     1     1     2     0     0  9.231614516E+01  3.046240248E+01  2.600146114E+02  3.044385435E+02  1.250000000E+02  0.00000E+00  9.000E+00
      25     1     1     2     0     0 -1.602262776E+02 -1.634754163E+02  2.371715481E+02  3.525223610E+02  1.250000000E+02  0.00000E+00  9.000E+00
       1     1     1     2   501     0  6.791013246E+01  1.330130138E+02  2.032835184E+03  2.038313797E+03  2.157918644E-05  0.00000E+00  9.000E+00
#rwgt            1           1   3.5051437692921947E-002           2      254009           0
</event>
<event>
      5   9999  3.79277E-02  1.89919E+01 -1.00000E+00  1.68244E-01
      21    -1     0     0   502   501  0.000000000E+00  0.000000000E+00  2.784259129E+02  2.784259129E+02  0.000000000E+00  0.00000E+00  9.000E+00
      21    -1     0     0   511   502  0.000000000E+00  0.000000000E+00 -3.688270659E+02  3.688270659E+02  0.000000000E+00  0.00000E+00  9.000E+00
      25     1     1     2     0     0 -9.975493207E+01  2.195442802E+02 -6.069201217E+01  2.783150333E+02  1.250000000E+02  0.00000E+00  9.000E+00
      25     1     1     2     0     0  8.129427671E+01 -2.150835796E+02  6.718431936E+01  2.702007372E+02  1.250000000E+02  0.00000E+00  9.000E+00
      21     1     1     2   511   501  1.846065536E+01 -4.460700594E+00 -9.689346024E+01  9.873720820E+01  0.000000000E+00  0.00000E+00  9.000E+00
#rwgt            1           1   4.7567309952386720E-002           2      254201           0
</event>
<event>
      5   9999  3.79277E-02  6.34508E+01 -1.00000E+00  1.33418E-01
      21    -1     0     0   502   501  0.000000000E+00  0.000000000E+00  9.989679708E+01  9.989679708E+01  0.000000000E+00  0.00000E+00  9.000E+00
      21    -1     0     0   501   512  0.000000000E+00  0.000000000E+00 -6.040486326E+02  6.040486326E+02  0.000000000E+00  0.00000E+00  9.000E+00
      25     1     1     2     0     0  1.577146066E+02 -5.605038954E+01 -8.132555123E+01  2.241749062E+02  1.250000000E+02  0.00000E+00  9.000E+00
      25     1     1     2     0     0 -9.562846231E+01  4.296183332E+01 -3.112562013E+02  3.514198981E+02  1.250000000E+02  0.00000E+00  9.000E+00
      21     1     1     2   502   512 -6.208614427E+01  1.308855622E+01 -1.115700830E+02  1.283506254E+02  1.907348633E-06  0.00000E+00  9.000E+00
#rwgt            1           1   3.9135422584751681E-002           2      254388           0
</event>
<event>
      5   9999  3.79277E-02  2.70216E+01 -1.00000E+00  1.56262E-01
      21    -1     0     0   502   501  0.000000000E+00  0.000000000E+00  1.340851594E+02  1.340851594E+02  0.000000000E+00  0.00000E+00  9.000E+00
       1    -1     0     0   501     0  0.000000000E+00  0.000000000E+00 -3.820709510E+03  3.820709510E+03  0.000000000E+00  0.00000E+00  9.000E+00
      25     1     1     2     0     0  1.615856600E+02  5.265112427E+01  1.891282434E+01  2.118130339E+02  1.250000000E+02  0.00000E+00  9.000E+00
      25     1     1     2     0     0 -1.350079411E+02 -4.777335691E+01 -4.652974675E+02  5.026292580E+02  1.250000000E+02  0.00000E+00  9.000E+00
       1     1     1     2   502     0 -2.657771897E+01 -4.877767352E+00 -3.240239708E+03  3.240352378E+03  4.315837288E-05  0.00000E+00  9.000E+00
#rwgt            1           1   2.9250531732835192E-002           2      254535           0
</event>
<event>
      5   9999  3.79277E-02  8.85356E+01 -1.00000E+00  1.26254E-01
      21    -1     0     0   502   501  0.000000000E+00  0.000000000E+00  3.489455531E+02  3.489455531E+02  0.000000000E+00  0.00000E+00  9.000E+00
      21    -1     0     0   501   511  0.000000000E+00  0.000000000E+00 -3.867861068E+02  3.867861068E+02  0.000000000E+00  0.00000E+00  9.000E+00
      25     1     1     2     0     0  2.413843979E+02  2.773733526E+01 -8.187377519E+01  2.852439349E+02  1.250000000E+02  0.00000E+00  9.000E+00
      25     1     1     2     0     0 -2.960195644E+02  4.193003943E+01  1.076501650E+02  3.414663509E+02  1.250000000E+02  0.00000E+00  9.000E+00
      21     1     1     2   502   511  5.463516650E+01 -6.966737469E+01 -6.361694356E+01  1.090213742E+02  9.536743164E-07  0.00000E+00  9.000E+00
#rwgt            1           1   3.3634443469634095E-002           2      254641           0
</event>
<event>
      5   9999  3.79277E-02  2.95679E+01 -1.00000E+00  1.53479E-01
      21    -1     0     0   502   512  0.000000000E+00  0.000000000E+00  5.712620356E+02  5.712620356E+02  0.000000000E+00  0.00000E+00  9.000E+00
      21    -1     0     0   501   502  0.000000000E+00  0.000000000E+00 -1.682563935E+02  1.682563935E+02  0.000000000E+00  0.00000E+00  9.000E+00
      25     1     1     2     0     0  1.110362236E+02 -1.875141068E+02  6.501028082E+01  2.595032173E+02  1.250000000E+02  0.00000E+00  9.000E+00
      25     1     1     2     0     0 -8.940179918E+01  1.673594411E+02  1.142460729E+02  2.543207215E+02  1.250000000E+02  0.00000E+00  9.000E+00
      21     1     1     2   501   512 -2.163442441E+01  2.015466561E+01  2.237492884E+02  2.256944902E+02  3.814697266E-06  0.00000E+00  9.000E+00
#rwgt            1           1  0.13447446681040695                2      254835           0
</event>
<event>
      5   9999  3.79277E-02  7.57190E+00 -1.00000E+00  2.10843E-01
      21    -1     0     0   502   511  0.000000000E+00  0.000000000E+00  5.793997356E+02  5.793997356E+02  0.000000000E+00  0.00000E+00  9.000E+00
      21    -1     0     0   501   502  0.000000000E+00  0.000000000E+00 -1.836775069E+02  1.836775069E+02  0.000000000E+00  0.00000E+00  9.000E+00
      25     1     1     2     0     0  1.047285736E+02  7.799022861E+01 -7.521468720E+01  1.957876377E+02  1.250000000E+02  0.00000E+00  9.000E+00
      25     1     1     2     0     0 -9.770726167E+01 -7.515563651E+01  1.119298853E+02  2.082027327E+02  1.250000000E+02  0.00000E+00  9.000E+00
      21     1     1     2   501   511 -7.021311971E+00 -2.834592098E+00  3.590070305E+02  3.590868721E+02  3.814697266E-06  0.00000E+00  9.000E+00
#rwgt            1           1   2.6811740181651961E-002           2      255043           0
</event>
<event>
      5   9999  3.79277E-02  4.18332E+01 -1.00000E+00  1.43643E-01
      21    -1     0     0   512   501  0.000000000E+00  0.000000000E+00  1.014104663E+02  1.014104663E+02  0.000000000E+00  0.00000E+00  9.000E+00
      21    -1     0     0   501   502  0.000000000E+00  0.000000000E+00 -8.143600466E+02  8.143600466E+02  0.000000000E+00  0.00000E+00  9.000E+00
      25     1     1     2     0     0  9.453134290E+01  1.622772752E+02 -5.334650032E+02  5.792063522E+02  1.250000000E+02  0.00000E+00  9.000E+00
      25     1     1     2     0     0 -1.359668622E+02 -1.565227155E+02 -1.615450578E+02  2.910466523E+02  1.250000000E+02  0.00000E+00  9.000E+00
      21     1     1     2   512   502  4.143551929E+01 -5.754559649E+00 -1.793951926E+01  4.551750836E+01  1.039242493E-06  0.00000E+00  9.000E+00
#rwgt            1           1   4.1876317199975643E-002           2      255426           0
</event>
<event>
      5   9999  3.79277E-02  5.57229E+01 -1.00000E+00  1.36442E-01
      21    -1     0     0   511   501  0.000000000E+00  0.000000000E+00  1.959292898E+03  1.959292898E+03  0.000000000E+00  0.00000E+00  9.000E+00
      21    -1     0     0   501   502  0.000000000E+00  0.000000000E+00 -4.637333422E+02  4.637333422E+02  0.000000000E+00  0.00000E+00  9.000E+00
      25     1     1     2     0     0 -1.810534777E+01 -2.122913328E+02 -1.383544014E+02  2.831295710E+02  1.250000000E+02  0.00000E+00  9.000E+00
      25     1     1     2     0     0  7.133076990E+01  1.957961231E+02 -1.941177232E+02  3.110159015E+02  1.250000000E+02  0.00000E+00  9.000E+00
      21     1     1     2   511   502 -5.322542213E+01  1.649520977E+01  1.828031680E+03  1.828880767E+03  0.000000000E+00  0.00000E+00  9.000E+00
#rwgt            1           1  0.34665495679557912                2      255549           0
</event>
<event>
      5   9999  3.79277E-02  3.27369E+01 -1.00000E+00  1.50452E-01
      21    -1     0     0   502   512  0.000000000E+00  0.000000000E+00  2.757771889E+02  2.757771889E+02  0.000000000E+00  0.00000E+00  9.000E+00
      21    -1     0     0   501   502  0.000000000E+00  0.000000000E+00 -2.758522465E+02  2.758522465E+02  0.000000000E+00  0.00000E+00  9.000E+00
      25     1     1     2     0     0 -1.191608097E+02  1.234996428E+02 -1.516047680E+02  2.608840088E+02  1.250000000E+02  0.00000E+00  9.000E+00
      25     1     1     2     0     0  9.463896707E+01 -1.451879870E+02  1.423075663E+02  2.567343551E+02  1.250000000E+02  0.00000E+00  9.000E+00
      21     1     1     2   501   512  2.452184266E+01  2.168834419E+01  9.222144125E+00  3.401107148E+01  6.951036328E-07  0.00000E+00  9.000E+00
#rwgt            1           1   3.0761028350981087E-002           2      255645           0
</event>
<event>
      5   9999  3.79277E-02  1.52929E+01 -1.00000E+00  1.76596E-01
      21    -1     0     0   502   501  0.000000000E+00  0.000000000E+00  7.211315582E+02  7.211315582E+02  0.000000000E+00  0.00000E+00  9.000E+00
      21    -1     0     0   511   502  0.000000000E+00  0.000000000E+00 -1.011538705E+02  1.011538705E+02  0.000000000E+00  0.00000E+00  9.000E+00
      25     1     1     2     0     0 -1.485257416E+02 -2.190365946E+01  1.347830101E+02  2.373417916E+02  1.250000000E+02  0.00000E+00  9.000E+00
      25     1     1     2     0     0  1.452733567E+02  3.684671025E+01  5.153867460E+02  5.510993796E+02  1.250000000E+02  0.00000E+00  9.000E+00
      21     1     1     2   511   501  3.252384949E+00 -1.494305079E+01 -3.019206842E+01  3.384425756E+01  9.536743164E-07  0.00000E+00  9.000E+00
#rwgt            1           1   4.2835561623132692E-002           2      255783           0
</event>
<event>
      5   9999  3.79277E-02  6.67193E+01 -1.00000E+00  1.32285E-01
      21    -1     0     0   512   501  0.000000000E+00  0.000000000E+00  4.602426652E+02  4.602426652E+02  0.000000000E+00  0.00000E+00  9.000E+00
      21    -1     0     0   501   502  0.000000000E+00  0.000000000E+00 -2.730436496E+02  2.730436496E+02  0.000000000E+00  0.00000E+00  9.000E+00
      25     1     1     2     0     0 -9.547326797E+01  1.005332043E+02  3.406236003E+02  3.884218160E+02  1.250000000E+02  0.00000E+00  9.000E+00
      25     1     1     2     0     0  6.016565473E+01 -1.571444384E+02 -1.767458706E+02  2.741867672E+02  1.250000000E+02  0.00000E+00  9.000E+00
      21     1     1     2   512   502  3.530761324E+01  5.661123408E+01  2.332128587E+01  7.067773166E+01  1.011524364E-06  0.00000E+00  9.000E+00
#rwgt            1           1   3.5423826342906167E-002           2      256007           0
</event>
<event>
      5   9999  3.79277E-02  7.95655E+00 -1.00000E+00  2.07980E-01
      21    -1     0     0   511   501  0.000000000E+00  0.000000000E+00  4.895713030E+02  4.895713030E+02  0.000000000E+00  0.00000E+00  9.000E+00
      21    -1     0     0   501   502  0.000000000E+00  0.000000000E+00 -9.516618579E+01  9.516618579E+01  0.000000000E+00  0.00000E+00  9.000E+00
      25     1     1     2     0     0  1.159397604E+02  3.891489084E+01  1.356808644E+02  2.213384145E+02  1.250000000E+02  0.00000E+00  9.000E+00
      25     1     1     2     0     0 -1.114501172E+02 -3.234603556E+01  8.696522639E+01  1.914558572E+02  1.250000000E+02  0.00000E+00  9.000E+00
      21     1     1     2   511   502 -4.489643268E+00 -6.568855288E+00  1.717590264E+02  1.719432171E+02  0.000000000E+00  0.00000E+00  9.000E+00
#rwgt            1           1   6.3860940162711752E-002           2      256237           0
</event>
<event>
      5   9999 -3.79277E-02  1.24659E+02 -1.00000E+00  1.19670E-01
      21    -1     0     0   502   501  0.000000000E+00  0.000000000E+00  5.756187120E+02  5.756187120E+02  0.000000000E+00  0.00000E+00  9.000E+00
      21    -1     0     0   512   502  0.000000000E+00  0.000000000E+00 -2.162827925E+02  2.162827925E+02  0.000000000E+00  0.00000E+00  9.000E+00
      25     1     1     2     0     0  6.637879986E+01  2.771549142E+02  1.834869824E+02  3.612664726E+02  1.250000000E+02  0.00000E+00  9.000E+00
      25     1     1     2     0     0 -6.519252982E+01 -1.525015856E+02  2.160227615E+02  2.996625319E+02  1.250000000E+02  0.00000E+00  9.000E+00
      21     1     1     2   512   501 -1.186270043E+00 -1.246533286E+02 -4.017382444E+01  1.309725000E+02  1.430511475E-06  0.00000E+00  9.000E+00
#rwgt            1           1 -0.12086273307330780                2      256485           0
</event>
<event>
      5   9999  3.79277E-02  4.01072E+01 -1.00000E+00  1.44768E-01
      21    -1     0     0   502   511  0.000000000E+00  0.000000000E+00  4.889814722E+02  4.889814722E+02  0.000000000E+00  0.00000E+00  9.000E+00
      21    -1     0     0   501   502  0.000000000E+00  0.000000000E+00 -3.090471183E+02  3.090471183E+02  0.000000000E+00  0.00000E+00  9.000E+00
      25     1     1     2     0     0 -1.050847880E+02 -1.543507589E+02 -9.669547772E+01  2.446262145E+02  1.250000000E+02  0.00000E+00  9.000E+00
      25     1     1     2     0     0  6.698089971E+01  1.668678468E+02 -4.974849355E+01  2.245689913E+02  1.250000000E+02  0.00000E+00  9.000E+00
      21     1     1     2   501   511  3.810388825E+01 -1.251708799E+01  3.263783252E+02  3.288333847E+02  0.000000000E+00  0.00000E+00  9.000E+00
#rwgt            1           1   4.6939252142382669E-002           2      256535           0
</event>
<event>
      5   9999  3.79277E-02  2.34909E+01 -1.00000E+00  1.60803E-01
      21    -1     0     0   502   501  0.000000000E+00  0.000000000E+00  1.685099225E+02  1.685099225E+02  0.000000000E+00  0.00000E+00  9.000E+00
      21    -1     0     0   512   502  0.000000000E+00  0.000000000E+00 -5.259221876E+02  5.259221876E+02  0.000000000E+00  0.00000E+00  9.000E+00
      25     1     1     2     0     0  4.027898752E+01  5.706275667E+01 -1.798915539E+02  2.299228701E+02  1.250000000E+02  0.00000E+00  9.000E+00
      25     1     1     2     0     0 -4.220214390E+01 -8.047482781E+01  1.012482106E+02  1.847523180E+02  1.250000000E+02  0.00000E+00  9.000E+00
      21     1     1     2   512   501  1.923156378E+00  2.341207114E+01 -2.787689219E+02  2.797569220E+02  3.814697266E-06  0.00000E+00  9.000E+00
#rwgt            1           1   4.2086353604700429E-002           2      256692           0
</event>
<event>
      5   9999  3.79277E-02  4.03821E+01 -1.00000E+00  1.44585E-01
      21    -1     0     0   502   501  0.000000000E+00  0.000000000E+00  4.474568630E+02  4.474568630E+02  0.000000000E+00  0.00000E+00  9.000E+00
      21    -1     0     0   501   511  0.000000000E+00  0.000000000E+00 -3.534353753E+02  3.534353753E+02  0.000000000E+00  0.00000E+00  9.000E+00
      25     1     1     2     0     0 -4.807152703E+01 -1.722905369E+02  2.198665214E+02  3.097760288E+02  1.250000000E+02  0.00000E+00  9.000E+00
      25     1     1     2     0     0  7.560265446E+01  1.427481418E+02  1.233925542E+02  2.386284053E+02  1.250000000E+02  0.00000E+00  9.000E+00
      21     1     1     2   502   511 -2.753112743E+01  2.954239503E+01 -2.492375878E+02  2.524878042E+02  6.031565972E-06  0.00000E+00  9.000E+00
#rwgt            1           1   3.7343571478502181E-002           2      257032           0
</event>
<event>
      5   9999  3.79277E-02  2.36475E+01 -1.00000E+00  1.60582E-01
      21    -1     0     0   502   512  0.000000000E+00  0.000000000E+00  4.422269998E+02  4.422269998E+02  0.000000000E+00  0.00000E+00  9.000E+00
      21    -1     0     0   501   502  0.000000000E+00  0.000000000E+00 -6.770261587E+01  6.770261587E+01  0.000000000E+00  0.00000E+00  9.000E+00
      25     1     1     2     0     0 -4.565294695E+01 -3.571149136E+01  4.717553883E+01  1.456366494E+02  1.250000000E+02  0.00000E+00  9.000E+00
      25     1     1     2     0     0  2.445790057E+01  4.619838244E+01  2.654041962E+02  2.979880313E+02  1.250000000E+02  0.00000E+00  9.000E+00
      21     1     1     2   501   512  2.119504638E+01 -1.048689108E+01  6.194464884E+01  6.630493492E+01  6.743495762E-07  0.00000E+00  9.000E+00
#rwgt            1           1   4.7506335197627238E-002           2      257173           0
</event>
<event>
      5   9999  3.79277E-02  9.14414E+01 -1.00000E+00  1.25601E-01
       4    -1     0     0   502     0  0.000000000E+00  0.000000000E+00  1.859851354E+03  1.859851354E+03  0.000000000E+00  0.00000E+00  9.000E+00
      21    -1     0     0   501   502  0.000000000E+00  0.000000000E+00 -4.565166010E+01  4.565166010E+01  0.000000000E+00  0.00000E+00  9.000E+00
      25     1     1     2     0     0 -1.502301537E+01  1.413426999E+02  2.352363457E+02  3.019347416E+02  1.250000000E+02  0.00000E+00  9.000E+00
      25     1     1     2     0     0  8.193708518E+01 -7.902065689E+01  7.120518161E+02  7.318474834E+02  1.250000000E+02  0.00000E+00  9.000E+00
       4     1     1     2   501     0 -6.691406981E+01 -6.232204302E+01  8.669115316E+02  8.717207887E+02  1.078959322E-05  0.00000E+00  9.000E+00
#rwgt            1           1   9.9919116611860967E-002           2      257336           0
</event>
<event>
      5   9999  3.79277E-02  1.61051E+01 -1.00000E+00  1.74524E-01
      21    -1     0     0   502   501  0.000000000E+00  0.000000000E+00  2.698453669E+02  2.698453669E+02  0.000000000E+00  0.00000E+00  9.000E+00
      21    -1     0     0   511   502  0.000000000E+00  0.000000000E+00 -1.837167259E+02  1.837167259E+02  0.000000000E+00  0.00000E+00  9.000E+00
      25     1     1     2     0     0  5.301872521E+01  8.589400559E+01 -2.923953741E+01  1.633055907E+02  1.250000000E+02  0.00000E+00  9.000E+00
      25     1     1     2     0     0 -4.444933636E+01 -9.952998318E+01  1.674851047E+02  2.357079153E+02  1.250000000E+02  0.00000E+00  9.000E+00
      21     1     1     2   511   501 -8.569388855E+00  1.363597759E+01 -5.211692626E+01  5.454858672E+01  6.743495762E-07  0.00000E+00  9.000E+00
#rwgt            1           1   3.7443935685310958E-002           2      257407           0
</event>
<event>
      5   9999  3.79277E-02  6.41929E+01 -1.00000E+00  1.33154E-01
      21    -1     0     0   502   501  0.000000000E+00  0.000000000E+00  6.280077762E+02  6.280077762E+02  0.000000000E+00  0.00000E+00  9.000E+00
       1    -1     0     0   501     0  0.000000000E+00  0.000000000E+00 -5.964685191E+02  5.964685191E+02  0.000000000E+00  0.00000E+00  9.000E+00
      25     1     1     2     0     0 -6.321372653E+01  1.540669499E+02  5.229363766E+02  5.628677058E+02  1.250000000E+02  0.00000E+00  9.000E+00
      25     1     1     2     0     0  9.716826820E+01 -9.958927788E+01 -2.256038583E+01  1.883976317E+02  1.250000000E+02  0.00000E+00  9.000E+00
       1     1     1     2   502     0 -3.395454167E+01 -5.447767201E+01 -4.688367337E+02  4.732109577E+02  9.344061824E-06  0.00000E+00  9.000E+00
#rwgt            1           1   3.8424863003955978E-002           2      257731           0
</event>
<event>
      5   9999  3.79277E-02  1.87107E+01 -1.00000E+00  1.68793E-01
      21    -1     0     0   502   501  0.000000000E+00  0.000000000E+00  4.027273794E+02  4.027273794E+02  0.000000000E+00  0.00000E+00  9.000E+00
      21    -1     0     0   501   511  0.000000000E+00  0.000000000E+00 -1.928157470E+02  1.928157470E+02  0.000000000E+00  0.00000E+00  9.000E+00
      25     1     1     2     0     0 -1.330528205E+01  5.316579741E+01 -4.077663655E+00  1.365476469E+02  1.250000000E+02  0.00000E+00  9.000E+00
      25     1     1     2     0     0  1.227894416E+01 -7.184832136E+01  3.200797476E+02  3.512677022E+02  1.250000000E+02  0.00000E+00  9.000E+00
      21     1     1     2   502   511  1.026337890E+00  1.868252396E+01 -1.060904516E+02  1.077277772E+02  1.348699152E-06  0.00000E+00  9.000E+00
#rwgt            1           1   5.3393931715602118E-002           2      257833           0
</event>
<event>
      5   9999  3.79277E-02  5.60575E+01 -1.00000E+00  1.36300E-01
      21    -1     0     0   502   512  0.000000000E+00  0.000000000E+00  8.984534460E+02  8.984534460E+02  0.000000000E+00  0.00000E+00  9.000E+00
      21    -1     0     0   501   502  0.000000000E+00  0.000000000E+00 -6.596042739E+01  6.596042739E+01  0.000000000E+00  0.00000E+00  9.000E+00
      25     1     1     2     0     0  1.170697308E+02 -2.670352999E+01  1.064563511E+02  2.034117869E+02  1.250000000E+02  0.00000E+00  9.000E+00
      25     1     1     2     0     0 -1.035974384E+02 -2.771100355E+01  4.466680754E+02  4.760648050E+02  1.250000000E+02  0.00000E+00  9.000E+00
      21     1     1     2   501   512 -1.347229234E+01  5.441453354E+01  2.793685920E+02  2.849372814E+02  0.000000000E+00  0.00000E+00  9.000E+00
#rwgt            1           1   3.5953912001387131E-002           2      258296           0
</event>
<event>
      5   9999 -3.79277E-02  1.04147E+02 -1.00000E+00  1.23039E-01
      21    -1     0     0   502   501  0.000000000E+00  0.000000000E+00  6.856272710E+02  6.856272710E+02  0.000000000E+00  0.00000E+00  9.000E+00
      21    -1     0     0   501   511  0.000000000E+00  0.000000000E+00 -1.403933468E+02  1.403933468E+02  0.000000000E+00  0.00000E+00  9.000E+00
      25     1     1     2     0     0 -7.012600935E+01 -1.745114277E+01  3.322128074E+02  3.622327276E+02  1.250000000E+02  0.00000E+00  9.000E+00
      25     1     1     2     0     0  1.539092648E+02 -4.441067198E+01  2.755105586E+02  3.423323495E+02  1.250000000E+02  0.00000E+00  9.000E+00
      21     1     1     2   502   511 -8.378325548E+01  6.186181475E+01 -6.248944178E+01  1.214555407E+02  1.507891493E-06  0.00000E+00  9.000E+00
#rwgt            1           1  -1.7818265828013803E-002           2      258402           0
</event>
<event>
      5   9999  3.79277E-02  1.40359E+01 -1.00000E+00  1.80145E-01
      21    -1     0     0   502   501  0.000000000E+00  0.000000000E+00  2.822488106E+02  2.822488106E+02  0.000000000E+00  0.00000E+00  9.000E+00
      21    -1     0     0   501   512  0.000000000E+00  0.000000000E+00 -2.630787332E+02  2.630787332E+02  0.000000000E+00  0.00000E+00  9.000E+00
      25     1     1     2     0     0 -1.262877764E+02 -1.822285535E+02 -3.262379716E+01  2.566031183E+02  1.250000000E+02  0.00000E+00  9.000E+00
      25     1     1     2     0     0  1.402534071E+02  1.808253775E+02  6.576363386E+01  2.689213470E+02  1.250000000E+02  0.00000E+00  9.000E+00
      21     1     1     2   502   512 -1.396563070E+01  1.403176038E+00 -1.396975929E+01  1.980307851E+01  2.384185791E-07  0.00000E+00  9.000E+00
#rwgt            1           1   9.2988382162011565E-002           2      258440           0
</event>
<event>
      5   9999  3.79277E-02  2.44789E+01 -1.00000E+00  1.59439E-01
      21    -1     0     0   502   501  0.000000000E+00  0.000000000E+00  1.048114288E+03  1.048114288E+03  0.000000000E+00  0.00000E+00  9.000E+00
      21    -1     0     0   511   502  0.000000000E+00  0.000000000E+00 -6.006571683E+01  6.006571683E+01  0.000000000E+00  0.00000E+00  9.000E+00
      25     1     1     2     0     0 -4.238100641E+01  6.367575454E+01  8.978154601E+02  9.096968461E+02  1.250000000E+02  0.00000E+00  9.000E+00
      25     1     1     2     0     0  1.791092395E+01 -6.433397264E+01  9.856405642E+01  1.726254166E+02  1.250000000E+02  0.00000E+00  9.000E+00
      21     1     1     2   511   501  2.447008246E+01  6.582180972E-01 -8.330945228E+00  2.585774226E+01  1.168007728E-06  0.00000E+00  9.000E+00
#rwgt            1           1   5.6748327438369446E-002           2      258785           0
</event>
<event>
      5   9999  3.79277E-02  7.08237E+01 -1.00000E+00  1.30964E-01
      21    -1     0     0   502   501  0.000000000E+00  0.000000000E+00  5.798420531E+02  5.798420531E+02  0.000000000E+00  0.00000E+00  9.000E+00
      -1    -1     0     0     0   502  0.000000000E+00  0.000000000E+00 -2.383262317E+02  2.383262317E+02  0.000000000E+00  0.00000E+00  9.000E+00
      25     1     1     2     0     0 -2.625662717E+02 -8.899338416E+01  1.812108964E+01  3.046543013E+02  1.250000000E+02  0.00000E+00  9.000E+00
      25     1     1     2     0     0  2.899423938E+02  2.367461619E+01  3.065608694E+02  4.407171949E+02  1.250000000E+02  0.00000E+00  9.000E+00
      -1     1     1     2     0   501 -2.737612219E+01  6.531876798E+01  1.683386236E+01  7.279678865E+01  1.238859277E-06  0.00000E+00  9.000E+00
#rwgt            2          10   1.1878734264539164E-005           2      258948           0
</event>
<event>
      5   9999  3.79277E-02  1.93688E+01 -1.00000E+00  1.67526E-01
      21    -1     0     0   502   501  0.000000000E+00  0.000000000E+00  1.616145483E+02  1.616145483E+02  0.000000000E+00  0.00000E+00  9.000E+00
      21    -1     0     0   501   511  0.000000000E+00  0.000000000E+00 -4.105077042E+02  4.105077042E+02  0.000000000E+00  0.00000E+00  9.000E+00
      25     1     1     2     0     0  6.367616890E+01  1.303131200E+02  5.456579484E+01  1.990944241E+02  1.250000000E+02  0.00000E+00  9.000E+00
      25     1     1     2     0     0 -8.266797416E+01 -1.265100074E+02 -2.620534225E+02  3.273160127E+02  1.250000000E+02  0.00000E+00  9.000E+00
      21     1     1     2   502   511  1.899180525E+01 -3.803112603E+00 -4.140552826E+01  4.571181579E+01  4.768371582E-07  0.00000E+00  9.000E+00
#rwgt            1           1   3.8198381032180574E-002           2      258967           0
</event>
<event>
      5   9999 -3.79277E-02  1.18066E+02 -1.00000E+00  1.20669E-01
      21    -1     0     0   502   501  0.000000000E+00  0.000000000E+00  2.294499645E+02  2.294499645E+02  0.000000000E+00  0.00000E+00  9.000E+00
      21    -1     0     0   512   502  0.000000000E+00  0.000000000E+00 -9.890941324E+02  9.890941324E+02  0.000000000E+00  0.00000E+00  9.000E+00
      25     1     1     2     0     0  8.451265281E+01 -1.878584296E+02  8.045279122E+01  2.540291906E+02  1.250000000E+02  0.00000E+00  9.000E+00
      25     1     1     2     0     0  1.756287774E+01  1.285274537E+02 -8.314099590E+01  1.984066184E+02  1.250000000E+02  0.00000E+00  9.000E+00
      21     1     1     2   512   501 -1.020755306E+02  5.933097592E+01 -7.569559632E+02  7.661082879E+02  1.078959322E-05  0.00000E+00  9.000E+00
#rwgt            1           1 -0.13594793356824020                2      259210           0
</event>
<event>
      5   9999  3.79277E-02  3.71547E+01 -1.00000E+00  1.46856E-01
      21    -1     0     0   502   511  0.000000000E+00  0.000000000E+00  7.728823022E+02  7.728823022E+02  0.000000000E+00  0.00000E+00  9.000E+00
      21    -1     0     0   501   502  0.000000000E+00  0.000000000E+00 -8.780292436E+01  8.780292436E+01  0.000000000E+00  0.00000E+00  9.000E+00
      25     1     1     2     0     0  1.155350212E+02 -1.285126517E+02  1.308052822E+02  2.501976511E+02  1.250000000E+02  0.00000E+00  9.000E+00
      25     1     1     2     0     0 -1.439171391E+02  1.045350791E+02  4.933479301E+02  5.391260574E+02  1.250000000E+02  0.00000E+00  9.000E+00
      21     1     1     2   501   511  2.838211793E+01  2.397757262E+01  6.092616552E+01  7.136151800E+01  9.536743164E-07  0.00000E+00  9.000E+00
#rwgt            1           1   4.8182444340153875E-002           2      259295           0
</event>
<event>
      5   9999 -3.79277E-02  9.10186E+00 -1.00000E+00  2.00603E-01
      21    -1     0     0   502   501  0.000000000E+00  0.000000000E+00  1.081683511E+02  1.081683511E+02  0.000000000E+00  0.00000E+00  9.000E+00
      21    -1     0     0   501   512  0.000000000E+00  0.000000000E+00 -7.293241862E+02  7.293241862E+02  0.000000000E+00  0.00000E+00  9.000E+00
      25     1     1     2     0     0 -3.269437493E+01  2.289241701E+02 -1.751152401E+02  3.158568428E+02  1.250000000E+02  0.00000E+00  9.000E+00
      25     1     1     2     0     0  2.499682295E+01 -2.240670567E+02 -4.087625118E+02  4.832625354E+02  1.250000000E+02  0.00000E+00  9.000E+00
      21     1     1     2   502   512  7.697551984E+00 -4.857113467E+00 -3.727808318E+01  3.837315916E+01  4.768371582E-07  0.00000E+00  9.000E+00
#rwgt            1           1  -2.3511906494506150E-002           2      259428           0
</event>
<event>
      5   9999  3.79277E-02  6.45779E+01 -1.00000E+00  1.33019E-01
      21    -1     0     0   502   511  0.000000000E+00  0.000000000E+00  1.345548797E+03  1.345548797E+03  0.000000000E+00  0.00000E+00  9.000E+00
      21    -1     0     0   501   502  0.000000000E+00  0.000000000E+00 -4.409917518E+02  4.409917518E+02  0.000000000E+00  0.00000E+00  9.000E+00
      25     1     1     2     0     0 -4.651912082E+01  2.488972769E+01 -3.234917010E+02  3.507925423E+02  1.250000000E+02  0.00000E+00  9.000E+00
      25     1     1     2     0     0  4.121814695E+00 -7.360081217E+01 -5.193905765E+01  1.541321985E+02  1.250000000E+02  0.00000E+00  9.000E+00
      21     1     1     2   501   511  4.239730613E+01  4.871108447E+01  1.279987804E+03  1.281615808E+03  2.157918644E-05  0.00000E+00  9.000E+00
#rwgt            1           1   2.9228348408279300E-002           2      259765           0
</event>
<event>
      5   9999  3.79277E-02  1.49557E+01 -1.00000E+00  1.77505E-01
      21    -1     0     0   502   501  0.000000000E+00  0.000000000E+00  3.569477879E+01  3.569477879E+01  0.000000000E+00  0.00000E+00  9.000E+00
      21    -1     0     0   501   512  0.000000000E+00  0.000000000E+00 -2.295323477E+03  2.295323477E+03  0.000000000E+00  0.00000E+00  9.000E+00
      25     1     1     2     0     0  9.861400044E+01 -1.118295884E+02 -3.890981974E+02  4.350321657E+02  1.250000000E+02  0.00000E+00  9.000E+00
      25     1     1     2     0     0 -1.109080804E+02  1.033132764E+02 -7.484703221E+02  7.738262457E+02  1.250000000E+02  0.00000E+00  9.000E+00
      21     1     1     2   502   512  1.229407994E+01  8.516312027E+00 -1.122060179E+03  1.122159844E+03  0.000000000E+00  0.00000E+00  9.000E+00
#rwgt            1           1   5.0266550056855361E-002           2      259937           0
</event>
<event>
      5   9999 -3.79277E-02  4.81389E+01 -1.00000E+00  1.40022E-01
      21    -1     0     0   502   501  0.000000000E+00  0.000000000E+00  5.957380827E+02  5.957380827E+02  0.000000000E+00  0.00000E+00  9.000E+00
      21    -1     0     0   511   502  0.000000000E+00  0.000000000E+00 -4.298116997E+02  4.298116997E+02  0.000000000E+00  0.00000E+00  9.000E+00
      25     1     1     2     0     0 -1.635627870E+02  1.388703047E+01  1.258411186E+02  2.416746202E+02  1.250000000E+02  0.00000E+00  9.000E+00
      25     1     1     2     0     0  1.520690847E+02 -6.063363399E+01  3.844555555E+02  4.361565295E+02  1.250000000E+02  0.00000E+00  9.000E+00
      21     1     1     2   511   501  1.149370234E+01  4.674660352E+01 -3.443702911E+02  3.477186327E+02  6.607249480E-06  0.00000E+00  9.000E+00
#rwgt            1           1 -0.15035810509023839                2      260174           0
</event>
<event>
      5   9999  3.79277E-02  2.34117E+01 -1.00000E+00  1.60916E-01
      21    -1     0     0   512   501  0.000000000E+00  0.000000000E+00  2.223820661E+02  2.223820661E+02  0.000000000E+00  0.00000E+00  9.000E+00
      21    -1     0     0   501   502  0.000000000E+00  0.000000000E+00 -1.701035108E+02  1.701035108E+02  0.000000000E+00  0.00000E+00  9.000E+00
      25     1     1     2     0     0  8.086288822E+01  6.636170783E+01  1.035508317E+02  1.931073735E+02  1.250000000E+02  0.00000E+00  9.000E+00
      25     1     1     2     0     0 -9.661700022E+01 -4.904368131E+01 -5.753398706E+01  1.751436184E+02  1.250000000E+02  0.00000E+00  9.000E+00
      21     1     1     2   512   502  1.575411199E+01 -1.731802652E+01  6.261710690E+00  2.423458496E+01  2.064765462E-07  0.00000E+00  9.000E+00
#rwgt            1           1   4.3665838919563660E-002           2      260300           0
</event>
<event>
      5   9999  3.79277E-02  5.82232E+01 -1.00000E+00  1.35405E-01
      21    -1     0     0   502   511  0.000000000E+00  0.000000000E+00  3.906014754E+02  3.906014754E+02  0.000000000E+00  0.00000E+00  9.000E+00
      21    -1     0     0   501   502  0.000000000E+00  0.000000000E+00 -2.159454432E+02  2.159454432E+02  0.000000000E+00  0.00000E+00  9.000E+00
      25     1     1     2     0     0  2.873038244E+01  7.016794887E+01 -1.647041120E+02  2.202303804E+02  1.250000000E+02  0.00000E+00  9.000E+00
      25     1     1     2     0     0 -2.794960337E+00 -1.804030691E+01  2.282839289E+02  2.609057620E+02  1.250000000E+02  0.00000E+00  9.000E+00
      21     1     1     2   501   511 -2.593542210E+01 -5.212764196E+01  1.110762153E+02  1.254107762E+02  1.348699152E-06  0.00000E+00  9.000E+00
#rwgt            1           1   3.5374686267525289E-002           2      260491           0
</event>
<event>
      5   9999  3.79277E-02  8.10603E+01 -1.00000E+00  1.28073E-01
      21    -1     0     0   502   512  0.000000000E+00  0.000000000E+00  3.885605605E+01  3.885605605E+01  0.000000000E+00  0.00000E+00  9.000E+00
      21    -1     0     0   501   502  0.000000000E+00  0.000000000E+00 -1.023539497E+03  1.023539497E+03  0.000000000E+00  0.00000E+00  9.000E+00
      25     1     1     2     0     0 -7.488581432E+00 -1.064889310E+02 -3.289253908E+02  3.677130457E+02  1.250000000E+02  0.00000E+00  9.000E+00
      25     1     1     2     0     0  5.752182929E+01  4.271240539E+01 -4.795060782E+02  5.006837220E+02  1.250000000E+02  0.00000E+00  9.000E+00
      21     1     1     2   501   512 -5.003324786E+01  6.377652559E+01 -1.762519720E+02  1.939987854E+02  2.697398305E-06  0.00000E+00  9.000E+00
#rwgt            1           1   1.8563156846323696E-002           2      260614           0
</event>
<event>
      5   9999  3.79277E-02  4.25667E+01 -1.00000E+00  1.43185E-01
      21    -1     0     0   511   501  0.000000000E+00  0.000000000E+00  4.181798718E+02  4.181798718E+02  0.000000000E+00  0.00000E+00  9.000E+00
      21    -1     0     0   501   502  0.000000000E+00  0.000000000E+00 -1.705963904E+02  1.705963904E+02  0.000000000E+00  0.00000E+00  9.000E+00
      25     1     1     2     0     0 -1.827843579E+02 -8.187407020E+01  1.994750583E+02  3.090773103E+02  1.250000000E+02  0.00000E+00  9.000E+00
      25     1     1     2     0     0  1.432771987E+02  6.602778547E+01 -1.690822126E+01  2.019874057E+02  1.250000000E+02  0.00000E+00  9.000E+00
      21     1     1     2   511   502  3.950715916E+01  1.584628473E+01  6.501664437E+01  7.771154618E+01  0.000000000E+00  0.00000E+00  9.000E+00
#rwgt            1           1   4.5957955275893449E-002           2      260825           0
</event>
<event>
      5   9999  3.79277E-02  1.30996E+02 -1.00000E+00  1.18774E-01
      21    -1     0     0   502   512  0.000000000E+00  0.000000000E+00  9.903864420E+02  9.903864420E+02  0.000000000E+00  0.00000E+00  9.000E+00
      21    -1     0     0   501   502  0.000000000E+00  0.000000000E+00 -4.218262377E+02  4.218262377E+02  0.000000000E+00  0.00000E+00  9.000E+00
      25     1     1     2     0     0 -1.642950464E+01  5.737545939E+01 -3.010028928E+02  3.313451575E+02  1.250000000E+02  0.00000E+00  9.000E+00
      25     1     1     2     0     0 -1.105639269E+02 -8.951084165E+01 -1.187976108E+01  1.897437784E+02  1.250000000E+02  0.00000E+00  9.000E+00
      21     1     1     2   501   512  1.269934316E+02  3.213538225E+01  8.814428582E+02  8.911237437E+02  1.525878906E-05  0.00000E+00  9.000E+00
#rwgt            1           1   3.2820015438571971E-002           2      260933           0
</event>
<event>
      5   9999  3.79277E-02  4.03371E+01 -1.00000E+00  1.44614E-01
      21    -1     0     0   502   501  0.000000000E+00  0.000000000E+00  5.253510152E+02  5.253510152E+02  0.000000000E+00  0.00000E+00  9.000E+00
      21    -1     0     0   501   511  0.000000000E+00  0.000000000E+00 -5.388209157E+02  5.388209157E+02  0.000000000E+00  0.00000E+00  9.000E+00
      25     1     1     2     0     0 -1.563084122E+02 -3.043601654E+01 -1.502326409E+02  2.520982293E+02  1.250000000E+02  0.00000E+00  9.000E+00
      25     1     1     2     0     0  1.946296002E+02  1.784376605E+01  4.446606542E+02  5.015447923E+02  1.250000000E+02  0.00000E+00  9.000E+00
      21     1     1     2   502   511 -3.832118796E+01  1.259225049E+01 -3.078979138E+02  3.105289093E+02  0.000000000E+00  0.00000E+00  9.000E+00
#rwgt            1           1   3.8314317180362531E-002           2      261012           0
</event>
<event>
      5   9999  3.79277E-02  1.10445E+01 -1.00000E+00  1.90898E-01
      21    -1     0     0   512   501  0.000000000E+00  0.000000000E+00  2.215302045E+03  2.215302045E+03  0.000000000E+00  0.00000E+00  9.000E+00
      21    -1     0     0   501   502  0.000000000E+00  0.000000000E+00 -2.930597785E+01  2.930597785E+01  0.000000000E+00  0.00000E+00  9.000E+00
      25     1     1     2     0     0  1.356996468E+02  1.481297153E+02  7.687612019E+02  8.043479299E+02  1.250000000E+02  0.00000E+00  9.000E+00
      25     1     1     2     0     0 -1.375944873E+02 -1.372490158E+02  1.160150205E+03  1.182938305E+03  1.250000000E+02  0.00000E+00  9.000E+00
      21     1     1     2   512   502  1.894840528E+00 -1.088069954E+01  2.570846597E+02  2.573217875E+02  3.814697266E-06  0.00000E+00  9.000E+00
#rwgt            1           1  0.11428273190253775                2      261148           0
</event>
<event>
      5   9999  3.79277E-02  6.83621E+01 -1.00000E+00  1.31744E-01
      21    -1     0     0   502   501  0.000000000E+00  0.000000000E+00  1.286176287E+03  1.286176287E+03  0.000000000E+00  0.00000E+00  9.000E+00
      21    -1     0     0   501   511  0.000000000E+00  0.000000000E+00 -1.897720615E+02  1.897720615E+02  0.000000000E+00  0.00000E+00  9.000E+00
      25     1     1     2     0     0 -1.356824590E+02  1.047936819E+02  4.437894098E+02  4.918998737E+02  1.250000000E+02  0.00000E+00  9.000E+00
      25     1     1     2     0     0  1.793074140E+02 -5.216061775E+01  7.949751688E+02  8.261249287E+02  1.250000000E+02  0.00000E+00  9.000E+00
      21     1     1     2   502   511 -4.362495501E+01 -5.263306413E+01 -1.423603534E+02  1.579235459E+02  1.907348633E-06  0.00000E+00  9.000E+00
#rwgt            1           1   4.5970750545063825E-002           2      261549           0
</event>
<event>
      5   9999  3.79277E-02  4.24638E+00 -1.00000E+00  2.57500E-01
      21    -1     0     0   502   501  0.000000000E+00  0.000000000E+00  9.454985991E+02  9.454985991E+02  0.000000000E+00  0.00000E+00  9.000E+00
      21    -1     0     0   512   502  0.000000000E+00  0.000000000E+00 -5.285939459E+01  5.285939459E+01  0.000000000E+00  0.00000E+00  9.000E+00
      25     1     1     2     0     0  4.136392372E+01  7.735845056E+01  8.948841089E+01  1.769985303E+02  1.250000000E+02  0.00000E+00  9.000E+00
      25     1     1     2     0     0 -3.849122658E+01 -7.423125650E+01  8.031543667E+02  8.171130832E+02  1.250000000E+02  0.00000E+00  9.000E+00
      21     1     1     2   512   501 -2.872697142E+00 -3.127194062E+00 -3.573095417E-03  4.246380145E+00  1.328156165E-07  0.00000E+00  9.000E+00
#rwgt            1           1   3.7348027177848714E-002           2      261620           0
</event>
<event>
      5   9999  3.79277E-02  6.66498E+01 -1.00000E+00  1.32309E-01
      21    -1     0     0   502   501  0.000000000E+00  0.000000000E+00  1.450711436E+02  1.450711436E+02  0.000000000E+00  0.00000E+00  9.000E+00
      21    -1     0     0   511   502  0.000000000E+00  0.000000000E+00 -7.256410720E+02  7.256410720E+02  0.000000000E+00  0.00000E+00  9.000E+00
      25     1     1     2     0     0 -1.059439638E+02 -1.700667837E+02 -1.018062810E+02  2.571698918E+02  1.250000000E+02  0.00000E+00  9.000E+00
      25     1     1     2     0     0  1.686991199E+02  1.925164245E+02 -2.629529983E+02  3.876741493E+02  1.250000000E+02  0.00000E+00  9.000E+00
      21     1     1     2   511   501 -6.275515612E+01 -2.244964076E+01 -2.158106492E+02  2.258681746E+02  2.697398305E-06  0.00000E+00  9.000E+00
#rwgt            1           1   3.5981490864393735E-002           2      262074           0
</event>
<event>
      5   9999  3.79277E-02  1.65566E+02 -1.00000E+00  1.14719E-01
       2    -1     0     0   502     0  0.000000000E+00  0.000000000E+00  4.824267725E+02  4.824267725E+02  0.000000000E+00  0.00000E+00  9.000E+00
      21    -1     0     0   501   502  0.000000000E+00  0.000000000E+00 -4.152644097E+02  4.152644097E+02  0.000000000E+00  0.00000E+00  9.000E+00
      25     1     1     2     0     0 -7.072887657E+01 -7.350970329E+01 -2.261949027E+02  2.778405738E+02  1.250000000E+02  0.00000E+00  9.000E+00
      25     1     1     2     0     0 -6.073731533E+01  1.741516267E+02 -5.904089448E+01  2.304965028E+02  1.250000000E+02  0.00000E+00  9.000E+00
       2     1     1     2   501     0  1.314661919E+02 -1.006419234E+02  3.523981600E+02  3.893541055E+02  6.607249480E-06  0.00000E+00  9.000E+00
#rwgt            1           1   3.2549654877915619E-002           2      262256           0
</event>
<event>
      5   9999  3.79277E-02  3.22359E+01 -1.00000E+00  1.50903E-01
      21    -1     0     0   502   501  0.000000000E+00  0.000000000E+00  8.624218009E+01  8.624218009E+01  0.000000000E+00  0.00000E+00  9.000E+00
      21    -1     0     0   511   502  0.000000000E+00  0.000000000E+00 -9.457412737E+02  9.457412737E+02  0.000000000E+00  0.00000E+00  9.000E+00
      25     1     1     2     0     0 -3.633283718E+01 -2.245945866E+02 -4.777286954E+02  5.437025931E+02  1.250000000E+02  0.00000E+00  9.000E+00
      25     1     1     2     0     0  8.437601748E+00  2.407502908E+02 -3.296411645E+02  4.269896872E+02  1.250000000E+02  0.00000E+00  9.000E+00
      21     1     1     2   511   501  2.789523543E+01 -1.615570419E+01 -5.212923369E+01  6.129117345E+01  9.536743164E-07  0.00000E+00  9.000E+00
#rwgt            1           1   3.9389765633383839E-002           2      262595           0
</event>
<event>
      5   9999  3.79277E-02  4.35116E+01 -1.00000E+00  1.42610E-01
      21    -1     0     0   502   501  0.000000000E+00  0.000000000E+00  7.419771770E+02  7.419771770E+02  0.000000000E+00  0.00000E+00  9.000E+00
      21    -1     0     0   501   512  0.000000000E+00  0.000000000E+00 -9.323038849E+01  9.323038849E+01  0.000000000E+00  0.00000E+00  9.000E+00
      25     1     1     2     0     0 -7.095576202E+01  1.884284682E+02  3.070489615E+02  3.878712062E+02  1.250000000E+02  0.00000E+00  9.000E+00
      25     1     1     2     0     0  5.987573714E+01 -1.463512345E+02  3.491842976E+02  4.031853934E+02  1.250000000E+02  0.00000E+00  9.000E+00
      21     1     1     2   502   512  1.108002488E+01 -4.207723379E+01 -7.486470595E+00  4.415096598E+01  1.311302185E-06  0.00000E+00  9.000E+00
#rwgt            1           1  0.10589291949170267                2      262891           0
</event>
<event>
      5   9999  3.79277E-02  5.59251E+01 -1.00000E+00  1.36356E-01
      21    -1     0     0   502   511  0.000000000E+00  0.000000000E+00  6.805509498E+02  6.805509498E+02  0.000000000E+00  0.00000E+00  9.000E+00
      21    -1     0     0   501   502  0.000000000E+00  0.000000000E+00 -1.001205476E+02  1.001205476E+02  0.000000000E+00  0.00000E+00  9.000E+00
      25     1     1     2     0     0 -4.673177437E+01  1.225280388E+02  4.970194427E+02  5.290087952E+02  1.250000000E+02  0.00000E+00  9.000E+00
      25     1     1     2     0     0  5.895678140E+01 -6.795541361E+01  3.403218683E+00  1.540468182E+02  1.250000000E+02  0.00000E+00  9.000E+00
      21     1     1     2   501   511 -1.222500703E+01 -5.457262516E+01  8.000774083E+01  9.761588399E+01  1.651812370E-06  0.00000E+00  9.000E+00
#rwgt            1           1   4.2440539449877017E-002           2      263079           0
</event>
<event>
      5   9999  3.79277E-02  5.90521E+01 -1.00000E+00  1.35074E-01
       3    -1     0     0   502     0  0.000000000E+00  0.000000000E+00  1.573269674E+03  1.573269674E+03  0.000000000E+00  0.00000E+00  9.000E+00
      21    -1     0     0   501   502  0.000000000E+00  0.000000000E+00 -4.900033577E+01  4.900033577E+01  0.000000000E+00  0.00000E+00  9.000E+00
      25     1     1     2     0     0  6.923962087E+01  2.037922797E+01  1.056273465E+02  1.788618863E+02  1.250000000E+02  0.00000E+00  9.000E+00
      25     1     1     2     0     0 -1.046684972E+02 -6.762264990E+01  6.843273882E+02  7.067229241E+02  1.250000000E+02  0.00000E+00  9.000E+00
       3     1     1     2   501     0  3.542887633E+01  4.724342193E+01  7.343146035E+02  7.366851994E+02  1.078959322E-05  0.00000E+00  9.000E+00
#rwgt            1           1   3.5863071540335509E-002           2      263224           0
</event>
<event>
      5   9999  3.79277E-02  5.04691E+01 -1.00000E+00  1.38844E-01
      21    -1     0     0   502   511  0.000000000E+00  0.000000000E+00  4.380747135E+02  4.380747135E+02  0.000000000E+00  0.00000E+00  9.000E+00
      21    -1     0     0   501   502  0.000000000E+00  0.000000000E+00 -1.010623832E+02  1.010623832E+02  0.000000000E+00  0.00000E+00  9.000E+00
      25     1     1     2     0     0 -6.161777682E+01 -5.243798091E+01 -1.872539891E+00  1.489127216E+02  1.250000000E+02  0.00000E+00  9.000E+00
      25     1     1     2     0     0  1.126918670E+01  4.895171500E+01  2.909248724E+02  3.206018502E+02  1.250000000E+02  0.00000E+00  9.000E+00
      21     1     1     2   501   511  5.034859012E+01  3.486265903E+00  4.795999787E+01  6.962252490E+01  6.743495762E-07  0.00000E+00  9.000E+00
#rwgt            1           1   5.9531666609317663E-002           2      263334           0
</event>
<event>
      5   9999  3.79277E-02  2.29392E+01 -1.00000E+00  1.61601E-01
      21    -1     0     0   502   501  0.000000000E+00  0.000000000E+00  3.400290183E+02  3.400290183E+02  0.000000000E+00  0.00000E+00  9.000E+00
      21    -1     0     0   512   502  0.000000000E+00  0.000000000E+00 -5.128046927E+02  5.128046927E+02  0.000000000E+00  0.00000E+00  9.000E+00
      25     1     1     2     0     0 -6.132986511E+00 -6.929124373E+01  3.005180720E+02  3.328287872E+02  1.250000000E+02  0.00000E+00  9.000E+00
      25     1     1     2     0     0  1.035170968E+01  9.183915267E+01 -2.423439369E+02  2.879186892E+02  1.250000000E+02  0.00000E+00  9.000E+00
      21     1     1     2   512   501 -4.218723166E+00 -2.254790895E+01 -2.309498094E+02  2.320862346E+02  3.814697266E-06  0.00000E+00  9.000E+00
#rwgt            1           1   4.2791846201862480E-002           2      263482           0
</event>
<event>
      5   9999  3.79277E-02  1.29282E+01 -1.00000E+00  1.83689E-01
      21    -1     0     0   502   501  0.000000000E+00  0.000000000E+00  5.147209684E+02  5.147209684E+02  0.000000000E+00  0.00000E+00  9.000E+00
      21    -1     0     0   501   511  0.000000000E+00  0.000000000E+00 -1.523981405E+02  1.523981405E+02  0.000000000E+00  0.00000E+00  9.000E+00
      25     1     1     2     0     0  1.142405163E+02  2.380728210E+01  4.419055434E+02  4.738387822E+02  1.250000000E+02  0.00000E+00  9.000E+00
      25     1     1     2     0     0 -1.015691887E+02 -2.637166115E+01 -7.376277436E+01  1.791025167E+02  1.250000000E+02  0.00000E+00  9.000E+00
      21     1     1     2   502   511 -1.267132753E+01  2.564379043E+00 -5.819941144E+00  1.417780999E+01  1.460009660E-07  0.00000E+00  9.000E+00
#rwgt            1           1   4.4304504033375977E-002           2      263675           0
</event>
<event>
      5   9999  3.79277E-02  2.98775E+01 -1.00000E+00  1.53163E-01
      21    -1     0     0   512   501  0.000000000E+00  0.000000000E+00  3.094150650E+02  3.094150650E+02  0.000000000E+00  0.00000E+00  9.000E+00
      21    -1     0     0   501   502  0.000000000E+00  0.000000000E+00 -4.709921461E+02  4.709921461E+02  0.000000000E+00  0.00000E+00  9.000E+00
      25     1     1     2     0     0  2.241905241E+02 -1.671932496E+02  2.216041783E+01  3.071336158E+02  1.250000000E+02  0.00000E+00  9.000E+00
      25     1     1     2     0     0 -2.293671835E+02  1.966188473E+02 -2.426947063E+02  4.071780894E+02  1.250000000E+02  0.00000E+00  9.000E+00
      21     1     1     2   512   502  5.176659435E+00 -2.942559771E+01  5.895720739E+01  6.609550595E+01  6.743495762E-07  0.00000E+00  9.000E+00
#rwgt            1           1   4.8869245980979664E-002           2      263948           0
</event>
<event>
      5   9999  3.79277E-02  1.99562E+01 -1.00000E+00  1.66448E-01
      21    -1     0     0   502   501  0.000000000E+00  0.000000000E+00  1.076297039E+02  1.076297039E+02  0.000000000E+00  0.00000E+00  9.000E+00
      21    -1     0     0   501   511  0.000000000E+00  0.000000000E+00 -5.485220744E+02  5.485220744E+02  0.000000000E+00  0.00000E+00  9.000E+00
      25     1     1     2     0     0  1.022736163E+02 -1.003966529E+02 -1.241276282E+02  2.270948009E+02  1.250000000E+02  0.00000E+00  9.000E+00
      25     1     1     2     0     0 -9.961989726E+01  8.061770816E+01 -8.810222358E+01  1.995252881E+02  1.250000000E+02  0.00000E+00  9.000E+00
      21     1     1     2   502   511 -2.653719027E+00  1.977894476E+01 -2.286625187E+02  2.295316892E+02  3.814697266E-06  0.00000E+00  9.000E+00
#rwgt            1           1   4.5263671924895062E-002           2      264195           0
</event>
<event>
      5   9999  3.79277E-02  6.16421E+01 -1.00000E+00  1.34080E-01
       1    -1     0     0   502     0  0.000000000E+00  0.000000000E+00  9.723056316E+02  9.723056316E+02  0.000000000E+00  0.00000E+00  9.000E+00
      21    -1     0     0   501   502  0.000000000E+00  0.000000000E+00 -6.373232665E+01  6.373232665E+01  0.000000000E+00  0.00000E+00  9.000E+00
      25     1     1     2     0     0  5.587237144E+01  1.959738890E+02  5.341024612E+02  5.851648709E+02  1.250000000E+02  0.00000E+00  9.000E+00
      25     1     1     2     0     0 -3.533629291E+01 -1.378532198E+02  2.866895313E+02  3.436103188E+02  1.250000000E+02  0.00000E+00  9.000E+00
       1     1     1     2   501     0 -2.053607854E+01 -5.812066916E+01  8.778131241E+01  1.072627685E+02  1.348699152E-06  0.00000E+00  9.000E+00
#rwgt            1           1   2.8253834893638599E-002           2      264363           0
</event>
<event>
      5   9999  3.79277E-02  1.89070E+01 -1.00000E+00  1.68408E-01
      21    -1     0     0   502   501  0.000000000E+00  0.000000000E+00  3.579065680E+02  3.579065680E+02  0.000000000E+00  0.00000E+00  9.000E+00
      21    -1     0     0   501   511  0.000000000E+00  0.000000000E+00 -1.375653887E+02  1.375653887E+02  0.000000000E+00  0.00000E+00  9.000E+00
      25     1     1     2     0     0  1.547021204E+02  6.711226418E+01  1.134275944E+02  2.385950989E+02  1.250000000E+02  0.00000E+00  9.000E+00
      25     1     1     2     0     0 -1.563313279E+02 -4.827559849E+01  1.155313294E+02  2.360985082E+02  1.250000000E+02  0.00000E+00  9.000E+00
      21     1     1     2   502   511  1.629207506E+00 -1.883666569E+01 -8.617744588E+00  2.077834963E+01  5.331201500E-07  0.00000E+00  9.000E+00
#rwgt            1           1   4.1004514763079924E-002           2      264738           0
</event>
<event>
      5   9999  3.79277E-02  1.84487E+01 -1.00000E+00  1.69315E-01
      -4    -1     0     0     0   501  0.000000000E+00  0.000000000E+00  5.424350817E+02  5.424350817E+02  0.000000000E+00  0.00000E+00  9.000E+00
      21    -1     0     0   501   502  0.000000000E+00  0.000000000E+00 -3.824655955E+02  3.824655955E+02  0.000000000E+00  0.00000E+00  9.000E+00
      25     1     1     2     0     0  3.227710468E+01  1.712110741E+02 -1.775092234E+01  2.151630512E+02  1.250000000E+02  0.00000E+00  9.000E+00
      25     1     1     2     0     0 -1.407842508E+01 -1.681842379E+02 -2.243094642E+02  3.072846818E+02  1.250000000E+02  0.00000E+00  9.000E+00
      -4     1     1     2     0   502 -1.819867960E+01 -3.026836181E+00  4.020298727E+02  4.024529441E+02  0.000000000E+00  0.00000E+00  9.000E+00
#rwgt            1           1   3.9350645795475384E-002           2      264876           0
</event>
<event>
      5   9999  3.79277E-02  3.96260E+01 -1.00000E+00  1.45094E-01
      21    -1     0     0   502   501  0.000000000E+00  0.000000000E+00  2.554213330E+02  2.554213330E+02  0.000000000E+00  0.00000E+00  9.000E+00
      21    -1     0     0   501   511  0.000000000E+00  0.000000000E+00 -4.285909285E+02  4.285909285E+02  0.000000000E+00  0.00000E+00  9.000E+00
      25     1     1     2     0     0 -1.485697741E+02  5.040316905E+01 -2.169922674E+02  2.955065165E+02  1.250000000E+02  0.00000E+00  9.000E+00
      25     1     1     2     0     0  1.789728904E+02 -2.498913654E+01  1.560396265E+02  2.694978988E+02  1.250000000E+02  0.00000E+00  9.000E+00
      21     1     1     2   502   511 -3.040311633E+01 -2.541403251E+01 -1.122169546E+02  1.190078461E+02  1.348699152E-06  0.00000E+00  9.000E+00
#rwgt            1           1   2.6306865752223633E-002           2      265090           0
</event>
<event>
      5   9999  3.79277E-02  4.90185E+01 -1.00000E+00  1.39569E-01
      21    -1     0     0   502   501  0.000000000E+00  0.000000000E+00  5.014060025E+01  5.014060025E+01  0.000000000E+00  0.00000E+00  9.000E+00
       2    -1     0     0   501     0  0.000000000E+00  0.000000000E+00 -1.885469976E+03  1.885469976E+03  0.000000000E+00  0.00000E+00  9.000E+00
      25     1     1     2     0     0  1.329737806E+01  1.328591215E+02 -1.714937929E+02  2.507259210E+02  1.250000000E+02  0.00000E+00  9.000E+00
      25     1     1     2     0     0 -1.618614821E+01 -8.392579556E+01 -5.645275851E+02  5.844843239E+02  1.250000000E+02  0.00000E+00  9.000E+00
       2     1     1     2   502     0  2.888770149E+00 -4.893332598E+01 -1.099307998E+03  1.100400332E+03  2.157918644E-05  0.00000E+00  9.000E+00
#rwgt            1           1   4.3967505858391036E-002           2      265470           0
</event>
<event>
      5   9999  3.79277E-02  5.31610E+01 -1.00000E+00  1.37573E-01
      21    -1     0     0   502   501  0.000000000E+00  0.000000000E+00  7.958833510E+02  7.958833510E+02  0.000000000E+00  0.00000E+00  9.000E+00
      21    -1     0     0   501   511  0.000000000E+00  0.000000000E+00 -1.456410825E+02  1.456410825E+02  0.000000000E+00  0.00000E+00  9.000E+00
      25     1     1     2     0     0 -1.706361582E+02 -7.256992426E+01  6.406417127E+02  6.785498481E+02  1.250000000E+02  0.00000E+00  9.000E+00
      25     1     1     2     0     0  1.235618516E+02  9.727008881E+01  3.524499266E+01  2.039514914E+02  1.250000000E+02  0.00000E+00  9.000E+00
      21     1     1     2   502   511  4.707430667E+01 -2.470016455E+01 -2.564443685E+01  5.902309394E+01  1.305872339E-06  0.00000E+00  9.000E+00
#rwgt            1           1   1.3267712377704882E-002           2      265810           0
</event>
<event>
      5   9999  3.79277E-02  3.51398E+01 -1.00000E+00  1.48418E-01
      21    -1     0     0   502   512  0.000000000E+00  0.000000000E+00  9.687257470E+01  9.687257470E+01  0.000000000E+00  0.00000E+00  9.000E+00
      21    -1     0     0   501   502  0.000000000E+00  0.000000000E+00 -2.282296003E+03  2.282296003E+03  0.000000000E+00  0.00000E+00  9.000E+00
      25     1     1     2     0     0  4.406086572E+01  2.090467499E+02 -1.060701594E+03  1.089199144E+03  1.250000000E+02  0.00000E+00  9.000E+00
      25     1     1     2     0     0 -7.686546792E+01 -1.964504623E+02 -1.190448049E+03  1.215439280E+03  1.250000000E+02  0.00000E+00  9.000E+00
      21     1     1     2   501   512  3.280460219E+01 -1.259628761E+01  6.572621558E+01  7.453015364E+01  5.478441855E-06  0.00000E+00  9.000E+00
#rwgt            1           1   6.8811161667102078E-002           2      265916           0
</event>
<event>
      5   9999  3.79277E-02  9.77290E+01 -1.00000E+00  1.24278E-01
      21    -1     0     0   502   501  0.000000000E+00  0.000000000E+00  1.013150180E+03  1.013150180E+03  0.000000000E+00  0.00000E+00  9.000E+00
      21    -1     0     0   511   502  0.000000000E+00  0.000000000E+00 -2.617278519E+02  2.617278519E+02  0.000000000E+00  0.00000E+00  9.000E+00
      25     1     1     2     0     0 -3.355571608E+02 -1.313107606E+02  4.525239438E+02  5.918141970E+02  1.250000000E+02  0.00000E+00  9.000E+00
      25     1     1     2     0     0  3.285728289E+02  3.383165950E+01  4.059746137E+02  5.380939249E+02  1.250000000E+02  0.00000E+00  9.000E+00
      21     1     1     2   511   501  6.984331948E+00  9.747910114E+01 -1.070762290E+02  1.449699102E+02  2.697398305E-06  0.00000E+00  9.000E+00
#rwgt            1           1   4.0562227719618295E-002           2      266132           0
</event>
<event>
      5   9999  3.79277E-02  4.80026E+00 -1.00000E+00  2.46104E-01
      21    -1     0     0   502   501  0.000000000E+00  0.000000000E+00  4.265768796E+02  4.265768796E+02  0.000000000E+00  0.00000E+00  9.000E+00
      21    -1     0     0   501   512  0.000000000E+00  0.000000000E+00 -5.700564518E+02  5.700564518E+02  0.000000000E+00  0.00000E+00  9.000E+00
      25     1     1     2     0     0  6.884789748E+01 -9.119649008E-01 -3.716034671E+02  3.980640670E+02  1.250000000E+02  0.00000E+00  9.000E+00
      25     1     1     2     0     0 -7.265221733E+01  3.839366879E+00  4.006605140E+02  4.259658824E+02  1.250000000E+02  0.00000E+00  9.000E+00
      21     1     1     2   502   512  3.804319850E+00 -2.927401979E+00 -1.725366192E+02  1.726033820E+02  3.303624740E-06  0.00000E+00  9.000E+00
#rwgt            1           1   3.0214965614867837E-002           2      266309           0
</event>
<event>
      5   9999  3.79277E-02  1.93062E+01 -1.00000E+00  1.67644E-01
       2    -1     0     0   502     0  0.000000000E+00  0.000000000E+00  3.993082116E+02  3.993082116E+02  0.000000000E+00  0.00000E+00  9.000E+00
      21    -1     0     0   501   502  0.000000000E+00  0.000000000E+00 -5.004163163E+02  5.004163163E+02  0.000000000E+00  0.00000E+00  9.000E+00
      25     1     1     2     0     0  6.145588629E+01  1.139223388E+02 -1.606119531E+02  2.411976880E+02  1.250000000E+02  0.00000E+00  9.000E+00
      25     1     1     2     0     0 -5.532712807E+01 -1.322299527E+02 -2.690079559E+02  3.294482232E+02  1.250000000E+02  0.00000E+00  9.000E+00
       2     1     1     2   501     0 -6.128758222E+00  1.830761390E+01  3.285118042E+02  3.290786166E+02  5.394796609E-06  0.00000E+00  9.000E+00
#rwgt            1           1   9.5344806267230728E-002           2      266980           0
</event>
<event>
      5   9999  3.79277E-02  3.98564E+01  7.55638E-03  1.44937E-01
      -2    -1     0     0     0   501  0.000000000E+00  0.000000000E+00  7.578614252E+01  7.578614252E+01  0.000000000E+00  0.00000E+00  9.000E+00
       2    -1     0     0   502     0  0.000000000E+00  0.000000000E+00 -4.381128979E+02  4.381128979E+02  0.000000000E+00  0.00000E+00  9.000E+00
      25     1     1     2     0     0 -4.644653848E+01  7.567391903E+01 -2.108133935E+02  2.606743367E+02  1.250000000E+02  0.00000E+00  9.000E+00
      25     1     1     2     0     0  8.402531584E+01 -6.239360259E+01 -1.207192213E+02  2.028579447E+02  1.250000000E+02  0.00000E+00  9.000E+00
      21     1     1     2   502   501 -3.757877735E+01 -1.328031644E+01 -3.079414060E+01  5.036675895E+01  8.920806376E-07  0.00000E+00  9.000E+00
#rwgt            3           4   1.1547947833559838E-004           2      267121           0
</event>
<event>
      5   9999 -3.79277E-02  8.67023E+01 -1.00000E+00  1.26681E-01
      21    -1     0     0   511   501  0.000000000E+00  0.000000000E+00  1.327268755E+02  1.327268755E+02  0.000000000E+00  0.00000E+00  9.000E+00
      21    -1     0     0   501   502  0.000000000E+00  0.000000000E+00 -6.957402699E+02  6.957402699E+02  0.000000000E+00  0.00000E+00  9.000E+00
      25     1     1     2     0     0  1.036549080E+02 -1.370670050E+02 -2.537432882E+02  3.309718419E+02  1.250000000E+02  0.00000E+00  9.000E+00
      25     1     1     2     0     0 -1.651661031E+02  1.981707637E+02 -2.917964360E+02  4.090496954E+02  1.250000000E+02  0.00000E+00  9.000E+00
      21     1     1     2   511   502  6.151119511E+01 -6.110375864E+01 -1.747367023E+01  8.844560812E+01  1.951540177E-06  0.00000E+00  9.000E+00
#rwgt            1           1  -3.8783135563670391E-002           2      267155           0
</event>
<event>
      5   9999  3.79277E-02  4.44074E+01 -1.00000E+00  1.42080E-01
      21    -1     0     0   502   501  0.000000000E+00  0.000000000E+00  1.266257334E+02  1.266257334E+02  0.000000000E+00  0.00000E+00  9.000E+00
      21    -1     0     0   501   512  0.000000000E+00  0.000000000E+00 -5.394443327E+02  5.394443327E+02  0.000000000E+00  0.00000E+00  9.000E+00
      25     1     1     2     0     0 -1.858204286E+02  1.106885683E+02 -1.554670585E+02  2.942383339E+02  1.250000000E+02  0.00000E+00  9.000E+00
      25     1     1     2     0     0  1.414280107E+02 -1.118438404E+02 -1.852264320E+02  2.871319522E+02  1.250000000E+02  0.00000E+00  9.000E+00
      21     1     1     2   502   512  4.439241790E+01  1.155272063E+00 -7.212510885E+01  8.469978009E+01  9.536743164E-07  0.00000E+00  9.000E+00
#rwgt            1           1   3.4734193697184716E-002           2      267288           0
</event>
<event>
      5   9999  3.79277E-02  1.58181E+01 -1.00000E+00  1.75238E-01
      21    -1     0     0   502   501  0.000000000E+00  0.000000000E+00  8.655326168E+01  8.655326168E+01  0.000000000E+00  0.00000E+00  9.000E+00
      21    -1     0     0   501   511  0.000000000E+00  0.000000000E+00 -9.299362017E+02  9.299362017E+02  0.000000000E+00  0.00000E+00  9.000E+00
      25     1     1     2     0     0 -1.317893157E+02  1.548975104E+02 -2.541881470E+02  3.487094443E+02  1.250000000E+02  0.00000E+00  9.000E+00
      25     1     1     2     0     0  1.180893236E+02 -1.628046070E+02 -3.198397986E+02  3.979609594E+02  1.250000000E+02  0.00000E+00  9.000E+00
      21     1     1     2   502   511  1.369999203E+01  7.907096605E+00 -2.693549944E+02  2.698190597E+02  0.000000000E+00  0.00000E+00  9.000E+00
#rwgt            1           1   3.5146970490175539E-002           2      267396           0
</event>
<event>
      5   9999  3.79277E-02  4.20388E+01 -1.00000E+00  1.43514E-01
      21    -1     0     0   502   512  0.000000000E+00  0.000000000E+00  6.194187188E+02  6.194187188E+02  0.000000000E+00  0.00000E+00  9.000E+00
      21    -1     0     0   501   502  0.000000000E+00  0.000000000E+00 -9.479656828E+01  9.479656828E+01  0.000000000E+00  0.00000E+00  9.000E+00
      25     1     1     2     0     0  3.409341144E+01  1.002804616E+02  4.132665462E+02  4.445590736E+02  1.250000000E+02  0.00000E+00  9.000E+00
      25     1     1     2     0     0 -7.600174176E+01 -9.697060079E+01  2.996754250E+01  1.780522838E+02  1.250000000E+02  0.00000E+00  9.000E+00
      21     1     1     2   501   512  4.190833032E+01 -3.309860839E+00  8.138806184E+01  9.160392971E+01  1.651812370E-06  0.00000E+00  9.000E+00
#rwgt            1           1   4.9257686260959090E-002           2      267612           0
</event>
<event>
      5   9999  3.79277E-02  9.62360E+01 -1.00000E+00  1.24582E-01
      21    -1     0     0   511   501  0.000000000E+00  0.000000000E+00  6.685824340E+02  6.685824340E+02  0.000000000E+00  0.00000E+00  9.000E+00
      21    -1     0     0   501   502  0.000000000E+00  0.000000000E+00 -1.953162718E+02  1.953162718E+02  0.000000000E+00  0.00000E+00  9.000E+00
      25     1     1     2     0     0  7.857411678E+01 -1.905197583E+02  2.380463543E+02  3.387664932E+02  1.250000000E+02  0.00000E+00  9.000E+00
      25     1     1     2     0     0  1.685022405E+01  2.029924562E+02 -3.199200225E+01  2.411189655E+02  1.250000000E+02  0.00000E+00  9.000E+00
      21     1     1     2   511   502 -9.542434083E+01 -1.247269793E+01  2.672118101E+02  2.840132470E+02  0.000000000E+00  0.00000E+00  9.000E+00
#rwgt            1           1   3.0438092246716626E-002           2      267747           0
</event>
<event>
      5   9999  3.79277E-02  4.30083E+01 -1.00000E+00  1.42914E-01
      21    -1     0     0   502   512  0.000000000E+00  0.000000000E+00  6.866436996E+02  6.866436996E+02  0.000000000E+00  0.00000E+00  9.000E+00
      21    -1     0     0   501   502  0.000000000E+00  0.000000000E+00 -1.828673099E+02  1.828673099E+02  0.000000000E+00  0.00000E+00  9.000E+00
      25     1     1     2     0     0 -1.079461833E+01  8.713083810E+01 -7.905457390E+01  1.719968964E+02  1.250000000E+02  0.00000E+00  9.000E+00
      25     1     1     2     0     0  2.076395188E+01 -1.289677119E+02  8.846890125E+01  2.012847706E+02  1.250000000E+02  0.00000E+00  9.000E+00
      21     1     1     2   501   512 -9.969333548E+00  4.183687376E+01  4.943620624E+02  4.962293425E+02  5.394796609E-06  0.00000E+00  9.000E+00
#rwgt            1           1   3.6159591311196136E-002           2      267835           0
</event>
<event>
      5   9999  3.79277E-02  6.08866E+01 -1.00000E+00  1.34364E-01
      21    -1     0     0   511   501  0.000000000E+00  0.000000000E+00  1.123738516E+02  1.123738516E+02  0.000000000E+00  0.00000E+00  9.000E+00
      21    -1     0     0   501   502  0.000000000E+00  0.000000000E+00 -5.905095236E+02  5.905095236E+02  0.000000000E+00  0.00000E+00  9.000E+00
      25     1     1     2     0     0 -1.084686950E+02  9.206794604E+01 -3.481718116E+02  3.963465338E+02  1.250000000E+02  0.00000E+00  9.000E+00
      25     1     1     2     0     0  8.816153320E+01 -1.494683085E+02 -1.187645146E+02  2.446287823E+02  1.250000000E+02  0.00000E+00  9.000E+00
      21     1     1     2   511   502  2.030716175E+01  5.740036249E+01 -1.119934582E+01  6.190805908E+01  1.540523527E-06  0.00000E+00  9.000E+00
#rwgt            1           1   3.2801479780792592E-002           2      267994           0
</event>
<event>
      5   9999  3.79277E-02  6.68293E+01 -1.00000E+00  1.32248E-01
      21    -1     0     0   502   512  0.000000000E+00  0.000000000E+00  1.489930874E+02  1.489930874E+02  0.000000000E+00  0.00000E+00  9.000E+00
      21    -1     0     0   501   502  0.000000000E+00  0.000000000E+00 -4.745213122E+02  4.745213122E+02  0.000000000E+00  0.00000E+00  9.000E+00
      25     1     1     2     0     0 -1.614124408E+02 -5.739928189E+01 -3.031512573E+02  3.699653205E+02  1.250000000E+02  0.00000E+00  9.000E+00
      25     1     1     2     0     0  9.679145674E+01  7.443687080E+01  1.768182291E+01  1.756333701E+02  1.250000000E+02  0.00000E+00  9.000E+00
      21     1     1     2   501   512  6.462098405E+01 -1.703758890E+01 -4.005879049E+01  7.791570901E+01  4.768371582E-07  0.00000E+00  9.000E+00
#rwgt            1           1   4.1633301750430791E-002           2      268081           0
</event>
<event>
      5   9999  3.79277E-02  5.81168E+01 -1.00000E+00  1.35448E-01
      21    -1     0     0   502   501  0.000000000E+00  0.000000000E+00  2.713855056E+02  2.713855056E+02  0.000000000E+00  0.00000E+00  9.000E+00
      21    -1     0     0   511   502  0.000000000E+00  0.000000000E+00 -1.046633862E+03  1.046633862E+03  0.000000000E+00  0.00000E+00  9.000E+00
      25     1     1     2     0     0 -3.922989699E+02 -7.520490012E+01 -2.242918715E+02  4.748537695E+02  1.250000000E+02  0.00000E+00  9.000E+00
      25     1     1     2     0     0  4.120050243E+02  1.298787493E+02 -2.082923852E+02  4.956080582E+02  1.250000000E+02  0.00000E+00  9.000E+00
      21     1     1     2   511   501 -1.970605444E+01 -5.467384913E+01 -3.426640992E+02  3.475575395E+02  0.000000000E+00  0.00000E+00  9.000E+00
#rwgt            1           1   9.0483446908904100E-002           2      268188           0
</event>
<event>
      5   9999  3.79277E-02  1.29703E+02 -1.00000E+00  1.18952E-01
      21    -1     0     0   512   501  0.000000000E+00  0.000000000E+00  1.223453808E+02  1.223453808E+02  0.000000000E+00  0.00000E+00  9.000E+00
      21    -1     0     0   501   502  0.000000000E+00  0.000000000E+00 -6.426489709E+02  6.426489709E+02  0.000000000E+00  0.00000E+00  9.000E+00
      25     1     1     2     0     0  4.355943147E+01  2.837038175E+01 -4.570382821E+02  4.766668585E+02  1.250000000E+02  0.00000E+00  9.000E+00
      25     1     1     2     0     0  7.089266889E+01  3.265117365E+01 -5.845059540E+01  1.585349859E+02  1.250000000E+02  0.00000E+00  9.000E+00
      21     1     1     2   512   502 -1.144521004E+02 -6.102155540E+01 -4.814712544E+00  1.297925073E+02  6.336060651E-07  0.00000E+00  9.000E+00
#rwgt            1           1   4.7624771143635121E-002           2      268387           0
</event>
<event>
      5   9999  3.79277E-02  1.59788E+01 -1.00000E+00  1.74836E-01
      21    -1     0     0   502   501  0.000000000E+00  0.000000000E+00  1.498769748E+02  1.498769748E+02  0.000000000E+00  0.00000E+00  9.000E+00
      21    -1     0     0   501   511  0.000000000E+00  0.000000000E+00 -5.475193300E+02  5.475193300E+02  0.000000000E+00  0.00000E+00  9.000E+00
      25     1     1     2     0     0  7.190988264E+01 -2.119778974E+02 -6.187585612E+01  2.637409368E+02  1.250000000E+02  0.00000E+00  9.000E+00
      25     1     1     2     0     0 -7.125512427E+01  1.960125102E+02 -2.590351261E+02  3.552779102E+02  1.250000000E+02  0.00000E+00  9.000E+00
      21     1     1     2   502   511 -6.547583729E-01  1.596538712E+01 -7.673137295E+01  7.837745779E+01  0.000000000E+00  0.00000E+00  9.000E+00
#rwgt            1           1   2.5696071655750094E-002           2      268550           0
</event>
<event>
      5   9999  3.79277E-02  5.74134E+01 -1.00000E+00  1.35734E-01
      21    -1     0     0   512   501  0.000000000E+00  0.000000000E+00  4.436327515E+02  4.436327515E+02  0.000000000E+00  0.00000E+00  9.000E+00
      21    -1     0     0   501   502  0.000000000E+00  0.000000000E+00 -2.064056284E+02  2.064056284E+02  0.000000000E+00  0.00000E+00  9.000E+00
      25     1     1     2     0     0 -1.271555765E+02 -1.835617645E+02  1.674190864E+01  2.564541938E+02  1.250000000E+02  0.00000E+00  9.000E+00
      25     1     1     2     0     0  1.161046679E+02  1.272219021E+02  5.700968903E+01  2.203197924E+02  1.250000000E+02  0.00000E+00  9.000E+00
      21     1     1     2   512   502  1.105090866E+01  5.633986232E+01  1.634755255E+02  1.732643936E+02  0.000000000E+00  0.00000E+00  9.000E+00
#rwgt            1           1   4.0185210151058623E-002           2      268867           0
</event>
<event>
      5   9999  3.79277E-02  3.78106E+01 -1.00000E+00  1.46373E-01
      21    -1     0     0   502   501  0.000000000E+00  0.000000000E+00  5.194964244E+02  5.194964244E+02  0.000000000E+00  0.00000E+00  9.000E+00
      21    -1     0     0   511   502  0.000000000E+00  0.000000000E+00 -1.213659546E+02  1.213659546E+02  0.000000000E+00  0.00000E+00  9.000E+00
      25     1     1     2     0     0  1.357127623E+02  8.264332501E+01  1.661630775E+02  2.616926467E+02  1.250000000E+02  0.00000E+00  9.000E+00
      25     1     1     2     0     0 -1.701868425E+02 -9.817334082E+01  2.460952379E+02  3.388058918E+02  1.250000000E+02  0.00000E+00  9.000E+00
      21     1     1     2   511   501  3.447408015E+01  1.553001581E+01 -1.412784565E+01  4.036384045E+01  1.039242493E-06  0.00000E+00  9.000E+00
#rwgt            1           1   9.1830111639229356E-002           2      269051           0
</event>
<event>
      5   9999  3.79277E-02  5.57605E+01 -1.00000E+00  1.36426E-01
       1    -1     0     0   502     0  0.000000000E+00  0.000000000E+00  3.091929247E+02  3.091929247E+02  0.000000000E+00  0.00000E+00  9.000E+00
      21    -1     0     0   501   502  0.000000000E+00  0.000000000E+00 -1.088796934E+03  1.088796934E+03  0.000000000E+00  0.00000E+00  9.000E+00
      25     1     1     2     0     0  1.618218952E+02 -7.124075963E+01 -7.014515289E+02  7.341122660E+02  1.250000000E+02  0.00000E+00  9.000E+00
      25     1     1     2     0     0 -1.132669192E+02  4.382461943E+01 -3.475335389E+02  3.887859989E+02  1.250000000E+02  0.00000E+00  9.000E+00
       1     1     1     2   501     0 -4.855497599E+01  2.741614019E+01  2.693810584E+02  2.750915939E+02  5.394796609E-06  0.00000E+00  9.000E+00
#rwgt            1           1   3.5227002054250320E-002           2      269173           0
</event>
<event>
      5   9999 -3.79277E-02  1.34306E+01 -1.00000E+00  1.82028E-01
      21    -1     0     0   502   501  0.000000000E+00  0.000000000E+00  2.846633871E+01  2.846633871E+01  0.000000000E+00  0.00000E+00  9.000E+00
      21    -1     0     0   501   511  0.000000000E+00  0.000000000E+00 -1.717532157E+03  1.717532157E+03  0.000000000E+00  0.00000E+00  9.000E+00
      25     1     1     2     0     0 -1.092174658E+01 -1.343045861E+02 -6.068580334E+02  6.340809720E+02  1.250000000E+02  0.00000E+00  9.000E+00
      25     1     1     2     0     0  4.168135238E+00  1.459136694E+02 -6.108356931E+02  6.403541334E+02  1.250000000E+02  0.00000E+00  9.000E+00
      21     1     1     2   502   511  6.753611344E+00 -1.160908332E+01 -4.713720920E+02  4.715633904E+02  0.000000000E+00  0.00000E+00  9.000E+00
#rwgt            1           1 -0.11098539416144861                2      269280           0
</event>
<event>
      5   9999  3.79277E-02  1.00174E+02 -1.00000E+00  1.23794E-01
      21    -1     0     0   502   512  0.000000000E+00  0.000000000E+00  7.464251179E+02  7.464251179E+02  0.000000000E+00  0.00000E+00  9.000E+00
      21    -1     0     0   501   502  0.000000000E+00  0.000000000E+00 -7.633944156E+01  7.633944156E+01  0.000000000E+00  0.00000E+00  9.000E+00
      25     1     1     2     0     0  9.790944882E+01 -1.869943372E+01  3.287476528E+02  3.655625093E+02  1.250000000E+02  0.00000E+00  9.000E+00
      25     1     1     2     0     0 -7.389476304E+01 -7.855308007E+01  9.314878211E+01  1.895592731E+02  1.250000000E+02  0.00000E+00  9.000E+00
      21     1     1     2   501   512 -2.401468578E+01  9.725251379E+01  2.481892414E+02  2.676427771E+02  2.697398305E-06  0.00000E+00  9.000E+00
#rwgt            2          11   2.0585759162469399E-003           2      269589           0
</event>
<event>
      5   9999  3.79277E-02  7.65032E+01 -1.00000E+00  1.29296E-01
      21    -1     0     0   502   501  0.000000000E+00  0.000000000E+00  1.179147085E+02  1.179147085E+02  0.000000000E+00  0.00000E+00  9.000E+00
      21    -1     0     0   501   511  0.000000000E+00  0.000000000E+00 -6.060746118E+02  6.060746118E+02  0.000000000E+00  0.00000E+00  9.000E+00
      25     1     1     2     0     0 -1.023102533E+02 -3.752716887E+01  2.587329236E+01  1.678395174E+02  1.250000000E+02  0.00000E+00  9.000E+00
      25     1     1     2     0     0  3.268147624E+01  5.832287484E+00 -3.849908362E+02  4.061342616E+02  1.250000000E+02  0.00000E+00  9.000E+00
      21     1     1     2   502   511  6.962877710E+01  3.169488138E+01 -1.290423595E+02  1.500155414E+02  1.907348633E-06  0.00000E+00  9.000E+00
#rwgt            1           1   4.0481843672365632E-002           2      269624           0
</event>
<event>
      5   9999  3.79277E-02  2.81623E+01 -1.00000E+00  1.54971E-01
      21    -1     0     0   502   501  0.000000000E+00  0.000000000E+00  3.578450791E+02  3.578450791E+02  0.000000000E+00  0.00000E+00  9.000E+00
      21    -1     0     0   501   512  0.000000000E+00  0.000000000E+00 -2.705298083E+02  2.705298083E+02  0.000000000E+00  0.00000E+00  9.000E+00
      25     1     1     2     0     0 -8.575605087E+01 -1.709703296E+02  1.054355816E+02  2.516478010E+02  1.250000000E+02  0.00000E+00  9.000E+00
      25     1     1     2     0     0  8.622394703E+01  1.991287546E+02  8.915223849E+01  2.658193966E+02  1.250000000E+02  0.00000E+00  9.000E+00
      21     1     1     2   502   512 -4.678961560E-01 -2.815842504E+01 -1.072725494E+02  1.109076899E+02  1.348699152E-06  0.00000E+00  9.000E+00
#rwgt            1           1   2.0844301210446153E-002           2      269780           0
</event>
<event>
      5   9999  3.79277E-02  5.69056E+01 -1.00000E+00  1.35944E-01
       3    -1     0     0   502     0  0.000000000E+00  0.000000000E+00  3.772138329E+02  3.772138329E+02  0.000000000E+00  0.00000E+00  9.000E+00
      21    -1     0     0   501   502  0.000000000E+00  0.000000000E+00 -4.172007991E+02  4.172007991E+02  0.000000000E+00  0.00000E+00  9.000E+00
      25     1     1     2     0     0  1.286403679E+01  9.038976302E+01 -6.123103442E+01  1.664633061E+02  1.250000000E+02  0.00000E+00  9.000E+00
      25     1     1     2     0     0  3.678788506E+01 -6.258806985E+01 -2.833471574E+02  3.180899662E+02  1.250000000E+02  0.00000E+00  9.000E+00
       3     1     1     2   501     0 -4.965192185E+01 -2.780169317E+01  3.045912256E+02  3.098613597E+02  0.000000000E+00  0.00000E+00  9.000E+00
#rwgt            1           1   3.5680442536304827E-002           2      269935           0
</event>
<event>
      5   9999  3.79277E-02  6.63908E+01 -1.00000E+00  1.32396E-01
      21    -1     0     0   511   501  0.000000000E+00  0.000000000E+00  1.707120140E+02  1.707120140E+02  0.000000000E+00  0.00000E+00  9.000E+00
      21    -1     0     0   501   502  0.000000000E+00  0.000000000E+00 -3.955991315E+02  3.955991315E+02  0.000000000E+00  0.00000E+00  9.000E+00
      25     1     1     2     0     0  4.599787855E+01  1.232195640E+02  1.612740470E+01  1.821646479E+02  1.250000000E+02  0.00000E+00  9.000E+00
      25     1     1     2     0     0 -7.130500215E+00 -1.770439996E+02 -2.312993639E+02  3.170486044E+02  1.250000000E+02  0.00000E+00  9.000E+00
      21     1     1     2   511   502 -3.886737834E+01  5.382443557E+01 -9.715158224E+00  6.709789313E+01  6.194296387E-07  0.00000E+00  9.000E+00
#rwgt            1           1   7.3839574120462992E-002           2      270007           0
</event>
<event>
      5   9999  3.79277E-02  9.70017E+01 -1.00000E+00  1.24425E-01
      21    -1     0     0   502   512  0.000000000E+00  0.000000000E+00  3.088656178E+02  3.088656178E+02  0.000000000E+00  0.00000E+00  9.000E+00
      21    -1     0     0   501   502  0.000000000E+00  0.000000000E+00 -1.958815667E+02  1.958815667E+02  0.000000000E+00  0.00000E+00  9.000E+00
      25     1     1     2     0     0  8.009600246E+01  2.506187402E+01  9.274756534E+01  1.768348891E+02  1.250000000E+02  0.00000E+00  9.000E+00
      25     1     1     2     0     0 -1.732349746E+02 -5.216269445E+01 -2.417824495E+01  2.212258815E+02  1.250000000E+02  0.00000E+00  9.000E+00
      21     1     1     2   501   512  9.313897212E+01  2.710082043E+01  4.441473066E+01  1.066864138E+02  0.000000000E+00  0.00000E+00  9.000E+00
#rwgt            1           1   4.1028823270693779E-002           2      270147           0
</event>
<event>
      5   9999  3.79277E-02  5.69331E+00 -1.00000E+00  2.29070E-01
      21    -1     0     0   502   511  0.000000000E+00  0.000000000E+00  8.438739525E+02  8.438739525E+02  0.000000000E+00  0.00000E+00  9.000E+00
      21    -1     0     0   501   502  0.000000000E+00  0.000000000E+00 -2.561937658E+02  2.561937658E+02  0.000000000E+00  0.00000E+00  9.000E+00
      25     1     1     2     0     0  3.493814466E+01 -8.897236623E+01 -9.705520800E+01  1.848823120E+02  1.250000000E+02  0.00000E+00  9.000E+00
      25     1     1     2     0     0 -3.258247768E+01  8.378926141E+01 -6.377246876E+01  1.666558908E+02  1.250000000E+02  0.00000E+00  9.000E+00
      21     1     1     2   501   511 -2.355666979E+00  5.183104814E+00  7.485078635E+02  7.485295154E+02  0.000000000E+00  0.00000E+00  9.000E+00
#rwgt            1           1   3.3180313299358007E-002           2      270209           0
</event>
<event>
      5   9999  3.79277E-02  3.98674E+01 -1.00000E+00  1.44930E-01
      21    -1     0     0   502   501  0.000000000E+00  0.000000000E+00  6.919624959E+02  6.919624959E+02  0.000000000E+00  0.00000E+00  9.000E+00
      21    -1     0     0   512   502  0.000000000E+00  0.000000000E+00 -1.276186442E+02  1.276186442E+02  0.000000000E+00  0.00000E+00  9.000E+00
      25     1     1     2     0     0 -7.904987283E+01 -1.730257623E+02  4.190067164E+02  4.768421386E+02  1.250000000E+02  0.00000E+00  9.000E+00
      25     1     1     2     0     0  3.918767653E+01  1.723804640E+02  1.862635061E+02  2.856042578E+02  1.250000000E+02  0.00000E+00  9.000E+00
      21     1     1     2   512   501  3.986219630E+01  6.452983367E-01 -4.092637075E+01  5.713474360E+01  4.768371582E-07  0.00000E+00  9.000E+00
#rwgt            1           1   4.1799490358380119E-002           2      270489           0
</event>
<event>
      5   9999  3.79277E-02  6.76004E+01 -1.00000E+00  1.31992E-01
      21    -1     0     0   502   501  0.000000000E+00  0.000000000E+00  5.208585547E+01  5.208585547E+01  0.000000000E+00  0.00000E+00  9.000E+00
       2    -1     0     0   501     0  0.000000000E+00  0.000000000E+00 -9.940175297E+02  9.940175297E+02  0.000000000E+00  0.00000E+00  9.000E+00
      25     1     1     2     0     0  1.315546133E+02  8.455593998E+01 -2.620503691E+02  3.297752556E+02  1.250000000E+02  0.00000E+00  9.000E+00
      25     1     1     2     0     0 -8.943189250E+01 -3.168349429E+01 -4.421971538E+02  4.692176787E+02  1.250000000E+02  0.00000E+00  9.000E+00
       2     1     1     2   502     0 -4.212272076E+01 -5.287244569E+01 -2.376841514E+02  2.471104509E+02  2.697398305E-06  0.00000E+00  9.000E+00
#rwgt            1           1   3.8198768289008374E-002           2      270730           0
</event>
<event>
      5   9999  3.79277E-02  1.62838E+01 -1.00000E+00  1.74088E-01
      21    -1     0     0   502   511  0.000000000E+00  0.000000000E+00  8.701174385E+02  8.701174385E+02  0.000000000E+00  0.00000E+00  9.000E+00
      21    -1     0     0   501   502  0.000000000E+00  0.000000000E+00 -1.187490317E+02  1.187490317E+02  0.000000000E+00  0.00000E+00  9.000E+00
      25     1     1     2     0     0 -1.779568009E+01  1.047716821E+02  9.527684133E+00  1.643458803E+02  1.250000000E+02  0.00000E+00  9.000E+00
      25     1     1     2     0     0  1.723570068E+00 -1.073887512E+02  1.234440575E+02  2.059095673E+02  1.250000000E+02  0.00000E+00  9.000E+00
      21     1     1     2   501   511  1.607211003E+01  2.617069109E+00  6.183966652E+02  6.186110226E+02  7.629394531E-06  0.00000E+00  9.000E+00
#rwgt            1           1   4.3410487678425660E-002           2      270843           0
</event>
<event>
      5   9999  3.79277E-02  1.66918E+02 -1.00000E+00  1.14583E-01
       2    -1     0     0   502     0  0.000000000E+00  0.000000000E+00  3.295779288E+03  3.295779288E+03  0.000000000E+00  0.00000E+00  9.000E+00
      21    -1     0     0   501   502  0.000000000E+00  0.000000000E+00 -4.315392436E+02  4.315392436E+02  0.000000000E+00  0.00000E+00  9.000E+00
      25     1     1     2     0     0 -1.198028745E+02 -3.358796136E+01 -2.580327529E+02  3.125488465E+02  1.250000000E+02  0.00000E+00  9.000E+00
      25     1     1     2     0     0  1.337333745E+00  1.511784553E+02 -7.729823686E+01  2.108476494E+02  1.250000000E+02  0.00000E+00  9.000E+00
       2     1     1     2   501     0  1.184655408E+02 -1.175904940E+02  3.199571035E+03  3.203922036E+03  4.315837288E-05  0.00000E+00  9.000E+00
#rwgt            1           1   3.2512211554546318E-002           2      271017           0
</event>
<event>
      5   9999  3.79277E-02  5.21828E+01 -1.00000E+00  1.38025E-01
      21    -1     0     0   502   501  0.000000000E+00  0.000000000E+00  2.154660818E+02  2.154660818E+02  0.000000000E+00  0.00000E+00  9.000E+00
      21    -1     0     0   501   511  0.000000000E+00  0.000000000E+00 -3.972606976E+02  3.972606976E+02  0.000000000E+00  0.00000E+00  9.000E+00
      25     1     1     2     0     0 -6.402931473E+01  2.076958806E+02  4.994736153E+01  2.556502902E+02  1.250000000E+02  0.00000E+00  9.000E+00
      25     1     1     2     0     0  8.403015641E+01 -1.594982112E+02 -1.833093798E+02  2.858812259E+02  1.250000000E+02  0.00000E+00  9.000E+00
      21     1     1     2   502   511 -2.000084168E+01 -4.819766943E+01 -4.843259750E+01  7.119526323E+01  9.536743164E-07  0.00000E+00  9.000E+00
#rwgt            1           1   1.9320254535971106E-002           2      271058           0
</event>
<event>
      5   9999  3.79277E-02  1.92914E+01 -1.00000E+00  1.67672E-01
      21    -1     0     0   512   501  0.000000000E+00  0.000000000E+00  2.531574019E+02  2.531574019E+02  0.000000000E+00  0.00000E+00  9.000E+00
      21    -1     0     0   501   502  0.000000000E+00  0.000000000E+00 -2.868276592E+02  2.868276592E+02  0.000000000E+00  0.00000E+00  9.000E+00
      25     1     1     2     0     0 -1.019856566E+02 -1.786157395E+02 -4.049652975E+00  2.407198709E+02  1.250000000E+02  0.00000E+00  9.000E+00
      25     1     1     2     0     0  1.048203128E+02  1.595337025E+02 -8.277046385E+01  2.427225780E+02  1.250000000E+02  0.00000E+00  9.000E+00
      21     1     1     2   512   502 -2.834656160E+00  1.908203702E+01  5.314985952E+01  5.654261207E+01  9.536743164E-07  0.00000E+00  9.000E+00
#rwgt            1           1   2.9947755522000657E-002           2      271228           0
</event>
<event>
      5   9999  3.79277E-02  2.90655E+01 -1.00000E+00  1.54001E-01
      21    -1     0     0   502   501  0.000000000E+00  0.000000000E+00  1.012843481E+03  1.012843481E+03  0.000000000E+00  0.00000E+00  9.000E+00
      21    -1     0     0   501   511  0.000000000E+00  0.000000000E+00 -4.086443394E+01  4.086443394E+01  0.000000000E+00  0.00000E+00  9.000E+00
      25     1     1     2     0     0  2.412067964E+01  1.089355178E+02  2.652324879E+02  3.137228504E+02  1.250000000E+02  0.00000E+00  9.000E+00
      25     1     1     2     0     0 -1.307773762E+01 -1.358215552E+02  6.549556381E+02  6.805956289E+02  1.250000000E+02  0.00000E+00  9.000E+00
      21     1     1     2   502   511 -1.104294203E+01  2.688603744E+01  5.179092143E+01  5.938943610E+01  9.536743164E-07  0.00000E+00  9.000E+00
#rwgt            1           1   4.0366064235007354E-002           2      271403           0
</event>
<event>
      5   9999  3.79277E-02  2.02643E+02 -1.00000E+00  1.11441E-01
      21    -1     0     0   502   512  0.000000000E+00  0.000000000E+00  8.091452370E+01  8.091452370E+01  0.000000000E+00  0.00000E+00  9.000E+00
      21    -1     0     0   501   502  0.000000000E+00  0.000000000E+00 -1.607072308E+03  1.607072308E+03  0.000000000E+00  0.00000E+00  9.000E+00
      25     1     1     2     0     0  2.575766221E+02  1.315250092E+02 -9.304311306E+02  9.823296967E+02  1.250000000E+02  0.00000E+00  9.000E+00
      25     1     1     2     0     0 -7.696168628E+01 -3.964168296E+01 -3.819299805E+02  4.110840233E+02  1.250000000E+02  0.00000E+00  9.000E+00
      21     1     1     2   501   512 -1.806149358E+02 -9.188332620E+01 -2.137966731E+02  2.945731116E+02  2.697398305E-06  0.00000E+00  9.000E+00
#rwgt            1           1   1.6379711569126185E-002           2      271511           0
</event>
<event>
      5   9999  3.79277E-02  4.37396E+01 -1.00000E+00  1.42473E-01
      21    -1     0     0   502   511  0.000000000E+00  0.000000000E+00  4.192613141E+02  4.192613141E+02  0.000000000E+00  0.00000E+00  9.000E+00
      21    -1     0     0   501   502  0.000000000E+00  0.000000000E+00 -1.567253268E+02  1.567253268E+02  0.000000000E+00  0.00000E+00  9.000E+00
      25     1     1     2     0     0 -4.376739548E+01  1.140244016E+02 -6.980011251E+01  1.881866222E+02  1.250000000E+02  0.00000E+00  9.000E+00
      25     1     1     2     0     0  5.403689353E+00 -9.301538516E+01  2.519692391E+02  2.963014667E+02  1.250000000E+02  0.00000E+00  9.000E+00
      21     1     1     2   501   511  3.836370612E+01 -2.100901642E+01  8.036686068E+01  9.149855198E+01  9.536743164E-07  0.00000E+00  9.000E+00
#rwgt            1           1   5.0860535035628401E-002           2      271744           0
</event>
<event>
      5   9999  3.79277E-02  9.67858E+01 -1.00000E+00  1.24469E-01
      21    -1     0     0   502   512  0.000000000E+00  0.000000000E+00  6.442627036E+02  6.442627036E+02  0.000000000E+00  0.00000E+00  9.000E+00
      21    -1     0     0   501   502  0.000000000E+00  0.000000000E+00 -9.286144646E+01  9.286144646E+01  0.000000000E+00  0.00000E+00  9.000E+00
      25     1     1     2     0     0  2.494499510E+01 -1.017244304E+02  3.235256314E+02  3.623036664E+02  1.250000000E+02  0.00000E+00  9.000E+00
      25     1     1     2     0     0 -8.134161861E+01  2.306754997E+01  2.903694741E+01  1.536773083E+02  1.250000000E+02  0.00000E+00  9.000E+00
      21     1     1     2   501   512  5.639662351E+01  7.865688047E+01  1.988386783E+02  2.211431753E+02  3.814697266E-06  0.00000E+00  9.000E+00
#rwgt            1           1   3.2510402474869964E-002           2      271965           0
</event>
<event>
      5   9999  3.79277E-02  2.57588E+01 -1.00000E+00  1.57784E-01
      21    -1     0     0   502   511  0.000000000E+00  0.000000000E+00  4.039951871E+02  4.039951871E+02  0.000000000E+00  0.00000E+00  9.000E+00
      21    -1     0     0   501   502  0.000000000E+00  0.000000000E+00 -2.324550606E+02  2.324550606E+02  0.000000000E+00  0.00000E+00  9.000E+00
      25     1     1     2     0     0  1.121349356E+02  1.158867393E+02 -1.424423069E+01  2.045284289E+02  1.250000000E+02  0.00000E+00  9.000E+00
      25     1     1     2     0     0 -1.161807975E+02 -1.413258045E+02 -2.189122016E+01  2.226548590E+02  1.250000000E+02  0.00000E+00  9.000E+00
      21     1     1     2   501   511  4.045861911E+00  2.543906520E+01  2.076755773E+02  2.092669598E+02  3.814697266E-06  0.00000E+00  9.000E+00
#rwgt            1           1   2.6685386460712987E-002           2      272111           0
</event>
<event>
      5   9999  3.79277E-02  4.55296E+01 -1.00000E+00  1.41437E-01
      21    -1     0     0   502   501  0.000000000E+00  0.000000000E+00  2.676209599E+02  2.676209599E+02  0.000000000E+00  0.00000E+00  9.000E+00
      21    -1     0     0   512   502  0.000000000E+00  0.000000000E+00 -3.617563140E+02  3.617563140E+02  0.000000000E+00  0.00000E+00  9.000E+00
      25     1     1     2     0     0  1.625476187E+02  1.816588041E+02 -8.113016227E+01  2.857074599E+02  1.250000000E+02  0.00000E+00  9.000E+00
      25     1     1     2     0     0 -1.341278801E+02 -1.460883289E+02  7.369684112E+01  2.457403354E+02  1.250000000E+02  0.00000E+00  9.000E+00
      21     1     1     2   512   501 -2.841973855E+01 -3.557047518E+01 -8.670203303E+01  9.792947858E+01  9.536743164E-07  0.00000E+00  9.000E+00
#rwgt            1           1   4.5252845387648628E-002           2      272230           0
</event>
<event>
      5   9999  3.79277E-02  1.64900E+02 -1.00000E+00  1.14787E-01
      21    -1     0     0   511   501  0.000000000E+00  0.000000000E+00  4.469467774E+02  4.469467774E+02  0.000000000E+00  0.00000E+00  9.000E+00
      21    -1     0     0   501   502  0.000000000E+00  0.000000000E+00 -1.971403488E+02  1.971403488E+02  0.000000000E+00  0.00000E+00  9.000E+00
      25     1     1     2     0     0  7.302191879E+01  1.516955117E+02  1.704579945E+02  2.702307473E+02  1.250000000E+02  0.00000E+00  9.000E+00
      25     1     1     2     0     0 -4.147800781E+01  1.015888765E+01 -7.164335334E+01  1.502710824E+02  1.250000000E+02  0.00000E+00  9.000E+00
      21     1     1     2   511   502 -3.154391098E+01 -1.618543994E+02  1.509917874E+02  2.235852964E+02  0.000000000E+00  0.00000E+00  9.000E+00
#rwgt            2          11   2.1380830122265503E-003           2      272571           0
</event>
<event>
      5   9999  3.79277E-02  3.64648E+01 -1.00000E+00  1.47377E-01
      21    -1     0     0   512   501  0.000000000E+00  0.000000000E+00  3.638907637E+02  3.638907637E+02  0.000000000E+00  0.00000E+00  9.000E+00
      21    -1     0     0   501   502  0.000000000E+00  0.000000000E+00 -1.132907717E+03  1.132907717E+03  0.000000000E+00  0.00000E+00  9.000E+00
      25     1     1     2     0     0 -1.343796852E+02 -2.388931689E+01 -9.208479039E+02  9.392627222E+02  1.250000000E+02  0.00000E+00  9.000E+00
      25     1     1     2     0     0  1.058499156E+02  1.179538245E+00 -1.685821832E+02  2.350543521E+02  1.250000000E+02  0.00000E+00  9.000E+00
      21     1     1     2   512   502  2.852976956E+01  2.270977864E+01  3.204131333E+02  3.224814069E+02  5.394796609E-06  0.00000E+00  9.000E+00
#rwgt            1           1   2.5653504484534354E-002           2      272606           0
</event>
<event>
      5   9999  3.79277E-02  2.35496E+01 -1.00000E+00  1.60720E-01
      21    -1     0     0   502   511  0.000000000E+00  0.000000000E+00  1.078049760E+03  1.078049760E+03  0.000000000E+00  0.00000E+00  9.000E+00
      21    -1     0     0   501   502  0.000000000E+00  0.000000000E+00 -8.358040182E+01  8.358040182E+01  0.000000000E+00  0.00000E+00  9.000E+00
      25     1     1     2     0     0  1.891616691E+02  1.866045170E+02  3.879313574E+02  4.865378926E+02  1.250000000E+02  0.00000E+00  9.000E+00
      25     1     1     2     0     0 -1.724890262E+02 -1.699730521E+02  5.489054095E+02  6.128339508E+02  1.250000000E+02  0.00000E+00  9.000E+00
      21     1     1     2   501   511 -1.667264289E+01 -1.663146495E+01  5.763259086E+01  6.225831813E+01  1.168007728E-06  0.00000E+00  9.000E+00
#rwgt            1           1   3.4046273932070298E-002           2      272748           0
</event>
<event>
      5   9999  3.79277E-02  3.11699E+01 -1.00000E+00  1.51895E-01
      21    -1     0     0   502   501  0.000000000E+00  0.000000000E+00  1.532424888E+02  1.532424888E+02  0.000000000E+00  0.00000E+00  9.000E+00
       3    -1     0     0   501     0  0.000000000E+00  0.000000000E+00 -5.068821829E+02  5.068821829E+02  0.000000000E+00  0.00000E+00  9.000E+00
      25     1     1     2     0     0 -2.041762894E+02 -7.397219350E+01 -1.256669493E+02  2.803159373E+02  1.250000000E+02  0.00000E+00  9.000E+00
      25     1     1     2     0     0  1.792618183E+02  5.524167532E+01 -9.738225772E+01  2.455498856E+02  1.250000000E+02  0.00000E+00  9.000E+00
       3     1     1     2   502     0  2.491447117E+01  1.873051818E+01 -1.305904870E+02  1.342588488E+02  2.697398305E-06  0.00000E+00  9.000E+00
#rwgt            2          14   4.9633374585852698E-006           2      273040           0
</event>
<event>
      5   9999  3.79277E-02  4.92365E+01 -1.00000E+00  1.39458E-01
      21    -1     0     0   502   501  0.000000000E+00  0.000000000E+00  1.926999474E+03  1.926999474E+03  0.000000000E+00  0.00000E+00  9.000E+00
       2    -1     0     0   501     0  0.000000000E+00  0.000000000E+00 -3.087702653E+03  3.087702653E+03  0.000000000E+00  0.00000E+00  9.000E+00
      25     1     1     2     0     0  3.676012448E+02  2.754059518E+00  4.737018860E+02  6.125003974E+02  1.250000000E+02  0.00000E+00  9.000E+00
      25     1     1     2     0     0 -3.959227332E+02  3.752158406E+01  1.352296233E+03  1.415094620E+03  1.250000000E+02  0.00000E+00  9.000E+00
       2     1     1     2   502     0  2.832148836E+01 -4.027564358E+01 -2.986701298E+03  2.987107109E+03  0.000000000E+00  0.00000E+00  9.000E+00
#rwgt            1           1  0.11170385368704021                2      273149           0
</event>
<event>
      5   9999  3.79277E-02  1.26405E+02 -1.00000E+00  1.19418E-01
      21    -1     0     0   511   501  0.000000000E+00  0.000000000E+00  3.223890319E+02  3.223890319E+02  0.000000000E+00  0.00000E+00  9.000E+00
      21    -1     0     0   501   502  0.000000000E+00  0.000000000E+00 -8.004901917E+02  8.004901917E+02  0.000000000E+00  0.00000E+00  9.000E+00
      25     1     1     2     0     0  1.174006689E+02  1.381200010E+02 -6.962699375E+02  7.302580897E+02  1.250000000E+02  0.00000E+00  9.000E+00
      25     1     1     2     0     0 -8.340993393E+01 -1.637124935E+01  1.310694341E+01  1.517301119E+02  1.250000000E+02  0.00000E+00  9.000E+00
      21     1     1     2   511   502 -3.399073495E+01 -1.217487516E+02  2.050618343E+02  2.408910220E+02  2.697398305E-06  0.00000E+00  9.000E+00
#rwgt            1           1   4.7513547575099117E-002           2      273275           0
</event>
<event>
      5   9999  3.79277E-02  1.71543E+01 -1.00000E+00  1.72064E-01
      21    -1     0     0   502   501  0.000000000E+00  0.000000000E+00  5.885354944E+02  5.885354944E+02  0.000000000E+00  0.00000E+00  9.000E+00
      21    -1     0     0   512   502  0.000000000E+00  0.000000000E+00 -6.028660381E+02  6.028660381E+02  0.000000000E+00  0.00000E+00  9.000E+00
      25     1     1     2     0     0  9.217562557E+01  2.751131209E+01  4.416815578E+02  4.689998046E+02  1.250000000E+02  0.00000E+00  9.000E+00
      25     1     1     2     0     0 -9.833910341E+01 -1.150255390E+01  8.528332724E+01  1.808345484E+02  1.250000000E+02  0.00000E+00  9.000E+00
      21     1     1     2   512   501  6.163477834E+00 -1.600875819E+01 -5.412954286E+02  5.415671794E+02  7.629394531E-06  0.00000E+00  9.000E+00
#rwgt            1           1   4.4326849334177035E-002           2      273385           0
</event>
<event>
      5   9999 -3.79277E-02  3.28600E+01 -1.00000E+00  1.50343E-01
      21    -1     0     0   502   501  0.000000000E+00  0.000000000E+00  1.026891379E+02  1.026891379E+02  0.000000000E+00  0.00000E+00  9.000E+00
      21    -1     0     0   511   502  0.000000000E+00  0.000000000E+00 -1.240252844E+03  1.240252844E+03  0.000000000E+00  0.00000E+00  9.000E+00
      25     1     1     2     0     0  2.945194559E+02  8.873684677E+01 -3.322070557E+02  4.696833675E+02  1.250000000E+02  0.00000E+00  9.000E+00
      25     1     1     2     0     0 -2.692275717E+02 -6.775829304E+01 -7.157048157E+02  7.777744241E+02  1.250000000E+02  0.00000E+00  9.000E+00
      21     1     1     2   511   501 -2.529188422E+01 -2.097855373E+01 -8.965183479E+01  9.548419034E+01  0.000000000E+00  0.00000E+00  9.000E+00
#rwgt            1           1  -2.9192783036719072E-002           2      273553           0
</event>
<event>
      5   9999  3.79277E-02  6.85401E+01 -1.00000E+00  1.31686E-01
      21    -1     0     0   502   501  0.000000000E+00  0.000000000E+00  3.115680806E+02  3.115680806E+02  0.000000000E+00  0.00000E+00  9.000E+00
      21    -1     0     0   501   512  0.000000000E+00  0.000000000E+00 -4.800600756E+02  4.800600756E+02  0.000000000E+00  0.00000E+00  9.000E+00
      25     1     1     2     0     0 -1.294764397E+01  2.589142894E+02  6.556941682E+01  2.951755396E+02  1.250000000E+02  0.00000E+00  9.000E+00
      25     1     1     2     0     0  4.812583397E+01 -2.000904927E+02  1.194080915E+01  2.410806589E+02  1.250000000E+02  0.00000E+00  9.000E+00
      21     1     1     2   502   512 -3.517819000E+01 -5.882379673E+01 -2.460022209E+02  2.553719577E+02  2.697398305E-06  0.00000E+00  9.000E+00
#rwgt            1           1   4.5908798183630077E-002           2      273681           0
</event>
<event>
      5   9999  3.79277E-02  7.68127E+01 -1.00000E+00  1.29210E-01
      21    -1     0     0   502   501  0.000000000E+00  0.000000000E+00  5.082520952E+02  5.082520952E+02  0.000000000E+00  0.00000E+00  9.000E+00
       1    -1     0     0   501     0  0.000000000E+00  0.000000000E+00 -8.464577514E+02  8.464577514E+02  0.000000000E+00  0.00000E+00  9.000E+00
      25     1     1     2     0     0  8.403112734E+01  1.725044073E+02 -5.453613091E+00  2.290714797E+02  1.250000000E+02  0.00000E+00  9.000E+00
      25     1     1     2     0     0 -2.305391264E+01 -2.192159507E+02  3.535880441E+02  4.350133571E+02  1.250000000E+02  0.00000E+00  9.000E+00
       1     1     1     2   502     0 -6.097721470E+01  4.671154334E+01 -6.863400871E+02  6.906250098E+02  1.525878906E-05  0.00000E+00  9.000E+00
#rwgt            1           1   2.7355878250947107E-002           2      273735           0
</event>
<event>
      5   9999  3.79277E-02  6.85159E+01 -1.00000E+00  1.31694E-01
      21    -1     0     0   511   501  0.000000000E+00  0.000000000E+00  9.279817907E+01  9.279817907E+01  0.000000000E+00  0.00000E+00  9.000E+00
      21    -1     0     0   501   502  0.000000000E+00  0.000000000E+00 -1.025078761E+03  1.025078761E+03  0.000000000E+00  0.00000E+00  9.000E+00
      25     1     1     2     0     0 -1.821466098E+02 -3.395141468E+01 -3.267882752E+02  3.959111805E+02  1.250000000E+02  0.00000E+00  9.000E+00
      25     1     1     2     0     0  1.782345709E+02 -3.445270520E+01 -6.145262629E+02  6.528568595E+02  1.250000000E+02  0.00000E+00  9.000E+00
      21     1     1     2   511   502  3.912038944E+00  6.840411988E+01  9.033956485E+00  6.910889982E+01  1.066240300E-06  0.00000E+00  9.000E+00
#rwgt            1           1   2.5634219901292301E-002           2      273796           0
</event>
<event>
      5   9999  3.79277E-02  1.11451E+02 -1.00000E+00  1.21747E-01
      21    -1     0     0   512   501  0.000000000E+00  0.000000000E+00  1.756609374E+02  1.756609374E+02  0.000000000E+00  0.00000E+00  9.000E+00
      21    -1     0     0   501   502  0.000000000E+00  0.000000000E+00 -5.670806317E+02  5.670806317E+02  0.000000000E+00  0.00000E+00  9.000E+00
      25     1     1     2     0     0  1.146013431E+02 -1.916702800E+00 -2.836480235E+02  3.304819856E+02  1.250000000E+02  0.00000E+00  9.000E+00
      25     1     1     2     0     0 -1.484106385E+02 -1.042825837E+02 -1.756702388E+02  2.817545167E+02  1.250000000E+02  0.00000E+00  9.000E+00
      21     1     1     2   512   502  3.380929546E+01  1.061992865E+02  6.789856797E+01  1.305050668E+02  3.015782986E-06  0.00000E+00  9.000E+00
#rwgt            1           1   4.0894313008680010E-002           2      273880           0
</event>
<event>
      5   9999  3.79277E-02  1.17553E+01 -1.00000E+00  1.87974E-01
      21    -1     0     0   502   511  0.000000000E+00  0.000000000E+00  1.061136918E+02  1.061136918E+02  0.000000000E+00  0.00000E+00  9.000E+00
      21    -1     0     0   501   502  0.000000000E+00  0.000000000E+00 -4.639834784E+02  4.639834784E+02  0.000000000E+00  0.00000E+00  9.000E+00
      25     1     1     2     0     0  3.362249866E+01  1.193728809E+02 -2.230279124E+01  1.774902014E+02  1.250000000E+02  0.00000E+00  9.000E+00
      25     1     1     2     0     0 -3.685144034E+01 -1.306760575E+02 -3.327760753E+02  3.805248703E+02  1.250000000E+02  0.00000E+00  9.000E+00
      21     1     1     2   501   511  3.228941678E+00  1.130317663E+01 -2.790920105E+00  1.208209838E+01  2.021291847E-07  0.00000E+00  9.000E+00
#rwgt            1           1   3.4236482243242709E-002           2      273970           0
</event>
<event>
      5   9999  3.79277E-02  1.47875E+01 -1.00000E+00  1.77969E-01
      21    -1     0     0   502   501  0.000000000E+00  0.000000000E+00  2.907722036E+01  2.907722036E+01  0.000000000E+00  0.00000E+00  9.000E+00
       2    -1     0     0   501     0  0.000000000E+00  0.000000000E+00 -1.792677638E+03  1.792677638E+03  0.000000000E+00  0.00000E+00  9.000E+00
      25     1     1     2     0     0  1.549245675E+01 -9.830040336E+01 -2.496828694E+02  2.964279352E+02  1.250000000E+02  0.00000E+00  9.000E+00
      25     1     1     2     0     0 -2.353546382E+00  1.050856127E+02 -1.200211529E+03  1.211272570E+03  1.250000000E+02  0.00000E+00  9.000E+00
       2     1     1     2   502     0 -1.313891037E+01 -6.785209317E+00 -3.137060192E+02  3.140543528E+02  6.607249480E-06  0.00000E+00  9.000E+00
#rwgt            1           1  0.32009363671667207                2      274266           0
</event>
<event>
      5   9999  3.79277E-02  3.47217E+01 -1.00000E+00  1.48758E-01
      21    -1     0     0   502   501  0.000000000E+00  0.000000000E+00  1.316715720E+02  1.316715720E+02  0.000000000E+00  0.00000E+00  9.000E+00
      21    -1     0     0   501   511  0.000000000E+00  0.000000000E+00 -6.014577836E+02  6.014577836E+02  0.000000000E+00  0.00000E+00  9.000E+00
      25     1     1     2     0     0  1.240495230E+01  7.745918641E+01  6.812826390E+01  1.625431289E+02  1.250000000E+02  0.00000E+00  9.000E+00
      25     1     1     2     0     0  1.520648994E+01 -5.640682561E+01 -5.020606907E+02  5.206754310E+02  1.250000000E+02  0.00000E+00  9.000E+00
      21     1     1     2   502   511 -2.761144224E+01 -2.105236080E+01 -3.585378488E+01  4.991079571E+01  6.743495762E-07  0.00000E+00  9.000E+00
#rwgt            1           1   3.8182033018281582E-002           2      274531           0
</event>
<event>
      5   9999  3.79277E-02  1.08331E+01 -1.00000E+00  1.91824E-01
      21    -1     0     0   502   501  0.000000000E+00  0.000000000E+00  1.798805919E+02  1.798805919E+02  0.000000000E+00  0.00000E+00  9.000E+00
      21    -1     0     0   501   512  0.000000000E+00  0.000000000E+00 -1.668307968E+02  1.668307968E+02  0.000000000E+00  0.00000E+00  9.000E+00
      25     1     1     2     0     0  1.511031328E+00 -1.018683578E+02 -3.021012466E+01  1.640643080E+02  1.250000000E+02  0.00000E+00  9.000E+00
      25     1     1     2     0     0 -1.189101918E+01  1.049685225E+02  4.838465175E+01  1.706630059E+02  1.250000000E+02  0.00000E+00  9.000E+00
      21     1     1     2   502   512  1.037998785E+01 -3.100164759E+00 -5.124731994E+00  1.198407474E+01  1.884864366E-07  0.00000E+00  9.000E+00
#rwgt            1           1   3.3005658663107486E-002           2      274655           0
</event>
<event>
      5   9999  3.79277E-02  8.70641E+00 -1.00000E+00  2.02979E-01
      21    -1     0     0   502   501  0.000000000E+00  0.000000000E+00  4.845249077E+02  4.845249077E+02  0.000000000E+00  0.00000E+00  9.000E+00
       2    -1     0     0   501     0  0.000000000E+00  0.000000000E+00 -2.331300623E+02  2.331300623E+02  0.000000000E+00  0.00000E+00  9.000E+00
      25     1     1     2     0     0  1.349316561E+01 -2.570629238E+01  3.552662272E+02  3.777326716E+02  1.250000000E+02  0.00000E+00  9.000E+00
      25     1     1     2     0     0 -9.375867932E+00  3.337762866E+01  8.225026236E+01  1.535971310E+02  1.250000000E+02  0.00000E+00  9.000E+00
       2     1     1     2   502     0 -4.117297682E+00 -7.671336288E+00 -1.861216442E+02  1.863251674E+02  3.814697266E-06  0.00000E+00  9.000E+00
#rwgt            1           1  0.11635487546940211                2      275035           0
</event>
<event>
      5   9999  3.79277E-02  3.40395E+01 -1.00000E+00  1.49325E-01
      21    -1     0     0   502   501  0.000000000E+00  0.000000000E+00  2.015319585E+03  2.015319585E+03  0.000000000E+00  0.00000E+00  9.000E+00
      21    -1     0     0   501   511  0.000000000E+00  0.000000000E+00 -2.775552785E+01  2.775552785E+01  0.000000000E+00  0.00000E+00  9.000E+00
      25     1     1     2     0     0  1.495096178E+01  7.771222829E+01  1.719918215E+03  1.726269500E+03  1.250000000E+02  0.00000E+00  9.000E+00
      25     1     1     2     0     0 -2.473865207E+01 -4.511024367E+01  2.209699369E+02  2.590359975E+02  1.250000000E+02  0.00000E+00  9.000E+00
      21     1     1     2   502   511  9.787690290E+00 -3.260198462E+01  4.667590534E+01  5.776961504E+01  1.507891493E-06  0.00000E+00  9.000E+00
#rwgt            1           1   3.4319938965171000E-002           2      275384           0
</event>
<event>
      5   9999  3.79277E-02  1.35256E+02 -1.00000E+00  1.18203E-01
      21    -1     0     0   502   501  0.000000000E+00  0.000000000E+00  5.068494202E+02  5.068494202E+02  0.000000000E+00  0.00000E+00  9.000E+00
      21    -1     0     0   501   512  0.000000000E+00  0.000000000E+00 -1.586736776E+02  1.586736776E+02  0.000000000E+00  0.00000E+00  9.000E+00
      25     1     1     2     0     0  1.157808416E+02 -3.853931107E+01  3.413143734E+02  3.834201133E+02  1.250000000E+02  0.00000E+00  9.000E+00
      25     1     1     2     0     0 -3.344536465E+01 -6.876845515E+01 -2.101499586E+00  1.465507050E+02  1.250000000E+02  0.00000E+00  9.000E+00
      21     1     1     2   502   512 -8.233547697E+01  1.073077662E+02  8.962868812E+00  1.355522795E+02  3.607927787E-06  0.00000E+00  9.000E+00
#rwgt            1           1   3.2969119328991853E-002           2      275715           0
</event>
<event>
      5   9999  3.79277E-02  1.25435E+01 -1.00000E+00  1.85028E-01
       1    -1     0     0   502     0  0.000000000E+00  0.000000000E+00  1.340717984E+03  1.340717984E+03  0.000000000E+00  0.00000E+00  9.000E+00
      21    -1     0     0   501   502  0.000000000E+00  0.000000000E+00 -5.942003077E+01  5.942003077E+01  0.000000000E+00  0.00000E+00  9.000E+00
      25     1     1     2     0     0 -5.374764610E+01  1.388286413E+02  1.521048991E+02  2.468260550E+02  1.250000000E+02  0.00000E+00  9.000E+00
      25     1     1     2     0     0  4.666051515E+01 -1.284791423E+02  7.047896021E+02  7.287231826E+02  1.250000000E+02  0.00000E+00  9.000E+00
       1     1     1     2   501     0  7.087130952E+00 -1.034949904E+01  4.244034524E+02  4.245887775E+02  5.394796609E-06  0.00000E+00  9.000E+00
#rwgt            1           1   3.2721187763124930E-002           2      275819           0
</event>
<event>
      5   9999  3.79277E-02  9.76649E+01 -1.00000E+00  1.24291E-01
      21    -1     0     0   502   501  0.000000000E+00  0.000000000E+00  2.852257515E+02  2.852257515E+02  0.000000000E+00  0.00000E+00  9.000E+00
      21    -1     0     0   501   511  0.000000000E+00  0.000000000E+00 -4.030109421E+02  4.030109421E+02  0.000000000E+00  0.00000E+00  9.000E+00
      25     1     1     2     0     0 -9.299772657E+01 -8.606056803E+01  1.605064041E+02  2.396712420E+02  1.250000000E+02  0.00000E+00  9.000E+00
      25     1     1     2     0     0  1.841235686E+02  1.211960842E+02 -1.876636553E+02  3.153293942E+02  1.250000000E+02  0.00000E+00  9.000E+00
      21     1     1     2   502   511 -9.112584203E+01 -3.513551620E+01 -9.062793933E+01  1.332360573E+02  1.907348633E-06  0.00000E+00  9.000E+00
#rwgt            1           1   4.7175489446957104E-002           2      276325           0
</event>
<event>
      5   9999  3.79277E-02  2.72499E+01 -1.00000E+00  1.55998E-01
      21    -1     0     0   502   501  0.000000000E+00  0.000000000E+00  7.261402120E+01  7.261402120E+01  0.000000000E+00  0.00000E+00  9.000E+00
       2    -1     0     0   501     0  0.000000000E+00  0.000000000E+00 -2.698777032E+03  2.698777032E+03  0.000000000E+00  0.00000E+00  9.000E+00
      25     1     1     2     0     0  8.084810515E+01  6.249818023E+01 -1.838181840E+02  2.446560104E+02  1.250000000E+02  0.00000E+00  9.000E+00
      25     1     1     2     0     0 -1.076841335E+02 -6.722926326E+01 -1.463055728E+02  2.305340909E+02  1.250000000E+02  0.00000E+00  9.000E+00
       2     1     1     2   502     0  2.683602837E+01  4.731083030E+00 -2.296039254E+03  2.296200952E+03  0.000000000E+00  0.00000E+00  9.000E+00
#rwgt            1           1   2.1796778780197427E-002           2      276391           0
</event>
<event>
      5   9999  3.79277E-02  2.34279E+02 -1.00000E+00  1.09203E-01
      21    -1     0     0   502   511  0.000000000E+00  0.000000000E+00  5.068219612E+02  5.068219612E+02  0.000000000E+00  0.00000E+00  9.000E+00
      21    -1     0     0   501   502  0.000000000E+00  0.000000000E+00 -6.781489539E+02  6.781489539E+02  0.000000000E+00  0.00000E+00  9.000E+00
      25     1     1     2     0     0  1.010432123E+02 -4.843117442E+01 -5.442677451E+01  1.764726131E+02  1.250000000E+02  0.00000E+00  9.000E+00
      25     1     1     2     0     0  5.281817506E+01  2.251037368E+02 -4.968700482E+02  5.621087944E+02  1.250000000E+02  0.00000E+00  9.000E+00
      21     1     1     2   501   511 -1.538613873E+02 -1.766725624E+02  3.799698300E+02  4.463895076E+02  5.394796609E-06  0.00000E+00  9.000E+00
#rwgt            1           1   3.4358386367005646E-002           2      276668           0
</event>
<event>
      5   9999  3.79277E-02  3.04332E+01 -1.00000E+00  1.52609E-01
      21    -1     0     0   502   512  0.000000000E+00  0.000000000E+00  4.487168954E+01  4.487168954E+01  0.000000000E+00  0.00000E+00  9.000E+00
      21    -1     0     0   501   502  0.000000000E+00  0.000000000E+00 -1.077104395E+03  1.077104395E+03  0.000000000E+00  0.00000E+00  9.000E+00
      25     1     1     2     0     0  3.302149326E+01 -8.872179613E+01 -6.639164779E+02  6.821818421E+02  1.250000000E+02  0.00000E+00  9.000E+00
      25     1     1     2     0     0 -2.611887450E+00  8.992053995E+01 -3.777462418E+02  4.079335101E+02  1.250000000E+02  0.00000E+00  9.000E+00
      21     1     1     2   501   512 -3.040960581E+01 -1.198743827E+00  9.430014012E+00  3.186073252E+01  1.099055345E-06  0.00000E+00  9.000E+00
#rwgt            1           1   6.0327184144372277E-002           2      276789           0
</event>
<event>
      5   9999  3.79277E-02  7.47778E+01 -1.00000E+00  1.29785E-01
      21    -1     0     0   502   501  0.000000000E+00  0.000000000E+00  2.108514363E+02  2.108514363E+02  0.000000000E+00  0.00000E+00  9.000E+00
       1    -1     0     0   501     0  0.000000000E+00  0.000000000E+00 -4.027083953E+02  4.027083953E+02  0.000000000E+00  0.00000E+00  9.000E+00
      25     1     1     2     0     0  4.781080741E+01 -8.638984907E+01  1.167955762E+02  1.975228745E+02  1.250000000E+02  0.00000E+00  9.000E+00
      25     1     1     2     0     0 -1.146123323E+02  5.278524456E+01 -1.234374187E+02  2.162962438E+02  1.250000000E+02  0.00000E+00  9.000E+00
       1     1     1     2   502     0  6.680152484E+01  3.360460452E+01 -1.852151165E+02  1.997407133E+02  0.000000000E+00  0.00000E+00  9.000E+00
#rwgt            1           1   4.4203371350317940E-002           2      276901           0
</event>
<event>
      5   9999  3.79277E-02  2.40744E+01 -1.00000E+00  1.59988E-01
      21    -1     0     0   502   511  0.000000000E+00  0.000000000E+00  1.178703339E+03  1.178703339E+03  0.000000000E+00  0.00000E+00  9.000E+00
      21    -1     0     0   501   502  0.000000000E+00  0.000000000E+00 -2.755592087E+01  2.755592087E+01  0.000000000E+00  0.00000E+00  9.000E+00
      25     1     1     2     0     0  4.344415593E+01  3.394006692E+01  7.676117356E+02  7.796743547E+02  1.250000000E+02  0.00000E+00  9.000E+00
      25     1     1     2     0     0 -3.125276901E+01 -5.469930842E+01  2.164117336E+02  2.577358888E+02  1.250000000E+02  0.00000E+00  9.000E+00
      21     1     1     2   501   511 -1.219138691E+01  2.075924151E+01  1.671239491E+02  1.688490165E+02  3.303624740E-06  0.00000E+00  9.000E+00
#rwgt            1           1   5.6693986138381114E-002           2      276962           0
</event>
<event>
      5   9999  3.79277E-02  5.05061E+01 -1.00000E+00  1.38826E-01
      21    -1     0     0   502   501  0.000000000E+00  0.000000000E+00  5.232483359E+02  5.232483359E+02  0.000000000E+00  0.00000E+00  9.000E+00
      21    -1     0     0   501   512  0.000000000E+00  0.000000000E+00 -1.595491773E+02  1.595491773E+02  0.000000000E+00  0.00000E+00  9.000E+00
      25     1     1     2     0     0 -8.184844296E+01 -7.276029022E+01  2.617207953E+02  3.100258088E+02  1.250000000E+02  0.00000E+00  9.000E+00
      25     1     1     2     0     0  6.916435069E+01  1.216476628E+02  1.926858708E+02  2.689511221E+02  1.250000000E+02  0.00000E+00  9.000E+00
      21     1     1     2   502   512  1.268409227E+01 -4.888737261E+01 -9.070750747E+01  1.038205823E+02  3.015782986E-06  0.00000E+00  9.000E+00
#rwgt            1           1   3.9517401766001527E-002           2      277109           0
</event>
<event>
      5   9999  3.79277E-02  3.89844E+01 -1.00000E+00  1.45536E-01
      21    -1     0     0   511   501  0.000000000E+00  0.000000000E+00  7.101681107E+01  7.101681107E+01  0.000000000E+00  0.00000E+00  9.000E+00
      21    -1     0     0   501   502  0.000000000E+00  0.000000000E+00 -8.377108625E+02  8.377108625E+02  0.000000000E+00  0.00000E+00  9.000E+00
      25     1     1     2     0     0  1.047592951E+02  1.150906597E+02 -3.320216509E+02  3.874064358E+02  1.250000000E+02  0.00000E+00  9.000E+00
      25     1     1     2     0     0 -6.963650054E+01 -1.320072718E+02 -4.407830654E+02  4.818608438E+02  1.250000000E+02  0.00000E+00  9.000E+00
      21     1     1     2   511   502 -3.512279461E+01  1.691661213E+01  6.110664842E+00  3.946039396E+01  1.561141116E-06  0.00000E+00  9.000E+00
#rwgt            1           1   3.5461448547776109E-002           2      277215           0
</event>
<event>
      5   9999 -3.79277E-02  2.68450E+01 -1.00000E+00  1.56469E-01
      21    -1     0     0   502   501  0.000000000E+00  0.000000000E+00  1.926317801E+02  1.926317801E+02  0.000000000E+00  0.00000E+00  9.000E+00
      21    -1     0     0   501   512  0.000000000E+00  0.000000000E+00 -7.507052273E+02  7.507052273E+02  0.000000000E+00  0.00000E+00  9.000E+00
      25     1     1     2     0     0 -1.113765294E+02 -1.204979415E+02 -1.057018630E+02  2.317808642E+02  1.250000000E+02  0.00000E+00  9.000E+00
      25     1     1     2     0     0  8.874148083E+01  1.349308045E+02  4.855221977E+01  2.099135309E+02  1.250000000E+02  0.00000E+00  9.000E+00
      21     1     1     2   502   512  2.263504855E+01 -1.443286302E+01 -5.009238040E+02  5.016426122E+02  5.394796609E-06  0.00000E+00  9.000E+00
#rwgt            1           1 -0.16354580361588542                2      277311           0
</event>
<event>
      5   9999  3.79277E-02  1.14061E+01 -1.00000E+00  1.89376E-01
      21    -1     0     0   502   511  0.000000000E+00  0.000000000E+00  4.715529934E+02  4.715529934E+02  0.000000000E+00  0.00000E+00  9.000E+00
      21    -1     0     0   501   502  0.000000000E+00  0.000000000E+00 -7.281469881E+02  7.281469881E+02  0.000000000E+00  0.00000E+00  9.000E+00
      25     1     1     2     0     0 -1.257244519E+02  2.659899025E+02 -2.823810410E+02  4.265223539E+02  1.250000000E+02  0.00000E+00  9.000E+00
      25     1     1     2     0     0  1.169899434E+02 -2.586545541E+02 -3.092150127E+02  4.379814486E+02  1.250000000E+02  0.00000E+00  9.000E+00
      21     1     1     2   501   511  8.734508430E+00 -7.335348444E+00  3.350020590E+02  3.351961791E+02  6.607249480E-06  0.00000E+00  9.000E+00
#rwgt            1           1   3.7259161651562477E-002           2      277492           0
</event>
<event>
      5   9999  3.79277E-02  4.84654E+01 -1.00000E+00  1.39852E-01
      21    -1     0     0   502   501  0.000000000E+00  0.000000000E+00  1.775918931E+01  1.775918931E+01  0.000000000E+00  0.00000E+00  9.000E+00
      21    -1     0     0   512   502  0.000000000E+00  0.000000000E+00 -1.965524695E+03  1.965524695E+03  0.000000000E+00  0.00000E+00  9.000E+00
      25     1     1     2     0     0  2.766369212E+01  5.817313493E+01 -1.010938270E+03  1.020671632E+03  1.250000000E+02  0.00000E+00  9.000E+00
      25     1     1     2     0     0 -7.381839299E+01 -7.295945263E+01 -5.736114009E+02  5.961772187E+02  1.250000000E+02  0.00000E+00  9.000E+00
      21     1     1     2   512   501  4.615470087E+01  1.478631770E+01 -3.632158348E+02  3.664350341E+02  5.394796609E-06  0.00000E+00  9.000E+00
#rwgt            1           1   4.2705220989415524E-002           2      277926           0
</event>
<event>
      5   9999  3.79277E-02  7.47126E+00 -1.00000E+00  2.11631E-01
      21    -1     0     0   502   511  0.000000000E+00  0.000000000E+00  1.044579926E+02  1.044579926E+02  0.000000000E+00  0.00000E+00  9.000E+00
      21    -1     0     0   501   502  0.000000000E+00  0.000000000E+00 -5.638066042E+02  5.638066042E+02  0.000000000E+00  0.00000E+00  9.000E+00
      25     1     1     2     0     0  7.648074999E+01 -7.294756499E+01 -4.714327319E+02  4.990435583E+02  1.250000000E+02  0.00000E+00  9.000E+00
      25     1     1     2     0     0 -6.909897276E+01  7.179467752E+01  1.622681670E+01  1.606781047E+02  1.250000000E+02  0.00000E+00  9.000E+00
      21     1     1     2   501   511 -7.381777223E+00  1.152887472E+00 -4.142696324E+00  8.542933766E+00  1.332800375E-07  0.00000E+00  9.000E+00
#rwgt            1           1   2.7954230184171563E-002           2      277997           0
</event>
<event>
      5   9999  3.79277E-02  3.63471E+01 -1.00000E+00  1.47468E-01
      21    -1     0     0   502   501  0.000000000E+00  0.000000000E+00  1.065344406E+02  1.065344406E+02  0.000000000E+00  0.00000E+00  9.000E+00
       2    -1     0     0   501     0  0.000000000E+00  0.000000000E+00 -1.968563854E+03  1.968563854E+03  0.000000000E+00  0.00000E+00  9.000E+00
      25     1     1     2     0     0  1.084303762E+02  1.726925818E+02 -1.224840501E+02  2.687140056E+02  1.250000000E+02  0.00000E+00  9.000E+00
      25     1     1     2     0     0 -1.097434553E+02 -1.363691991E+02 -3.153249847E+02  3.817001840E+02  1.250000000E+02  0.00000E+00  9.000E+00
       2     1     1     2   502     0  1.313079079E+00 -3.632338270E+01 -1.424220379E+03  1.424684105E+03  2.642899792E-05  0.00000E+00  9.000E+00
#rwgt            1           1   3.9588019396493881E-002           2      278309           0
</event>
<event>
      5   9999  3.79277E-02  1.76510E+02 -1.00000E+00  1.13660E-01
      21    -1     0     0   502   501  0.000000000E+00  0.000000000E+00  3.613466402E+02  3.613466402E+02  0.000000000E+00  0.00000E+00  9.000E+00
       1    -1     0     0   501     0  0.000000000E+00  0.000000000E+00 -1.198535625E+03  1.198535625E+03  0.000000000E+00  0.00000E+00  9.000E+00
      25     1     1     2     0     0  3.973922197E+02  2.131659925E+02 -1.441511275E+02  4.896579053E+02  1.250000000E+02  0.00000E+00  9.000E+00
      25     1     1     2     0     0 -2.651720165E+02 -3.301002935E+02 -1.016189865E+02  4.530273949E+02  1.250000000E+02  0.00000E+00  9.000E+00
       1     1     1     2   502     0 -1.322202032E+02  1.169343011E+02 -5.914188708E+02  6.171969650E+02  0.000000000E+00  0.00000E+00  9.000E+00
#rwgt            1           1   4.0830974963078678E-002           2      278433           0
</event>
<event>
      5   9999  3.79277E-02  2.25395E+02 -1.00000E+00  1.09790E-01
      21    -1     0     0   502   501  0.000000000E+00  0.000000000E+00  1.787045348E+02  1.787045348E+02  0.000000000E+00  0.00000E+00  9.000E+00
       2    -1     0     0   501     0  0.000000000E+00  0.000000000E+00 -2.973732940E+03  2.973732940E+03  0.000000000E+00  0.00000E+00  9.000E+00
      25     1     1     2     0     0  7.754047087E+01  2.364035308E+02 -1.807336152E+02  3.319469742E+02  1.250000000E+02  0.00000E+00  9.000E+00
      25     1     1     2     0     0  1.251457686E+02 -3.349992494E+02 -2.695538428E+02  4.649411088E+02  1.250000000E+02  0.00000E+00  9.000E+00
       2     1     1     2   502     0 -2.026862395E+02  9.859571865E+01 -2.344740947E+03  2.355549392E+03  3.051757812E-05  0.00000E+00  9.000E+00
#rwgt            2          13   1.4529879392630217E-003           2      278638           0
</event>
<event>
      5   9999  3.79277E-02  2.34321E+01 -1.00000E+00  1.60887E-01
       1    -1     0     0   502     0  0.000000000E+00  0.000000000E+00  5.404887642E+02  5.404887642E+02  0.000000000E+00  0.00000E+00  9.000E+00
      21    -1     0     0   501   502  0.000000000E+00  0.000000000E+00 -8.062463055E+02  8.062463055E+02  0.000000000E+00  0.00000E+00  9.000E+00
      25     1     1     2     0     0  5.759286118E+01 -1.743092188E+01 -6.843716512E+02  6.982910079E+02  1.250000000E+02  0.00000E+00  9.000E+00
      25     1     1     2     0     0 -7.581606431E+01  2.700796701E+00 -6.800521510E+01  1.612609041E+02  1.250000000E+02  0.00000E+00  9.000E+00
       1     1     1     2   501     0  1.822320313E+01  1.473012518E+01  4.866193250E+02  4.871831577E+02  7.629394531E-06  0.00000E+00  9.000E+00
#rwgt            1           1   2.4123237488003796E-002           2      278762           0
</event>
<event>
      5   9999  3.79277E-02  4.09936E+01 -1.00000E+00  1.44182E-01
      21    -1     0     0   502   501  0.000000000E+00  0.000000000E+00  1.910843443E+01  1.910843443E+01  0.000000000E+00  0.00000E+00  9.000E+00
      21    -1     0     0   511   502  0.000000000E+00  0.000000000E+00 -2.186398796E+03  2.186398796E+03  0.000000000E+00  0.00000E+00  9.000E+00
      25     1     1     2     0     0 -7.088875421E+01 -2.206201298E+00 -3.913060617E+02  4.168639067E+02  1.250000000E+02  0.00000E+00  9.000E+00
      25     1     1     2     0     0  1.026964908E+02 -2.365393447E+01 -1.183116331E+03  1.194359800E+03  1.250000000E+02  0.00000E+00  9.000E+00
      21     1     1     2   511   501 -3.180773655E+01  2.586013576E+01 -5.928679685E+02  5.942835240E+02  1.078959322E-05  0.00000E+00  9.000E+00
#rwgt            1           1   3.8242468076573534E-002           2      278901           0
</event>
<event>
      5   9999  3.79277E-02  7.00804E+01 -1.00000E+00  1.31195E-01
      21    -1     0     0   512   501  0.000000000E+00  0.000000000E+00  2.234595195E+01  2.234595195E+01  0.000000000E+00  0.00000E+00  9.000E+00
      21    -1     0     0   501   502  0.000000000E+00  0.000000000E+00 -2.427046080E+03  2.427046080E+03  0.000000000E+00  0.00000E+00  9.000E+00
      25     1     1     2     0     0 -1.190347557E+02 -3.908175395E+01 -1.385701774E+03  1.396957789E+03  1.250000000E+02  0.00000E+00  9.000E+00
      25     1     1     2     0     0  1.045159677E+02 -2.947823158E+01 -8.933297322E+02  9.085458514E+02  1.250000000E+02  0.00000E+00  9.000E+00
      21     1     1     2   512   502  1.451878803E+01  6.855998552E+01 -1.256686215E+02  1.438883917E+02  3.303624740E-06  0.00000E+00  9.000E+00
#rwgt            1           1   6.9232569114147768E-002           2      279200           0
</event>
<event>
      5   9999  3.79277E-02  3.39235E+01 -1.00000E+00  1.49423E-01
      21    -1     0     0   511   501  0.000000000E+00  0.000000000E+00  7.906575161E+02  7.906575161E+02  0.000000000E+00  0.00000E+00  9.000E+00
      21    -1     0     0   501   502  0.000000000E+00  0.000000000E+00 -6.360656257E+01  6.360656257E+01  0.000000000E+00  0.00000E+00  9.000E+00
      25     1     1     2     0     0  1.525942599E+02 -2.721736281E+01  4.174065095E+02  4.624705257E+02  1.250000000E+02  0.00000E+00  9.000E+00
      25     1     1     2     0     0 -1.590024670E+02 -6.095333518E+00  2.370745703E+02  3.116862035E+02  1.250000000E+02  0.00000E+00  9.000E+00
      21     1     1     2   511   502  6.408207096E+00  3.331269633E+01  7.256987374E+01  8.010734941E+01  1.651812370E-06  0.00000E+00  9.000E+00
#rwgt            1           1   3.5539252786897180E-002           2      279259           0
</event>
<event>
      5   9999  3.79277E-02  6.88120E+01 -1.00000E+00  1.31598E-01
      21    -1     0     0   502   501  0.000000000E+00  0.000000000E+00  4.948435775E+01  4.948435775E+01  0.000000000E+00  0.00000E+00  9.000E+00
      -3    -1     0     0     0   502  0.000000000E+00  0.000000000E+00 -1.560541261E+03  1.560541261E+03  0.000000000E+00  0.00000E+00  9.000E+00
      25     1     1     2     0     0 -1.278599938E+02  8.190637112E+01 -7.378538785E+02  7.636165122E+02  1.250000000E+02  0.00000E+00  9.000E+00
      25     1     1     2     0     0  1.255927662E+02 -1.506809943E+02 -3.675920391E+02  4.350025427E+02  1.250000000E+02  0.00000E+00  9.000E+00
      -3     1     1     2     0   501  2.267227606E+00  6.877462314E+01 -4.056109859E+02  4.114065641E+02  0.000000000E+00  0.00000E+00  9.000E+00
#rwgt            1           1   3.6261597126190030E-002           2      279523           0
</event>
<event>
      5   9999  3.79277E-02  2.24764E+02 -1.00000E+00  1.09833E-01
      21    -1     0     0   502   511  0.000000000E+00  0.000000000E+00  1.636306618E+02  1.636306618E+02  0.000000000E+00  0.00000E+00  9.000E+00
      21    -1     0     0   501   502  0.000000000E+00  0.000000000E+00 -1.209580056E+03  1.209580056E+03  0.000000000E+00  0.00000E+00  9.000E+00
      25     1     1     2     0     0 -9.138580796E+01 -1.633232211E+02 -4.711160079E+02  5.221121847E+02  1.250000000E+02  0.00000E+00  9.000E+00
      25     1     1     2     0     0  1.622602005E+02 -4.997400267E+01 -5.892898538E+02  6.258700387E+02  1.250000000E+02  0.00000E+00  9.000E+00
      21     1     1     2   501   511 -7.087439253E+01  2.132972238E+02  1.445646770E+01  2.252284943E+02  8.085167388E-07  0.00000E+00  9.000E+00
#rwgt            1           1   3.7622040066103792E-002           2      279598           0
</event>
<event>
      5   9999  3.79277E-02  7.83395E+01 -1.00000E+00  1.28792E-01
      21    -1     0     0   502   501  0.000000000E+00  0.000000000E+00  6.329490875E+01  6.329490875E+01  0.000000000E+00  0.00000E+00  9.000E+00
      21    -1     0     0   501   512  0.000000000E+00  0.000000000E+00 -1.805048871E+03  1.805048871E+03  0.000000000E+00  0.00000E+00  9.000E+00
      25     1     1     2     0     0  8.529617353E+01  3.154158839E+01 -4.452250213E+02  4.712967522E+02  1.250000000E+02  0.00000E+00  9.000E+00
      25     1     1     2     0     0 -8.429853025E+01 -1.098747089E+02 -1.288169529E+02  2.267101701E+02  1.250000000E+02  0.00000E+00  9.000E+00
      21     1     1     2   502   512 -9.976432784E-01  7.833312049E+01 -1.167711988E+03  1.170336857E+03  1.525878906E-05  0.00000E+00  9.000E+00
#rwgt            1           1   3.8862937729844921E-002           2      279694           0
</event>
<event>
      5   9999  3.79277E-02  1.43809E+01 -1.00000E+00  1.79126E-01
      21    -1     0     0   502   501  0.000000000E+00  0.000000000E+00  1.692126727E+02  1.692126727E+02  0.000000000E+00  0.00000E+00  9.000E+00
      21    -1     0     0   501   511  0.000000000E+00  0.000000000E+00 -5.728485171E+02  5.728485171E+02  0.000000000E+00  0.00000E+00  9.000E+00
      25     1     1     2     0     0  3.938555661E+01  1.597970499E+02 -4.524430079E+02  4.974092828E+02  1.250000000E+02  0.00000E+00  9.000E+00
      25     1     1     2     0     0 -3.442399134E+01 -1.462991156E+02  7.928690508E+01  2.109498891E+02  1.250000000E+02  0.00000E+00  9.000E+00
      21     1     1     2   502   511 -4.961565271E+00 -1.349793433E+01 -3.047974156E+01  3.370201785E+01  4.768371582E-07  0.00000E+00  9.000E+00
#rwgt            1           1   4.2273574675846796E-002           2      279757           0
</event>
<event>
      5   9999  3.79277E-02  1.68877E+01 -1.00000E+00  1.72667E-01
      21    -1     0     0   502   501  0.000000000E+00  0.000000000E+00  2.260717431E+02  2.260717431E+02  0.000000000E+00  0.00000E+00  9.000E+00
      21    -1     0     0   512   502  0.000000000E+00  0.000000000E+00 -3.299392103E+02  3.299392103E+02  0.000000000E+00  0.00000E+00  9.000E+00
      25     1     1     2     0     0  1.930256651E+02  4.264805183E+01  2.442790928E+01  2.351584284E+02  1.250000000E+02  0.00000E+00  9.000E+00
      25     1     1     2     0     0 -1.762084234E+02 -4.110703908E+01 -3.098859416E+01  2.220911752E+02  1.250000000E+02  0.00000E+00  9.000E+00
      21     1     1     2   512   501 -1.681724165E+01 -1.541012751E+00 -9.730678229E+01  9.876134981E+01  0.000000000E+00  0.00000E+00  9.000E+00
#rwgt            1           1   3.1336820459105491E-002           2      279949           0
</event>
<event>
      5   9999  3.79277E-02  7.64173E+01 -1.00000E+00  1.29320E-01
      21    -1     0     0   511   501  0.000000000E+00  0.000000000E+00  2.555214050E+02  2.555214050E+02  0.000000000E+00  0.00000E+00  9.000E+00
      21    -1     0     0   501   502  0.000000000E+00  0.000000000E+00 -2.446875662E+02  2.446875662E+02  0.000000000E+00  0.00000E+00  9.000E+00
      25     1     1     2     0     0 -1.828853158E+02 -2.531854342E+00 -6.638092583E+01  2.312679752E+02  1.250000000E+02  0.00000E+00  9.000E+00
      25     1     1     2     0     0  1.166082674E+02  4.057082818E+01  2.764895492E+01  1.778565288E+02  1.250000000E+02  0.00000E+00  9.000E+00
      21     1     1     2   511   502  6.627704838E+01 -3.803897384E+01  4.956580975E+01  9.108446722E+01  1.168007728E-06  0.00000E+00  9.000E+00
#rwgt            1           1   4.4776895244734001E-002           2      280379           0
</event>
<event>
      5   9999  3.79277E-02  1.77118E+01 -1.00000E+00  1.70844E-01
      21    -1     0     0   502   501  0.000000000E+00  0.000000000E+00  5.156258992E+01  5.156258992E+01  0.000000000E+00  0.00000E+00  9.000E+00
      21    -1     0     0   512   502  0.000000000E+00  0.000000000E+00 -7.806559693E+02  7.806559693E+02  0.000000000E+00  0.00000E+00  9.000E+00
      25     1     1     2     0     0  7.638856783E+01 -1.039999762E+02 -4.127959429E+02  4.501962892E+02  1.250000000E+02  0.00000E+00  9.000E+00
      25     1     1     2     0     0 -9.391905496E+01  1.014722742E+02 -2.409977526E+02  3.046675697E+02  1.250000000E+02  0.00000E+00  9.000E+00
      21     1     1     2   512   501  1.753048713E+01  2.527702032E+00 -7.529968392E+01  7.735470027E+01  9.536743164E-07  0.00000E+00  9.000E+00
#rwgt            1           1   4.7780930893611566E-002           2      280550           0
</event>
<event>
      5   9999  3.79277E-02  1.92995E+01 -1.00000E+00  1.67657E-01
      21    -1     0     0   502   501  0.000000000E+00  0.000000000E+00  3.579967237E+02  3.579967237E+02  0.000000000E+00  0.00000E+00  9.000E+00
      21    -1     0     0   511   502  0.000000000E+00  0.000000000E+00 -1.035765264E+02  1.035765264E+02  0.000000000E+00  0.00000E+00  9.000E+00
      25     1     1     2     0     0 -3.633809357E+01 -1.226371144E+02  1.779817115E+02  2.523148995E+02  1.250000000E+02  0.00000E+00  9.000E+00
      25     1     1     2     0     0  1.715061666E+01  1.205602763E+02  7.487618003E+01  1.898956719E+02  1.250000000E+02  0.00000E+00  9.000E+00
      21     1     1     2   511   501  1.918747691E+01  2.076838115E+00  1.562305730E+00  1.936267868E+01  2.912405176E-07  0.00000E+00  9.000E+00
#rwgt            1           1   3.9308468407760228E-002           2      280743           0
</event>
<event>
      5   9999  3.79277E-02  4.29896E+01 -1.00000E+00  1.42925E-01
      21    -1     0     0   512   501  0.000000000E+00  0.000000000E+00  2.533319043E+02  2.533319043E+02  0.000000000E+00  0.00000E+00  9.000E+00
      21    -1     0     0   501   502  0.000000000E+00  0.000000000E+00 -2.944296606E+02  2.944296606E+02  0.000000000E+00  0.00000E+00  9.000E+00
      25     1     1     2     0     0  1.622163308E+02 -5.663940310E+01  1.192630513E+02  2.436613128E+02  1.250000000E+02  0.00000E+00  9.000E+00
      25     1     1     2     0     0 -1.200261537E+02  6.489114531E+01 -1.788063811E+02  2.573205399E+02  1.250000000E+02  0.00000E+00  9.000E+00
      21     1     1     2   512   502 -4.219017710E+01 -8.251742210E+00  1.844557344E+01  4.677971219E+01  4.129530925E-07  0.00000E+00  9.000E+00
#rwgt            1           1   4.4335724984337667E-002           2      281072           0
</event>
<event>
      5   9999  3.79277E-02  3.40453E+01 -1.00000E+00  1.49320E-01
      21    -1     0     0   502   501  0.000000000E+00  0.000000000E+00  5.871907324E+02  5.871907324E+02  0.000000000E+00  0.00000E+00  9.000E+00
      21    -1     0     0   511   502  0.000000000E+00  0.000000000E+00 -1.423701362E+02  1.423701362E+02  0.000000000E+00  0.00000E+00  9.000E+00
      25     1     1     2     0     0 -8.946481219E+00 -1.677756690E+02  4.272915766E+02  4.758485116E+02  1.250000000E+02  0.00000E+00  9.000E+00
      25     1     1     2     0     0 -1.807437059E+01  1.470644214E+02  5.654281218E+01  2.019324553E+02  1.250000000E+02  0.00000E+00  9.000E+00
      21     1     1     2   511   501  2.702085181E+01  2.071124762E+01 -3.901379247E+01  5.177990163E+01  0.000000000E+00  0.00000E+00  9.000E+00
#rwgt            1           1   4.1667370844754394E-002           2      281202           0
</event>
<event>
      5   9999  3.79277E-02  1.33264E+01 -1.00000E+00  1.82365E-01
      21    -1     0     0   512   501  0.000000000E+00  0.000000000E+00  1.839205555E+02  1.839205555E+02  0.000000000E+00  0.00000E+00  9.000E+00
      21    -1     0     0   501   502  0.000000000E+00  0.000000000E+00 -3.500494013E+02  3.500494013E+02  0.000000000E+00  0.00000E+00  9.000E+00
      25     1     1     2     0     0  1.970429455E+01 -2.198348961E+01  1.359620174E+02  1.870352994E+02  1.250000000E+02  0.00000E+00  9.000E+00
      25     1     1     2     0     0 -8.743266884E+00  2.956305649E+01 -3.068652726E+02  3.327787772E+02  1.250000000E+02  0.00000E+00  9.000E+00
      21     1     1     2   512   502 -1.096102766E+01 -7.579566882E+00  4.774409321E+00  1.415588026E+01  2.457562462E-07  0.00000E+00  9.000E+00
#rwgt            1           1   5.3320792309026255E-002           2      281387           0
</event>
<event>
      5   9999  3.79277E-02  5.46651E+01 -1.00000E+00  1.36901E-01
      -3    -1     0     0     0   501  0.000000000E+00  0.000000000E+00  2.678351146E+02  2.678351146E+02  0.000000000E+00  0.00000E+00  9.000E+00
      21    -1     0     0   501   502  0.000000000E+00  0.000000000E+00 -1.637484250E+03  1.637484250E+03  0.000000000E+00  0.00000E+00  9.000E+00
      25     1     1     2     0     0  7.779815650E+01  7.531186200E+00 -1.411715401E+03  1.419392350E+03  1.250000000E+02  0.00000E+00  9.000E+00
      25     1     1     2     0     0 -2.774099358E+01 -2.949824653E+01 -1.991519970E+02  2.385921775E+02  1.250000000E+02  0.00000E+00  9.000E+00
      -3     1     1     2     0   502 -5.005716292E+01  2.196706033E+01  2.412182623E+02  2.473348366E+02  0.000000000E+00  0.00000E+00  9.000E+00
#rwgt            1           1   4.4203665744970970E-002           2      281700           0
</event>
<event>
      5   9999  3.79277E-02  2.08189E+02 -1.00000E+00  1.11017E-01
      21    -1     0     0   502   501  0.000000000E+00  0.000000000E+00  2.287566049E+02  2.287566049E+02  0.000000000E+00  0.00000E+00  9.000E+00
      21    -1     0     0   501   511  0.000000000E+00  0.000000000E+00 -5.317505054E+02  5.317505054E+02  0.000000000E+00  0.00000E+00  9.000E+00
      25     1     1     2     0     0  1.422175293E+02 -9.566607030E+01  2.649959533E+01  2.137873972E+02  1.250000000E+02  0.00000E+00  9.000E+00
      25     1     1     2     0     0 -1.301095101E+02 -1.121705179E+02 -2.388210816E+02  3.196423293E+02  1.250000000E+02  0.00000E+00  9.000E+00
      21     1     1     2   502   511 -1.210801919E+01  2.078365882E+02 -9.067241420E+01  2.270773837E+02  2.336015456E-06  0.00000E+00  9.000E+00
#rwgt            2          11   1.8410959370676700E-003           2      281900           0
</event>
<event>
      5   9999  3.79277E-02  2.32841E+01 -1.00000E+00  1.61099E-01
      21    -1     0     0   502   501  0.000000000E+00  0.000000000E+00  7.774410582E+01  7.774410582E+01  0.000000000E+00  0.00000E+00  9.000E+00
      21    -1     0     0   512   502  0.000000000E+00  0.000000000E+00 -6.160852355E+02  6.160852355E+02  0.000000000E+00  0.00000E+00  9.000E+00
      25     1     1     2     0     0 -6.507877818E+01  5.450986224E+01 -4.426408880E+02  4.677205663E+02  1.250000000E+02  0.00000E+00  9.000E+00
      25     1     1     2     0     0  5.277828839E+01 -3.474003131E+01 -1.354256797E+01  1.407153817E+02  1.250000000E+02  0.00000E+00  9.000E+00
      21     1     1     2   512   501  1.230048979E+01 -1.976983092E+01 -8.215767367E+01  8.539339323E+01  9.536743164E-07  0.00000E+00  9.000E+00
#rwgt            1           1   1.7795517418948359E-002           2      282040           0
</event>
<event>
      5   9999  3.79277E-02  2.97154E+01 -1.00000E+00  1.53328E-01
      21    -1     0     0   511   501  0.000000000E+00  0.000000000E+00  2.490876865E+02  2.490876865E+02  0.000000000E+00  0.00000E+00  9.000E+00
      21    -1     0     0   501   502  0.000000000E+00  0.000000000E+00 -2.886143878E+02  2.886143878E+02  0.000000000E+00  0.00000E+00  9.000E+00
      25     1     1     2     0     0 -1.709640288E+02 -3.458018981E+01  1.010655813E+02  2.371997901E+02  1.250000000E+02  0.00000E+00  9.000E+00
      25     1     1     2     0     0  1.421731030E+02  4.193474993E+01 -1.706041003E+02  2.582682201E+02  1.250000000E+02  0.00000E+00  9.000E+00
      21     1     1     2   511   502  2.879092587E+01 -7.354560113E+00  3.001181778E+01  4.223406414E+01  4.768371582E-07  0.00000E+00  9.000E+00
#rwgt            1           1   6.1675633357175262E-002           2      282317           0
</event>
<event>
      5   9999  3.79277E-02  8.02497E+01 -1.00000E+00  1.28284E-01
      21    -1     0     0   502   501  0.000000000E+00  0.000000000E+00  2.037370883E+03  2.037370883E+03  0.000000000E+00  0.00000E+00  9.000E+00
      21    -1     0     0   501   512  0.000000000E+00  0.000000000E+00 -1.444529610E+02  1.444529610E+02  0.000000000E+00  0.00000E+00  9.000E+00
      25     1     1     2     0     0  1.197223236E+02 -7.473173414E+01  3.706592572E+02  4.158503959E+02  1.250000000E+02  0.00000E+00  9.000E+00
      25     1     1     2     0     0 -9.279407519E+01 -8.651691789E-01  1.626772114E+03  1.634204394E+03  1.250000000E+02  0.00000E+00  9.000E+00
      21     1     1     2   502   512 -2.692824843E+01  7.559690332E+01 -1.045134498E+02  1.317690538E+02  4.264961200E-06  0.00000E+00  9.000E+00
#rwgt            1           1   9.0104226010034247E-002           2      282530           0
</event>
<event>
      5   9999  3.79277E-02  7.77496E+01 -1.00000E+00  1.28952E-01
      21    -1     0     0   511   501  0.000000000E+00  0.000000000E+00  1.229227162E+02  1.229227162E+02  0.000000000E+00  0.00000E+00  9.000E+00
      21    -1     0     0   501   502  0.000000000E+00  0.000000000E+00 -1.219431944E+03  1.219431944E+03  0.000000000E+00  0.00000E+00  9.000E+00
      25     1     1     2     0     0  6.688838617E+01  5.943208264E+01 -2.736142849E+02  3.138407328E+02  1.250000000E+02  0.00000E+00  9.000E+00
      25     1     1     2     0     0 -5.944628367E+00 -1.115304816E+01 -9.060230823E+02  9.146926012E+02  1.250000000E+02  0.00000E+00  9.000E+00
      21     1     1     2   511   502 -6.094375780E+01 -4.827903448E+01  8.312813929E+01  1.138213263E+02  3.015782986E-06  0.00000E+00  9.000E+00
#rwgt            1           1   5.0027104271473749E-002           2      282637           0
</event>
<event>
      5   9999  3.79277E-02  2.98173E+01 -1.00000E+00  1.53224E-01
      21    -1     0     0   502   501  0.000000000E+00  0.000000000E+00  1.134646947E+02  1.134646947E+02  0.000000000E+00  0.00000E+00  9.000E+00
      21    -1     0     0   512   502  0.000000000E+00  0.000000000E+00 -7.664219944E+02  7.664219944E+02  0.000000000E+00  0.00000E+00  9.000E+00
      25     1     1     2     0     0  4.301464079E+01  3.724332326E+01  5.336913614E+01  1.473451361E+02  1.250000000E+02  0.00000E+00  9.000E+00
      25     1     1     2     0     0 -5.667827704E+01 -1.074091342E+01 -3.680738092E+02  3.929772554E+02  1.250000000E+02  0.00000E+00  9.000E+00
      21     1     1     2   512   501  1.366363626E+01 -2.650240983E+01 -3.382526267E+02  3.395642975E+02  3.814697266E-06  0.00000E+00  9.000E+00
#rwgt            1           1   2.0287625082558026E-002           2      282736           0
</event>
<event>
      5   9999  3.79277E-02  1.84673E+02 -1.00000E+00  1.12923E-01
      21    -1     0     0   502   501  0.000000000E+00  0.000000000E+00  9.113662314E+01  9.113662314E+01  0.000000000E+00  0.00000E+00  9.000E+00
      21    -1     0     0   501   511  0.000000000E+00  0.000000000E+00 -1.563944878E+03  1.563944878E+03  0.000000000E+00  0.00000E+00  9.000E+00
      25     1     1     2     0     0  1.073782356E+01  2.745321596E+02 -5.245390881E+02  6.051854777E+02  1.250000000E+02  0.00000E+00  9.000E+00
      25     1     1     2     0     0 -1.622908436E+02 -1.690052236E+02 -5.377217403E+02  5.997255652E+02  1.250000000E+02  0.00000E+00  9.000E+00
      21     1     1     2   502   511  1.515530200E+02 -1.055269360E+02 -4.105474261E+02  4.501704579E+02  5.394796609E-06  0.00000E+00  9.000E+00
#rwgt            1           1   3.3153122058795108E-002           2      283046           0
</event>
<event>
      5   9999  3.79277E-02  3.40971E+01 -1.00000E+00  1.49276E-01
      21    -1     0     0   502   501  0.000000000E+00  0.000000000E+00  1.061338037E+02  1.061338037E+02  0.000000000E+00  0.00000E+00  9.000E+00
      21    -1     0     0   512   502  0.000000000E+00  0.000000000E+00 -4.461692469E+02  4.461692469E+02  0.000000000E+00  0.00000E+00  9.000E+00
      25     1     1     2     0     0  4.827465144E+01 -5.202013642E+01  2.984223489E+01  1.468063198E+02  1.250000000E+02  0.00000E+00  9.000E+00
      25     1     1     2     0     0 -1.744948278E+01  3.744545431E+01 -3.051496414E+02  3.323371032E+02  1.250000000E+02  0.00000E+00  9.000E+00
      21     1     1     2   512   501 -3.082516866E+01  1.457468211E+01 -6.472803661E+01  7.315962756E+01  1.348699152E-06  0.00000E+00  9.000E+00
#rwgt            1           1   1.8534479510613662E-002           2      283185           0
</event>
<event>
      5   9999  3.79277E-02  2.05833E+01 -1.00000E+00  1.65346E-01
      21    -1     0     0   511   501  0.000000000E+00  0.000000000E+00  1.152791975E+02  1.152791975E+02  0.000000000E+00  0.00000E+00  9.000E+00
      21    -1     0     0   501   502  0.000000000E+00  0.000000000E+00 -9.699946625E+02  9.699946625E+02  0.000000000E+00  0.00000E+00  9.000E+00
      25     1     1     2     0     0  1.762761796E+01 -1.809414126E+02 -8.218172395E+02  8.509166251E+02  1.250000000E+02  0.00000E+00  9.000E+00
      25     1     1     2     0     0 -2.516998270E+01  1.617898195E+02 -4.447355748E+01  2.107424282E+02  1.250000000E+02  0.00000E+00  9.000E+00
      21     1     1     2   511   502  7.542364744E+00  1.915159314E+01  1.157533201E+01  2.361480672E+01  4.129530925E-07  0.00000E+00  9.000E+00
#rwgt            1           1   3.7540365272331337E-002           2      283265           0
</event>
<event>
      5   9999  3.79277E-02  6.86768E+01 -1.00000E+00  1.31642E-01
      21    -1     0     0   502   501  0.000000000E+00  0.000000000E+00  1.390316891E+02  1.390316891E+02  0.000000000E+00  0.00000E+00  9.000E+00
      -1    -1     0     0     0   502  0.000000000E+00  0.000000000E+00 -1.008477860E+03  1.008477860E+03  0.000000000E+00  0.00000E+00  9.000E+00
      25     1     1     2     0     0 -9.089355962E+01  1.220814521E+01  3.218407099E+00  1.550678437E+02  1.250000000E+02  0.00000E+00  9.000E+00
      25     1     1     2     0     0  1.552123578E+02  1.186655946E+01 -1.124522449E+02  2.291335826E+02  1.250000000E+02  0.00000E+00  9.000E+00
      -1     1     1     2     0   501 -6.431879822E+01 -2.407470467E+01 -7.602123326E+02  7.633081225E+02  0.000000000E+00  0.00000E+00  9.000E+00
#rwgt            1           1   3.7347201300130986E-002           2      283453           0
</event>
<event>
      5   9999  3.79277E-02  2.57109E+01 -1.00000E+00  1.57844E-01
      21    -1     0     0   502   501  0.000000000E+00  0.000000000E+00  3.683153409E+02  3.683153409E+02  0.000000000E+00  0.00000E+00  9.000E+00
      21    -1     0     0   501   511  0.000000000E+00  0.000000000E+00 -2.816500620E+02  2.816500620E+02  0.000000000E+00  0.00000E+00  9.000E+00
      25     1     1     2     0     0 -4.663515351E+01 -5.803472823E+00  3.312469316E+02  3.571526949E+02  1.250000000E+02  0.00000E+00  9.000E+00
      25     1     1     2     0     0  4.108313100E+01  3.090773890E+01 -2.095710936E+02  2.493755306E+02  1.250000000E+02  0.00000E+00  9.000E+00
      21     1     1     2   502   511  5.552022507E+00 -2.510426608E+01 -3.501055906E+01  4.343717734E+01  0.000000000E+00  0.00000E+00  9.000E+00
#rwgt            1           1   3.3320888389135786E-002           2      283657           0
</event>
<event>
      5   9999  3.79277E-02  7.56192E+01 -1.00000E+00  1.29545E-01
      21    -1     0     0   512   501  0.000000000E+00  0.000000000E+00  6.037359772E+02  6.037359772E+02  0.000000000E+00  0.00000E+00  9.000E+00
      21    -1     0     0   501   502  0.000000000E+00  0.000000000E+00 -1.252184344E+02  1.252184344E+02  0.000000000E+00  0.00000E+00  9.000E+00
      25     1     1     2     0     0  3.630294558E+01  1.226559072E+02  8.281587108E+01  1.970934903E+02  1.250000000E+02  0.00000E+00  9.000E+00
      25     1     1     2     0     0  3.666448434E+01 -1.425058853E+02  8.302038564E+01  2.101656399E+02  1.250000000E+02  0.00000E+00  9.000E+00
      21     1     1     2   512   502 -7.296742992E+01  1.984997806E+01  3.126812861E+02  3.216952815E+02  3.814697266E-06  0.00000E+00  9.000E+00
#rwgt            1           1   2.2293076365954366E-002           2      283769           0
</event>
<event>
      5   9999  3.79277E-02  5.46173E+01 -1.00000E+00  1.36922E-01
      21    -1     0     0   502   511  0.000000000E+00  0.000000000E+00  2.673348176E+02  2.673348176E+02  0.000000000E+00  0.00000E+00  9.000E+00
      21    -1     0     0   501   502  0.000000000E+00  0.000000000E+00 -2.322386375E+02  2.322386375E+02  0.000000000E+00  0.00000E+00  9.000E+00
      25     1     1     2     0     0  9.451042604E+01 -2.012722190E+01  1.707068625E+02  2.326008569E+02  1.250000000E+02  0.00000E+00  9.000E+00
      25     1     1     2     0     0 -5.572693759E+01  5.858361138E+01 -1.491177951E+02  2.107098667E+02  1.250000000E+02  0.00000E+00  9.000E+00
      21     1     1     2   501   511 -3.878348845E+01 -3.845638948E+01  1.350711261E+01  5.626273153E+01  5.591411304E-07  0.00000E+00  9.000E+00
#rwgt            2          11   3.2478352548098812E-003           2      283964           0
</event>
<event>
      5   9999  3.79277E-02  1.55590E+01 -1.00000E+00  1.75900E-01
      21    -1     0     0   502   501  0.000000000E+00  0.000000000E+00  6.714658312E+02  6.714658312E+02  0.000000000E+00  0.00000E+00  9.000E+00
      -4    -1     0     0     0   502  0.000000000E+00  0.000000000E+00 -8.533128337E+01  8.533128337E+01  0.000000000E+00  0.00000E+00  9.000E+00
      25     1     1     2     0     0  5.270862319E+00  1.176539712E+02  4.358711730E+02  4.684857718E+02  1.250000000E+02  0.00000E+00  9.000E+00
      25     1     1     2     0     0  8.395314120E+00 -1.102163832E+02  1.856725459E+02  2.496345864E+02  1.250000000E+02  0.00000E+00  9.000E+00
      -4     1     1     2     0   501 -1.366617644E+01 -7.437587979E+00 -3.540917102E+01  3.867675640E+01  9.536743164E-07  0.00000E+00  9.000E+00
#rwgt            1           1   4.1345142480440994E-002           2      284179           0
</event>
<event>
      5   9999  3.79277E-02  1.65303E+01 -1.00000E+00  1.73499E-01
      21    -1     0     0   502   501  0.000000000E+00  0.000000000E+00  4.588404090E+02  4.588404090E+02  0.000000000E+00  0.00000E+00  9.000E+00
      21    -1     0     0   501   511  0.000000000E+00  0.000000000E+00 -5.297973629E+02  5.297973629E+02  0.000000000E+00  0.00000E+00  9.000E+00
      25     1     1     2     0     0  3.353367119E+02 -9.731753013E+01  2.147804316E+02  4.285756010E+02  1.250000000E+02  0.00000E+00  9.000E+00
      25     1     1     2     0     0 -3.478746570E+02  1.080901711E+02 -1.345248175E+02  4.079487573E+02  1.250000000E+02  0.00000E+00  9.000E+00
      21     1     1     2   502   511  1.253794510E+01 -1.077264095E+01 -1.512125681E+02  1.521134136E+02  1.907348633E-06  0.00000E+00  9.000E+00
#rwgt            1           1   5.8794932514337067E-002           2      284407           0
</event>
<event>
      5   9999  3.79277E-02  2.67436E+00 -1.00000E+00  3.12881E-01
      21    -1     0     0   512   501  0.000000000E+00  0.000000000E+00  2.415003425E+02  2.415003425E+02  0.000000000E+00  0.00000E+00  9.000E+00
      21    -1     0     0   501   502  0.000000000E+00  0.000000000E+00 -2.200576486E+02  2.200576486E+02  0.000000000E+00  0.00000E+00  9.000E+00
      25     1     1     2     0     0 -1.467832412E+02  1.702525828E+01 -9.644839265E+01  2.162463220E+02  1.250000000E+02  0.00000E+00  9.000E+00
      25     1     1     2     0     0  1.458355335E+02 -1.452445256E+01  8.204989160E+01  2.093708367E+02  1.250000000E+02  0.00000E+00  9.000E+00
      21     1     1     2   512   502  9.477077873E-01 -2.500805719E+00  3.584119499E+01  3.594083246E+01  6.743495762E-07  0.00000E+00  9.000E+00
#rwgt            1           1   2.7195247048938338E-002           2      284723           0
</event>
<event>
      5   9999  3.79277E-02  2.27516E+01 -1.00000E+00  1.61879E-01
      21    -1     0     0   511   501  0.000000000E+00  0.000000000E+00  7.011529451E+01  7.011529451E+01  0.000000000E+00  0.00000E+00  9.000E+00
      21    -1     0     0   501   502  0.000000000E+00  0.000000000E+00 -3.290662011E+02  3.290662011E+02  0.000000000E+00  0.00000E+00  9.000E+00
      25     1     1     2     0     0  1.889396130E+01 -1.335227445E+01 -1.919270003E+02  2.302091189E+02  1.250000000E+02  0.00000E+00  9.000E+00
      25     1     1     2     0     0 -3.950832163E+01  3.724972835E+00 -4.920976959E+01  1.400763518E+02  1.250000000E+02  0.00000E+00  9.000E+00
      21     1     1     2   511   502  2.061436033E+01  9.627301619E+00 -1.781413674E+01  2.889602492E+01  4.768371582E-07  0.00000E+00  9.000E+00
#rwgt            1           1   3.8119832130700332E-002           2      285406           0
</event>
<event>
      5   9999  3.79277E-02  5.69133E+01 -1.00000E+00  1.35941E-01
      21    -1     0     0   512   501  0.000000000E+00  0.000000000E+00  6.392433031E+01  6.392433031E+01  0.000000000E+00  0.00000E+00  9.000E+00
      21    -1     0     0   501   502  0.000000000E+00  0.000000000E+00 -8.719467560E+02  8.719467560E+02  0.000000000E+00  0.00000E+00  9.000E+00
      25     1     1     2     0     0  4.440883506E+01  7.417282907E+01 -5.556616987E+02  5.760717634E+02  1.250000000E+02  0.00000E+00  9.000E+00
      25     1     1     2     0     0 -1.618903951E+01 -2.474843343E+01 -2.710087046E+02  2.999087993E+02  1.250000000E+02  0.00000E+00  9.000E+00
      21     1     1     2   512   502 -2.821979554E+01 -4.942439564E+01  1.864797759E+01  5.989052356E+01  1.192092896E-06  0.00000E+00  9.000E+00
#rwgt            1           1   5.3346461729273091E-002           2      285587           0
</event>
<event>
      5   9999  3.79277E-02  1.38808E+02 -1.00000E+00  1.17744E-01
      21    -1     0     0   511   501  0.000000000E+00  0.000000000E+00  3.082251490E+02  3.082251490E+02  0.000000000E+00  0.00000E+00  9.000E+00
      21    -1     0     0   501   502  0.000000000E+00  0.000000000E+00 -5.662972661E+02  5.662972661E+02  0.000000000E+00  0.00000E+00  9.000E+00
      25     1     1     2     0     0 -9.359780317E+00  5.356165586E+01 -4.562665313E+00  1.363901550E+02  1.250000000E+02  0.00000E+00  9.000E+00
      25     1     1     2     0     0  5.507472040E+00  8.519302605E+01 -4.628382776E+02  4.869624782E+02  1.250000000E+02  0.00000E+00  9.000E+00
      21     1     1     2   511   502  3.852308277E+00 -1.387546819E+02  2.093288259E+02  2.511697820E+02  2.697398305E-06  0.00000E+00  9.000E+00
#rwgt            1           1   4.3883435003259537E-002           2      285627           0
</event>
<event>
      5   9999  3.79277E-02  8.45141E+01 -1.00000E+00  1.27206E-01
      21    -1     0     0   502   501  0.000000000E+00  0.000000000E+00  9.965905441E+02  9.965905441E+02  0.000000000E+00  0.00000E+00  9.000E+00
      21    -1     0     0   512   502  0.000000000E+00  0.000000000E+00 -9.440414876E+01  9.440414876E+01  0.000000000E+00  0.00000E+00  9.000E+00
      25     1     1     2     0     0 -8.730050323E+01  2.238767798E+02  4.589507524E+02  5.329193030E+02  1.250000000E+02  0.00000E+00  9.000E+00
      25     1     1     2     0     0  2.911736448E+00 -2.192752034E+02  3.580282553E+02  4.380631515E+02  1.250000000E+02  0.00000E+00  9.000E+00
      21     1     1     2   512   501  8.438876678E+01 -4.601576406E+00  8.520738769E+01  1.200122385E+02  1.651812370E-06  0.00000E+00  9.000E+00
#rwgt            1           1   3.9538495727751054E-002           2      285742           0
</event>
<event>
      5   9999  3.79277E-02  1.26770E+02 -1.00000E+00  1.19365E-01
      21    -1     0     0   502   501  0.000000000E+00  0.000000000E+00  1.828236277E+02  1.828236277E+02  0.000000000E+00  0.00000E+00  9.000E+00
      21    -1     0     0   501   511  0.000000000E+00  0.000000000E+00 -8.593128026E+02  8.593128026E+02  0.000000000E+00  0.00000E+00  9.000E+00
      25     1     1     2     0     0 -1.031655409E+02 -1.615666520E+02 -1.458499119E+01  2.293133966E+02  1.250000000E+02  0.00000E+00  9.000E+00
      25     1     1     2     0     0 -1.575883129E+01  2.054708160E+02 -1.464898550E+02  2.820476460E+02  1.250000000E+02  0.00000E+00  9.000E+00
      21     1     1     2   502   511  1.189243722E+02 -4.390416398E+01 -5.154143287E+02  5.307753877E+02  1.321449896E-05  0.00000E+00  9.000E+00
#rwgt            2          11   1.8363450043733008E-003           2      285782           0
</event>
<event>
      5   9999  3.79277E-02  2.64261E+01 -1.00000E+00  1.56967E-01
      21    -1     0     0   502   512  0.000000000E+00  0.000000000E+00  2.862631934E+02  2.862631934E+02  0.000000000E+00  0.00000E+00  9.000E+00
      21    -1     0     0   501   502  0.000000000E+00  0.000000000E+00 -2.422281958E+02  2.422281958E+02  0.000000000E+00  0.00000E+00  9.000E+00
      25     1     1     2     0     0 -1.200194541E+02  1.547167543E+02 -3.945521601E+01  2.356345847E+02  1.250000000E+02  0.00000E+00  9.000E+00
      25     1     1     2     0     0  1.381669559E+02 -1.355071634E+02  2.887930189E+01  2.321880986E+02  1.250000000E+02  0.00000E+00  9.000E+00
      21     1     1     2   501   512 -1.814750179E+01 -1.920959085E+01  5.461091174E+01  6.066870596E+01  0.000000000E+00  0.00000E+00  9.000E+00
#rwgt            1           1   3.7801308920396029E-002           2      285817           0
</event>
<event>
      5   9999  3.79277E-02  9.92776E+00 -1.00000E+00  1.96122E-01
      21    -1     0     0   511   501  0.000000000E+00  0.000000000E+00  2.672500006E+02  2.672500006E+02  0.000000000E+00  0.00000E+00  9.000E+00
      21    -1     0     0   501   502  0.000000000E+00  0.000000000E+00 -3.399019533E+02  3.399019533E+02  0.000000000E+00  0.00000E+00  9.000E+00
      25     1     1     2     0     0  2.561997294E+02 -2.210321382E+01 -4.670910718E+01  2.897129512E+02  1.250000000E+02  0.00000E+00  9.000E+00
      25     1     1     2     0     0 -2.615198587E+02  1.372129204E+01 -4.718279234E+01  2.939934119E+02  1.250000000E+02  0.00000E+00  9.000E+00
      21     1     1     2   511   502  5.320129334E+00  8.381921779E+00  2.123994676E+01  2.344559079E+01  0.000000000E+00  0.00000E+00  9.000E+00
#rwgt            1           1  0.10895469899314496                2      285977           0
</event>
<event>
      5   9999  3.79277E-02  6.28126E+01 -1.00000E+00  1.33649E-01
       2    -1     0     0   502     0  0.000000000E+00  0.000000000E+00  4.890382873E+03  4.890382873E+03  0.000000000E+00  0.00000E+00  9.000E+00
      21    -1     0     0   501   502  0.000000000E+00  0.000000000E+00 -9.286947218E+01  9.286947218E+01  0.000000000E+00  0.00000E+00  9.000E+00
      25     1     1     2     0     0  1.479485955E+02 -4.216869103E+02  2.125361249E+03  2.175429630E+03  1.250000000E+02  0.00000E+00  9.000E+00
      25     1     1     2     0     0 -1.252360050E+02  3.631244181E+02  5.380917399E+02  6.728381087E+02  1.250000000E+02  0.00000E+00  9.000E+00
       2     1     1     2   501     0 -2.271259047E+01  5.856249214E+01  2.134060412E+03  2.134984606E+03  3.051757812E-05  0.00000E+00  9.000E+00
#rwgt            1           1  0.17682648600886644                2      286257           0
</event>
<event>
      5   9999  3.79277E-02  6.95512E+00 -1.00000E+00  2.15949E-01
      -1    -1     0     0     0   501  0.000000000E+00  0.000000000E+00  4.729274425E+02  4.729274425E+02  0.000000000E+00  0.00000E+00  9.000E+00
      21    -1     0     0   501   502  0.000000000E+00  0.000000000E+00 -9.465250897E+02  9.465250897E+02  0.000000000E+00  0.00000E+00  9.000E+00
      25     1     1     2     0     0 -3.755138613E+02 -3.603878386E+02  1.946785628E+01  5.356249169E+02  1.250000000E+02  0.00000E+00  9.000E+00
      25     1     1     2     0     0  3.695943027E+02  3.567364647E+02 -5.868072478E+02  7.898282091E+02  1.250000000E+02  0.00000E+00  9.000E+00
      -1     1     1     2     0   502  5.919558572E+00  3.651373906E+00  9.374174441E+01  9.399940611E+01  0.000000000E+00  0.00000E+00  9.000E+00
#rwgt            1           1   3.3478476991993363E-002           2      286398           0
</event>
<event>
      5   9999  3.79277E-02  1.04344E+02 -1.00000E+00  1.23003E-01
       2    -1     0     0   502     0  0.000000000E+00  0.000000000E+00  1.435468360E+03  1.435468360E+03  0.000000000E+00  0.00000E+00  9.000E+00
      21    -1     0     0   501   502  0.000000000E+00  0.000000000E+00 -1.261131749E+02  1.261131749E+02  0.000000000E+00  0.00000E+00  9.000E+00
      25     1     1     2     0     0  2.378308539E+01 -1.421272443E+02 -3.586526612E+01  1.941059145E+02  1.250000000E+02  0.00000E+00  9.000E+00
      25     1     1     2     0     0 -3.981628749E+00  3.967905992E+01  5.497371751E+02  5.651780629E+02  1.250000000E+02  0.00000E+00  9.000E+00
       2     1     1     2   501     0 -1.980145664E+01  1.024481844E+02  7.954832762E+02  8.022975575E+02  1.078959322E-05  0.00000E+00  9.000E+00
#rwgt            1           1   4.6888589417853996E-002           2      286943           0
</event>
<event>
      5   9999  3.79277E-02  3.78930E+01 -1.00000E+00  1.46313E-01
      21    -1     0     0   511   501  0.000000000E+00  0.000000000E+00  6.005948417E+02  6.005948417E+02  0.000000000E+00  0.00000E+00  9.000E+00
      21    -1     0     0   501   502  0.000000000E+00  0.000000000E+00 -1.382807417E+02  1.382807417E+02  0.000000000E+00  0.00000E+00  9.000E+00
      25     1     1     2     0     0 -6.949653197E+01 -1.539643390E+02  1.750154690E+02  2.734779699E+02  1.250000000E+02  0.00000E+00  9.000E+00
      25     1     1     2     0     0  7.227704060E+01  1.917552355E+02  7.755341468E+01  2.522569584E+02  1.250000000E+02  0.00000E+00  9.000E+00
      21     1     1     2   511   502 -2.780508628E+00 -3.779089646E+01  2.097452163E+02  2.131406551E+02  3.814697266E-06  0.00000E+00  9.000E+00
#rwgt            1           1   4.3041968901642635E-002           2      287023           0
</event>
<event>
      5   9999  3.79277E-02  2.99751E+01 -1.00000E+00  1.53065E-01
      21    -1     0     0   502   501  0.000000000E+00  0.000000000E+00  6.053035034E+02  6.053035034E+02  0.000000000E+00  0.00000E+00  9.000E+00
      21    -1     0     0   512   502  0.000000000E+00  0.000000000E+00 -1.659636199E+02  1.659636199E+02  0.000000000E+00  0.00000E+00  9.000E+00
      25     1     1     2     0     0  1.191124666E+02 -1.150935312E+02  2.528360618E+02  3.270861886E+02  1.250000000E+02  0.00000E+00  9.000E+00
      25     1     1     2     0     0 -1.462091773E+02  1.022765675E+02  2.749466098E+02  3.507966050E+02  1.250000000E+02  0.00000E+00  9.000E+00
      21     1     1     2   512   501  2.709671075E+01  1.281696370E+01 -8.844278810E+01  9.338432983E+01  9.536743164E-07  0.00000E+00  9.000E+00
#rwgt            1           1   3.8866425852815599E-002           2      287178           0
</event>
<event>
      5   9999  3.79277E-02  2.02330E+01 -1.00000E+00  1.65955E-01
      21    -1     0     0   502   501  0.000000000E+00  0.000000000E+00  4.391923559E+02  4.391923559E+02  0.000000000E+00  0.00000E+00  9.000E+00
      21    -1     0     0   501   511  0.000000000E+00  0.000000000E+00 -2.261865484E+02  2.261865484E+02  0.000000000E+00  0.00000E+00  9.000E+00
      25     1     1     2     0     0  1.186947650E+02 -1.340987242E+01  1.810176930E+00  1.729061846E+02  1.250000000E+02  0.00000E+00  9.000E+00
      25     1     1     2     0     0 -1.327799585E+02 -1.115371208E+00  3.272691418E+02  3.746489725E+02  1.250000000E+02  0.00000E+00  9.000E+00
      21     1     1     2   502   511  1.408519346E+01  1.452524363E+01 -1.160735113E+02  1.178237472E+02  1.348699152E-06  0.00000E+00  9.000E+00
#rwgt            1           1   2.1505925090588345E-002           2      287403           0
</event>
<event>
      5   9999  3.79277E-02  2.85340E+01 -1.00000E+00  1.54567E-01
      21    -1     0     0   502   501  0.000000000E+00  0.000000000E+00  7.427909288E+01  7.427909288E+01  0.000000000E+00  0.00000E+00  9.000E+00
      21    -1     0     0   512   502  0.000000000E+00  0.000000000E+00 -7.785346294E+02  7.785346294E+02  0.000000000E+00  0.00000E+00  9.000E+00
      25     1     1     2     0     0  9.221623337E+01  9.246614165E+01 -8.430942961E+01  1.994665410E+02  1.250000000E+02  0.00000E+00  9.000E+00
      25     1     1     2     0     0 -9.838475218E+01 -6.460688211E+01 -5.751948805E+02  6.002730706E+02  1.250000000E+02  0.00000E+00  9.000E+00
      21     1     1     2   512   501  6.168518812E+00 -2.785925954E+01 -4.475122644E+01  5.307411077E+01  8.259061849E-07  0.00000E+00  9.000E+00
#rwgt            1           1   3.7915123997551335E-002           2      287543           0
</event>
<event>
      5   9999  3.79277E-02  4.96077E+01 -1.00000E+00  1.39271E-01
      21    -1     0     0   502   501  0.000000000E+00  0.000000000E+00  4.282795441E+02  4.282795441E+02  0.000000000E+00  0.00000E+00  9.000E+00
      21    -1     0     0   501   511  0.000000000E+00  0.000000000E+00 -2.286018357E+02  2.286018357E+02  0.000000000E+00  0.00000E+00  9.000E+00
      25     1     1     2     0     0  1.296739264E+02  4.089510919E+00  3.388289131E+02  3.837474217E+02  1.250000000E+02  0.00000E+00  9.000E+00
      25     1     1     2     0     0 -1.049974664E+02  3.894527881E+01 -5.714381938E+01  1.772896466E+02  1.250000000E+02  0.00000E+00  9.000E+00
      21     1     1     2   502   511 -2.467646008E+01 -4.303478973E+01 -8.200738533E+01  9.584431156E+01  1.348699152E-06  0.00000E+00  9.000E+00
#rwgt            1           1   3.2915015050062467E-002           2      287701           0
</event>
<event>
      5   9999  3.79277E-02  1.22553E+02 -1.00000E+00  1.19982E-01
      21    -1     0     0   502   512  0.000000000E+00  0.000000000E+00  1.215994269E+02  1.215994269E+02  0.000000000E+00  0.00000E+00  9.000E+00
      21    -1     0     0   501   502  0.000000000E+00  0.000000000E+00 -1.062887318E+03  1.062887318E+03  0.000000000E+00  0.00000E+00  9.000E+00
      25     1     1     2     0     0 -1.129306095E+02  1.050187849E+02 -3.634782552E+02  4.141542101E+02  1.250000000E+02  0.00000E+00  9.000E+00
      25     1     1     2     0     0 -9.255967518E+00 -1.144821829E+02 -6.183660583E+02  6.412436551E+02  1.250000000E+02  0.00000E+00  9.000E+00
      21     1     1     2   501   512  1.221865771E+02  9.463398012E+00  4.055642228E+01  1.290888799E+02  9.536743164E-07  0.00000E+00  9.000E+00
#rwgt            1           1   4.6596382034814622E-002           2      287778           0
</event>
<event>
      5   9999  3.79277E-02  3.40350E+01 -1.00000E+00  1.49328E-01
       2    -1     0     0   502     0  0.000000000E+00  0.000000000E+00  4.119378788E+02  4.119378788E+02  0.000000000E+00  0.00000E+00  9.000E+00
      21    -1     0     0   501   502  0.000000000E+00  0.000000000E+00 -2.457290448E+02  2.457290448E+02  0.000000000E+00  0.00000E+00  9.000E+00
      25     1     1     2     0     0 -6.704459823E+01  1.727425287E+02  1.005256996E+02  2.450823854E+02  1.250000000E+02  0.00000E+00  9.000E+00
      25     1     1     2     0     0  3.532106877E+01 -1.604137101E+02 -1.098234424E+02  2.338083078E+02  1.250000000E+02  0.00000E+00  9.000E+00
       2     1     1     2   501     0  3.172352946E+01 -1.232881860E+01  1.755065767E+02  1.787762304E+02  0.000000000E+00  0.00000E+00  9.000E+00
#rwgt            1           1   2.2310202556455709E-002           2      287895           0
</event>
<event>
      5   9999  3.79277E-02  4.36037E+01 -1.00000E+00  1.42554E-01
      21    -1     0     0   502   501  0.000000000E+00  0.000000000E+00  1.112643810E+02  1.112643810E+02  0.000000000E+00  0.00000E+00  9.000E+00
      21    -1     0     0   511   502  0.000000000E+00  0.000000000E+00 -4.691391696E+02  4.691391696E+02  0.000000000E+00  0.00000E+00  9.000E+00
      25     1     1     2     0     0 -3.338299412E+01  1.955271583E+01 -3.586667009E+02  3.817899100E+02  1.250000000E+02  0.00000E+00  9.000E+00
      25     1     1     2     0     0  6.036554478E+00 -5.351532941E+01  3.797764659E+01  1.413068721E+02  1.250000000E+02  0.00000E+00  9.000E+00
      21     1     1     2   511   501  2.734643964E+01  3.396261358E+01 -3.718573429E+01  5.730676851E+01  6.743495762E-07  0.00000E+00  9.000E+00
#rwgt            1           1   3.8296738567531248E-002           2      288045           0
</event>
<event>
      5   9999  3.79277E-02  4.77302E+01 -1.00000E+00  1.40237E-01
       2    -1     0     0   502     0  0.000000000E+00  0.000000000E+00  3.278099608E+03  3.278099608E+03  0.000000000E+00  0.00000E+00  9.000E+00
      21    -1     0     0   501   502  0.000000000E+00  0.000000000E+00 -6.872995492E+01  6.872995492E+01  0.000000000E+00  0.00000E+00  9.000E+00
      25     1     1     2     0     0  1.934809731E+02  9.658785224E+01  5.462081297E+02  6.006100408E+02  1.250000000E+02  0.00000E+00  9.000E+00
      25     1     1     2     0     0 -1.909353790E+02 -1.442500867E+02  4.001839363E+02  4.827386346E+02  1.250000000E+02  0.00000E+00  9.000E+00
       2     1     1     2   501     0 -2.545594163E+00  4.766223443E+01  2.262977587E+03  2.263480887E+03  3.051757812E-05  0.00000E+00  9.000E+00
#rwgt            1           1  0.10307579729556297                2      288115           0
</event>
<event>
      5   9999  3.79277E-02  3.36340E+01 -1.00000E+00  1.49669E-01
      21    -1     0     0   502   501  0.000000000E+00  0.000000000E+00  5.843582052E+02  5.843582052E+02  0.000000000E+00  0.00000E+00  9.000E+00
      21    -1     0     0   511   502  0.000000000E+00  0.000000000E+00 -5.019905273E+02  5.019905273E+02  0.000000000E+00  0.00000E+00  9.000E+00
      25     1     1     2     0     0 -1.797694943E+02 -2.763455375E+02  2.666450139E+02  4.420503258E+02  1.250000000E+02  0.00000E+00  9.000E+00
      25     1     1     2     0     0  1.816497463E+02  2.427641752E+02  1.116684120E+02  3.464475563E+02  1.250000000E+02  0.00000E+00  9.000E+00
      21     1     1     2   511   501 -1.880251967E+00  3.358136231E+01 -2.959457480E+02  2.978508502E+02  5.394796609E-06  0.00000E+00  9.000E+00
#rwgt            1           1   2.3927670481438432E-002           2      288182           0
</event>
<event>
      5   9999  3.79277E-02  3.08738E+01 -1.00000E+00  1.52179E-01
      21    -1     0     0   502   501  0.000000000E+00  0.000000000E+00  1.541647660E+02  1.541647660E+02  0.000000000E+00  0.00000E+00  9.000E+00
      21    -1     0     0   512   502  0.000000000E+00  0.000000000E+00 -4.573203962E+02  4.573203962E+02  0.000000000E+00  0.00000E+00  9.000E+00
      25     1     1     2     0     0 -2.930087230E+01  1.849888494E+02 -2.329199287E+02  3.239693021E+02  1.250000000E+02  0.00000E+00  9.000E+00
      25     1     1     2     0     0  4.843610646E+00 -1.661465557E+02  3.045864827E+00  2.079961919E+02  1.250000000E+02  0.00000E+00  9.000E+00
      21     1     1     2   512   501  2.445726166E+01 -1.884229372E+01 -7.328156626E+01  7.951966822E+01  9.536743164E-07  0.00000E+00  9.000E+00
#rwgt            1           1   2.3889862972494309E-002           2      288399           0
</event>
<event>
      5   9999  3.79277E-02  3.47046E+01 -1.00000E+00  1.48772E-01
       2    -1     0     0   502     0  0.000000000E+00  0.000000000E+00  1.850951747E+03  1.850951747E+03  0.000000000E+00  0.00000E+00  9.000E+00
      21    -1     0     0   501   502  0.000000000E+00  0.000000000E+00 -7.251227862E+01  7.251227862E+01  0.000000000E+00  0.00000E+00  9.000E+00
      25     1     1     2     0     0 -7.212358968E+00  8.978164133E+01  2.835214891E+01  1.566576062E+02  1.250000000E+02  0.00000E+00  9.000E+00
      25     1     1     2     0     0 -2.294894728E+01 -7.261465852E+01  6.544089142E+02  6.705785337E+02  1.250000000E+02  0.00000E+00  9.000E+00
       2     1     1     2   501     0  3.016130624E+01 -1.716698281E+01  1.095678405E+03  1.096227886E+03  2.157918644E-05  0.00000E+00  9.000E+00
#rwgt            1           1   3.5735349281182827E-002           2      288585           0
</event>
<event>
      5   9999  3.79277E-02  1.04020E+02 -1.00000E+00  1.23063E-01
      21    -1     0     0   502   501  0.000000000E+00  0.000000000E+00  2.609225753E+02  2.609225753E+02  0.000000000E+00  0.00000E+00  9.000E+00
       1    -1     0     0   501     0  0.000000000E+00  0.000000000E+00 -7.805473912E+02  7.805473912E+02  0.000000000E+00  0.00000E+00  9.000E+00
      25     1     1     2     0     0  5.343994184E+01 -6.447111064E+01  1.803539493E+02  2.348720897E+02  1.250000000E+02  0.00000E+00  9.000E+00
      25     1     1     2     0     0 -1.492442182E+02  2.395301550E+01 -1.501537191E+02  2.470196814E+02  1.250000000E+02  0.00000E+00  9.000E+00
       1     1     1     2   502     0  9.580427632E+01  4.051809514E+01 -5.498250461E+02  5.595781954E+02  1.078959322E-05  0.00000E+00  9.000E+00
#rwgt            1           1   3.0205415750515854E-002           2      288683           0
</event>
<event>
      5   9999  3.79277E-02  3.88246E+01 -1.00000E+00  1.45648E-01
      21    -1     0     0   502   501  0.000000000E+00  0.000000000E+00  7.337205119E+01  7.337205119E+01  0.000000000E+00  0.00000E+00  9.000E+00
      21    -1     0     0   511   502  0.000000000E+00  0.000000000E+00 -1.040673841E+03  1.040673841E+03  0.000000000E+00  0.00000E+00  9.000E+00
      25     1     1     2     0     0  1.357808324E+02  8.497978324E+01 -1.360565787E+02  2.445289157E+02  1.250000000E+02  0.00000E+00  9.000E+00
      25     1     1     2     0     0 -1.491767602E+02 -4.853941812E+01 -5.467213860E+02  5.823564672E+02  1.250000000E+02  0.00000E+00  9.000E+00
      21     1     1     2   511   501  1.339592783E+01 -3.644036512E+01 -2.845238246E+02  2.871605089E+02  3.814697266E-06  0.00000E+00  9.000E+00
#rwgt            1           1   4.5017556548585289E-002           2      288736           0
</event>
<event>
      5   9999  3.79277E-02  2.09116E+02 -1.00000E+00  1.10948E-01
      21    -1     0     0   502   501  0.000000000E+00  0.000000000E+00  3.269107785E+02  3.269107785E+02  0.000000000E+00  0.00000E+00  9.000E+00
       1    -1     0     0   501     0  0.000000000E+00  0.000000000E+00 -2.717577806E+03  2.717577806E+03  0.000000000E+00  0.00000E+00  9.000E+00
      25     1     1     2     0     0  1.590539642E+02  3.685015657E+02 -6.909921836E+01  4.260179215E+02  1.250000000E+02  0.00000E+00  9.000E+00
      25     1     1     2     0     0 -3.649697119E+02 -3.320597373E+02 -3.098248844E+02  5.958884281E+02  1.250000000E+02  0.00000E+00  9.000E+00
       1     1     1     2   502     0  2.059157476E+02 -3.644182838E+01 -2.011742925E+03  2.022582235E+03  2.157918644E-05  0.00000E+00  9.000E+00
#rwgt            1           1  0.12821834790966583                2      288834           0
</event>
<event>
      5   9999  3.79277E-02  9.55165E+01 -1.00000E+00  1.24731E-01
      21    -1     0     0   502   501  0.000000000E+00  0.000000000E+00  4.837190255E+02  4.837190255E+02  0.000000000E+00  0.00000E+00  9.000E+00
      21    -1     0     0   501   511  0.000000000E+00  0.000000000E+00 -1.916886816E+02  1.916886816E+02  0.000000000E+00  0.00000E+00  9.000E+00
      25     1     1     2     0     0 -9.021212740E+01  1.219209146E+02  2.304691506E+02  3.028926653E+02  1.250000000E+02  0.00000E+00  9.000E+00
      25     1     1     2     0     0  1.011895394E+02 -2.168045624E+02  6.211864009E+01  2.769968711E+02  1.250000000E+02  0.00000E+00  9.000E+00
      21     1     1     2   502   511 -1.097741203E+01  9.488364776E+01 -5.574467307E-01  9.551817070E+01  1.048310193E-06  0.00000E+00  9.000E+00
#rwgt            1           1  0.32886165748697305                2      288899           0
</event>
<event>
      5   9999  3.79277E-02  3.35855E+01 -1.00000E+00  1.49711E-01
      21    -1     0     0   502   512  0.000000000E+00  0.000000000E+00  9.921960524E+02  9.921960524E+02  0.000000000E+00  0.00000E+00  9.000E+00
      21    -1     0     0   501   502  0.000000000E+00  0.000000000E+00 -6.261680809E+01  6.261680809E+01  0.000000000E+00  0.00000E+00  9.000E+00
      25     1     1     2     0     0 -2.978872649E+01 -1.487314282E+02  1.483263642E+02  2.462399567E+02  1.250000000E+02  0.00000E+00  9.000E+00
      25     1     1     2     0     0  3.667005893E+01  1.158584434E+02  6.334416534E+02  6.569940642E+02  1.250000000E+02  0.00000E+00  9.000E+00
      21     1     1     2   501   512 -6.881332449E+00  3.287298484E+01  1.478112267E+02  1.515788396E+02  1.907348633E-06  0.00000E+00  9.000E+00
#rwgt            1           1   4.2856584001917969E-002           2      288965           0
</event>
<event>
      5   9999  3.79277E-02  5.31372E+01 -1.00000E+00  1.37584E-01
      21    -1     0     0   502   501  0.000000000E+00  0.000000000E+00  5.461497211E+02  5.461497211E+02  0.000000000E+00  0.00000E+00  9.000E+00
      21    -1     0     0   501   511  0.000000000E+00  0.000000000E+00 -1.875337704E+02  1.875337704E+02  0.000000000E+00  0.00000E+00  9.000E+00
      25     1     1     2     0     0  1.476120094E+02 -1.079379621E+02  1.544131833E+02  2.700154443E+02  1.250000000E+02  0.00000E+00  9.000E+00
      25     1     1     2     0     0 -1.052331012E+02  1.399940879E+02  2.909926268E+02  3.619033837E+02  1.250000000E+02  0.00000E+00  9.000E+00
      21     1     1     2   502   511 -4.237890819E+01 -3.205612574E+01 -8.678985934E+01  1.017646635E+02  0.000000000E+00  0.00000E+00  9.000E+00
#rwgt            1           1   3.9254512623936193E-002           2      289222           0
</event>
<event>
      5   9999  3.79277E-02  2.34223E+02 -1.00000E+00  1.09206E-01
      -1    -1     0     0     0   501  0.000000000E+00  0.000000000E+00  1.178528608E+03  1.178528608E+03  0.000000000E+00  0.00000E+00  9.000E+00
      21    -1     0     0   501   502  0.000000000E+00  0.000000000E+00 -2.253753698E+02  2.253753698E+02  0.000000000E+00  0.00000E+00  9.000E+00
      25     1     1     2     0     0  1.005888430E+02  1.397827136E+01  2.329230328E+01  1.627299567E+02  1.250000000E+02  0.00000E+00  9.000E+00
      25     1     1     2     0     0 -1.535978797E+02 -2.421238365E+02  3.334676813E+01  3.145683833E+02  1.250000000E+02  0.00000E+00  9.000E+00
      -1     1     1     2     0   502  5.300903674E+01  2.281455651E+02  8.965141668E+02  9.266056378E+02  1.078959322E-05  0.00000E+00  9.000E+00
#rwgt            1           1   4.1102515923902641E-002           2      289362           0
</event>
<event>
      5   9999  3.79277E-02  6.26349E+01 -1.00000E+00  1.33714E-01
       2    -1     0     0   502     0  0.000000000E+00  0.000000000E+00  1.382349486E+03  1.382349486E+03  0.000000000E+00  0.00000E+00  9.000E+00
      21    -1     0     0   501   502  0.000000000E+00  0.000000000E+00 -6.936158559E+01  6.936158559E+01  0.000000000E+00  0.00000E+00  9.000E+00
      25     1     1     2     0     0 -1.755808997E+01  2.430163747E+01  1.765173702E+01  1.297514544E+02  1.250000000E+02  0.00000E+00  9.000E+00
      25     1     1     2     0     0 -3.602278393E+00  3.465058961E+01  3.300425001E+02  3.546359988E+02  1.250000000E+02  0.00000E+00  9.000E+00
       2     1     1     2   501     0  2.116036837E+01 -5.895222708E+01  9.652936635E+02  9.673236185E+02  1.078959322E-05  0.00000E+00  9.000E+00
#rwgt            1           1   4.8111507137423230E-002           2      289586           0
</event>
<event>
      5   9999  3.79277E-02  2.44039E+01 -1.00000E+00  1.59540E-01
      21    -1     0     0   511   501  0.000000000E+00  0.000000000E+00  5.959901396E+02  5.959901396E+02  0.000000000E+00  0.00000E+00  9.000E+00
      21    -1     0     0   501   502  0.000000000E+00  0.000000000E+00 -2.123371736E+02  2.123371736E+02  0.000000000E+00  0.00000E+00  9.000E+00
      25     1     1     2     0     0 -3.229137081E+01  1.241260859E+02  2.043122146E+02  2.716955997E+02  1.250000000E+02  0.00000E+00  9.000E+00
      25     1     1     2     0     0  9.557402298E+00 -1.329984009E+02 -1.312938501E+02  2.250399824E+02  1.250000000E+02  0.00000E+00  9.000E+00
      21     1     1     2   511   502  2.273396851E+01  8.872314996E+00  3.106346015E+02  3.115917312E+02  3.814697266E-06  0.00000E+00  9.000E+00
#rwgt            1           1   4.8481350335624035E-002           2      289730           0
</event>
<event>
      5   9999  3.79277E-02  1.21864E+02 -1.00000E+00  1.20085E-01
      21    -1     0     0   512   501  0.000000000E+00  0.000000000E+00  1.165201773E+03  1.165201773E+03  0.000000000E+00  0.00000E+00  9.000E+00
      21    -1     0     0   501   502  0.000000000E+00  0.000000000E+00 -7.048056422E+01  7.048056422E+01  0.000000000E+00  0.00000E+00  9.000E+00
      25     1     1     2     0     0 -1.407959501E+02 -1.406713062E+02  5.286620706E+02  5.785503442E+02  1.250000000E+02  0.00000E+00  9.000E+00
      25     1     1     2     0     0  1.344654588E+02  1.897153481E+01  2.039484784E+02  2.750651933E+02  1.250000000E+02  0.00000E+00  9.000E+00
      21     1     1     2   512   502  6.330491352E+00  1.216997714E+02  3.621106600E+02  3.820667999E+02  5.394796609E-06  0.00000E+00  9.000E+00
#rwgt            1           1   4.8760782705679490E-002           2      289872           0
</event>
<event>
      5   9999  3.79277E-02  4.70208E+01 -1.00000E+00  1.40615E-01
      21    -1     0     0   502   501  0.000000000E+00  0.000000000E+00  5.349875162E+02  5.349875162E+02  0.000000000E+00  0.00000E+00  9.000E+00
      21    -1     0     0   501   511  0.000000000E+00  0.000000000E+00 -1.659396048E+02  1.659396048E+02  0.000000000E+00  0.00000E+00  9.000E+00
      25     1     1     2     0     0 -1.053278568E+02  1.518062838E+02  3.505387948E+02  4.155015667E+02  1.250000000E+02  0.00000E+00  9.000E+00
      25     1     1     2     0     0  1.468868401E+02 -1.298106378E+02 -5.655938609E+00  2.325586703E+02  1.250000000E+02  0.00000E+00  9.000E+00
      21     1     1     2   502   511 -4.155898332E+01 -2.199564594E+01  2.416505519E+01  5.286688403E+01  1.168007728E-06  0.00000E+00  9.000E+00
#rwgt            1           1   4.1529216003736040E-002           2      289930           0
</event>
<event>
      5   9999  3.79277E-02  5.63307E+01 -1.00000E+00  1.36184E-01
      21    -1     0     0   502   501  0.000000000E+00  0.000000000E+00  1.350762591E+03  1.350762591E+03  0.000000000E+00  0.00000E+00  9.000E+00
      21    -1     0     0   501   512  0.000000000E+00  0.000000000E+00 -8.218315093E+01  8.218315093E+01  0.000000000E+00  0.00000E+00  9.000E+00
      25     1     1     2     0     0  2.554917691E+02 -1.295119955E+00  3.572217266E+02  4.566290435E+02  1.250000000E+02  0.00000E+00  9.000E+00
      25     1     1     2     0     0 -2.285120398E+02  5.074448563E+01  8.602775318E+02  9.002750618E+02  1.250000000E+02  0.00000E+00  9.000E+00
      21     1     1     2   502   512 -2.697972930E+01 -4.944936568E+01  5.108018190E+01  7.604163690E+01  1.651812370E-06  0.00000E+00  9.000E+00
#rwgt            1           1  0.14773513157050927                2      290045           0
</event>
<event>
      5   9999  3.79277E-02  1.89242E+02 -1.00000E+00  1.12529E-01
      21    -1     0     0   502   501  0.000000000E+00  0.000000000E+00  7.343051037E+02  7.343051037E+02  0.000000000E+00  0.00000E+00  9.000E+00
      -1    -1     0     0     0   502  0.000000000E+00  0.000000000E+00 -4.115820600E+02  4.115820600E+02  0.000000000E+00  0.00000E+00  9.000E+00
      25     1     1     2     0     0 -1.016802271E+02  2.978259125E+02  3.547175740E+02  4.903964723E+02  1.250000000E+02  0.00000E+00  9.000E+00
      25     1     1     2     0     0  1.531589666E+02 -1.157205523E+02  2.350368723E+02  3.282015336E+02  1.250000000E+02  0.00000E+00  9.000E+00
      -1     1     1     2     0   501 -5.147873956E+01 -1.821053602E+02 -2.670314026E+02  3.272891578E+02  0.000000000E+00  0.00000E+00  9.000E+00
#rwgt            1           1   3.2649857942337435E-002           2      290117           0
</event>
<event>
      5   9999 -3.79277E-02  3.25853E+01 -1.00000E+00  1.50587E-01
      21    -1     0     0   511   501  0.000000000E+00  0.000000000E+00  4.459038235E+02  4.459038235E+02  0.000000000E+00  0.00000E+00  9.000E+00
      21    -1     0     0   501   502  0.000000000E+00  0.000000000E+00 -4.939351361E+02  4.939351361E+02  0.000000000E+00  0.00000E+00  9.000E+00
      25     1     1     2     0     0 -4.244669500E+01 -3.246526150E+02 -3.647673769E+01  3.523586166E+02  1.250000000E+02  0.00000E+00  9.000E+00
      25     1     1     2     0     0  1.500732808E+01  3.422277626E+02 -1.864654807E+02  4.095600528E+02  1.250000000E+02  0.00000E+00  9.000E+00
      21     1     1     2   511   502  2.743936692E+01 -1.757514759E+01  1.749109058E+02  1.779202901E+02  0.000000000E+00  0.00000E+00  9.000E+00
#rwgt            1           1  -1.2337510605926368E-002           2      290209           0
</event>
<event>
      5   9999  3.79277E-02  7.87168E+00 -1.00000E+00  2.08593E-01
      21    -1     0     0   502   501  0.000000000E+00  0.000000000E+00  2.546380814E+02  2.546380814E+02  0.000000000E+00  0.00000E+00  9.000E+00
      21    -1     0     0   501   512  0.000000000E+00  0.000000000E+00 -1.497851491E+02  1.497851491E+02  0.000000000E+00  0.00000E+00  9.000E+00
      25     1     1     2     0     0 -1.150292136E+02 -6.961558851E+01  9.315998641E+01  2.058684852E+02  1.250000000E+02  0.00000E+00  9.000E+00
      25     1     1     2     0     0  1.079071320E+02  7.296809366E+01  2.582935198E+01  1.823744698E+02  1.250000000E+02  0.00000E+00  9.000E+00
      21     1     1     2   502   512  7.122081597E+00 -3.352505146E+00 -1.413640606E+01  1.618027544E+01  2.384185791E-07  0.00000E+00  9.000E+00
#rwgt            1           1   4.0225409088764097E-002           2      290372           0
</event>
<event>
      5   9999  3.79277E-02  3.61620E+01 -1.00000E+00  1.47610E-01
      21    -1     0     0   502   501  0.000000000E+00  0.000000000E+00  1.262666462E+02  1.262666462E+02  0.000000000E+00  0.00000E+00  9.000E+00
      21    -1     0     0   501   511  0.000000000E+00  0.000000000E+00 -8.085132507E+02  8.085132507E+02  0.000000000E+00  0.00000E+00  9.000E+00
      25     1     1     2     0     0  1.445767331E+02  1.667482396E+02 -1.424780771E+02  2.909164994E+02  1.250000000E+02  0.00000E+00  9.000E+00
      25     1     1     2     0     0 -1.226246670E+02 -1.954849567E+02 -2.885191058E+02  3.900249372E+02  1.250000000E+02  0.00000E+00  9.000E+00
      21     1     1     2   502   511 -2.195206617E+01  2.873671705E+01 -2.512494215E+02  2.538384603E+02  2.697398305E-06  0.00000E+00  9.000E+00
#rwgt            1           1   2.4714885944523278E-002           2      290680           0
</event>
<event>
      5   9999  3.79277E-02  4.26932E+01 -1.00000E+00  1.43107E-01
      21    -1     0     0   502   501  0.000000000E+00  0.000000000E+00  2.894027690E+02  2.894027690E+02  0.000000000E+00  0.00000E+00  9.000E+00
      21    -1     0     0   501   512  0.000000000E+00  0.000000000E+00 -8.654925387E+02  8.654925387E+02  0.000000000E+00  0.00000E+00  9.000E+00
      25     1     1     2     0     0 -1.762777386E+02 -1.748300349E+02 -2.462490064E+02  3.713528718E+02  1.250000000E+02  0.00000E+00  9.000E+00
      25     1     1     2     0     0  2.183643735E+02  1.676592195E+02  1.246578050E+02  3.270430887E+02  1.250000000E+02  0.00000E+00  9.000E+00
      21     1     1     2   502   512 -4.208663497E+01  7.170815400E+00 -4.544985682E+02  4.564993472E+02  0.000000000E+00  0.00000E+00  9.000E+00
#rwgt            1           1   5.2572050353759413E-002           2      290794           0
</event>
<event>
      5   9999  3.79277E-02  2.91057E+01 -1.00000E+00  1.53958E-01
      21    -1     0     0   502   501  0.000000000E+00  0.000000000E+00  2.022427967E+02  2.022427967E+02  0.000000000E+00  0.00000E+00  9.000E+00
       1    -1     0     0   501     0  0.000000000E+00  0.000000000E+00 -1.917450500E+03  1.917450500E+03  0.000000000E+00  0.00000E+00  9.000E+00
      25     1     1     2     0     0 -1.825574585E+02  3.836845147E+01 -4.170368943E+01  2.283934356E+02  1.250000000E+02  0.00000E+00  9.000E+00
      25     1     1     2     0     0  1.535369743E+02 -4.059468210E+01  1.489184668E+01  2.026531465E+02  1.250000000E+02  0.00000E+00  9.000E+00
       1     1     1     2   502     0  2.902048421E+01  2.226230633E+00 -1.688395860E+03  1.688646714E+03  2.157918644E-05  0.00000E+00  9.000E+00
#rwgt            1           1   3.8862766345644999E-002           2      290888           0
</event>
<event>
      5   9999  3.79277E-02  2.80894E+02 -1.00000E+00  1.06529E-01
      21    -1     0     0   502   501  0.000000000E+00  0.000000000E+00  9.273825768E+02  9.273825768E+02  0.000000000E+00  0.00000E+00  9.000E+00
       5    -1     0     0   501     0  0.000000000E+00  0.000000000E+00 -3.750110969E+02  3.750110969E+02  0.000000000E+00  0.00000E+00  9.000E+00
      25     1     1     2     0     0  1.591200227E+02  2.267231552E+02  6.586649054E+02  7.253875022E+02  1.250000000E+02  0.00000E+00  9.000E+00
      25     1     1     2     0     0 -2.229396444E+01  1.859344042E+01  1.495509760E+02  1.970614912E+02  1.250000000E+02  0.00000E+00  9.000E+00
       5     1     1     2   502     0 -1.368260583E+02 -2.453165957E+02 -2.558444015E+02  3.799446804E+02  3.814697266E-06  0.00000E+00  9.000E+00
#rwgt            1           1   2.5842638515364912E-002           2      291088           0
</event>
<event>
      5   9999  3.79277E-02  6.21387E+01 -1.00000E+00  1.33896E-01
      21    -1     0     0   502   511  0.000000000E+00  0.000000000E+00  1.423847264E+02  1.423847264E+02  0.000000000E+00  0.00000E+00  9.000E+00
      21    -1     0     0   501   502  0.000000000E+00  0.000000000E+00 -3.303454780E+02  3.303454780E+02  0.000000000E+00  0.00000E+00  9.000E+00
      25     1     1     2     0     0 -5.565746314E+00  9.843210749E+01 -1.115822555E+02  1.944105374E+02  1.250000000E+02  0.00000E+00  9.000E+00
      25     1     1     2     0     0  6.038815098E+00 -1.605689694E+02 -7.234536532E+01  2.160502560E+02  1.250000000E+02  0.00000E+00  9.000E+00
      21     1     1     2   501   511 -4.730687841E-01  6.213686190E+01 -4.033130653E+00  6.226941098E+01  9.555351461E-07  0.00000E+00  9.000E+00
#rwgt            1           1   4.6952583113932092E-002           2      291117           0
</event>
<event>
      5   9999  3.79277E-02  7.50227E+01 -1.00000E+00  1.29714E-01
      21    -1     0     0   502   501  0.000000000E+00  0.000000000E+00  1.282420620E+03  1.282420620E+03  0.000000000E+00  0.00000E+00  9.000E+00
      21    -1     0     0   512   502  0.000000000E+00  0.000000000E+00 -2.181092951E+02  2.181092951E+02  0.000000000E+00  0.00000E+00  9.000E+00
      25     1     1     2     0     0 -1.436066622E+02  1.065724701E+02  1.381304947E+02  2.582355483E+02  1.250000000E+02  0.00000E+00  9.000E+00
      25     1     1     2     0     0  2.148198037E+02 -8.296977813E+01  1.058357509E+03  1.090310574E+03  1.250000000E+02  0.00000E+00  9.000E+00
      21     1     1     2   512   501 -7.121314148E+01 -2.360269199E+01 -1.321766790E+02  1.519837921E+02  3.303624740E-06  0.00000E+00  9.000E+00
#rwgt            1           1   3.2403720725176062E-002           2      291223           0
</event>
<event>
      5   9999  3.79277E-02  8.87884E+01 -1.00000E+00  1.26196E-01
      21    -1     0     0   502   501  0.000000000E+00  0.000000000E+00  5.323080771E+02  5.323080771E+02  0.000000000E+00  0.00000E+00  9.000E+00
      21    -1     0     0   501   511  0.000000000E+00  0.000000000E+00 -9.462470625E+02  9.462470625E+02  0.000000000E+00  0.00000E+00  9.000E+00
      25     1     1     2     0     0 -7.646969306E+01 -2.691846331E+01 -2.748690164E+01  1.515016415E+02  1.250000000E+02  0.00000E+00  9.000E+00
      25     1     1     2     0     0  2.684968040E+01  1.005474601E+02  4.538282863E+02  4.820952297E+02  1.250000000E+02  0.00000E+00  9.000E+00
      21     1     1     2   502   511  4.962001266E+01 -7.362899682E+01 -8.402803701E+02  8.449582683E+02  0.000000000E+00  0.00000E+00  9.000E+00
#rwgt            1           1   3.2740328948309680E-002           2      291315           0
</event>
<event>
      5   9999  3.79277E-02  3.36692E+01 -1.00000E+00  1.49639E-01
      21    -1     0     0   502   512  0.000000000E+00  0.000000000E+00  6.554575715E+01  6.554575715E+01  0.000000000E+00  0.00000E+00  9.000E+00
      21    -1     0     0   501   502  0.000000000E+00  0.000000000E+00 -6.842582405E+02  6.842582405E+02  0.000000000E+00  0.00000E+00  9.000E+00
      25     1     1     2     0     0  5.297204456E+01 -1.034289208E+02 -4.225543292E+02  4.557200240E+02  1.250000000E+02  0.00000E+00  9.000E+00
      25     1     1     2     0     0 -2.870595662E+01  1.267692316E+02 -1.856446043E+02  2.588114934E+02  1.250000000E+02  0.00000E+00  9.000E+00
      21     1     1     2   501   512 -2.426608794E+01 -2.334031076E+01 -1.051354986E+01  3.527248022E+01  6.951036328E-07  0.00000E+00  9.000E+00
#rwgt            1           1   3.1447082895965546E-002           2      291507           0
</event>
<event>
      5   9999  3.79277E-02  6.83272E+01 -1.00000E+00  1.31755E-01
      21    -1     0     0   502   511  0.000000000E+00  0.000000000E+00  3.020070816E+02  3.020070816E+02  0.000000000E+00  0.00000E+00  9.000E+00
      21    -1     0     0   501   502  0.000000000E+00  0.000000000E+00 -1.046903468E+03  1.046903468E+03  0.000000000E+00  0.00000E+00  9.000E+00
      25     1     1     2     0     0 -3.794400012E+02  2.193169021E+02 -5.659404005E+02  7.266279344E+02  1.250000000E+02  0.00000E+00  9.000E+00
      25     1     1     2     0     0  3.118049702E+02 -2.290178741E+02 -2.847332724E+02  4.963562858E+02  1.250000000E+02  0.00000E+00  9.000E+00
      21     1     1     2   501   511  6.763503103E+01  9.700971970E+00  1.057772861E+02  1.259263298E+02  2.336015456E-06  0.00000E+00  9.000E+00
#rwgt            1           1   2.9029826794259497E-002           2      291681           0
</event>
<event>
      5   9999  3.79277E-02  2.35132E+01 -1.00000E+00  1.60772E-01
      21    -1     0     0   502   512  0.000000000E+00  0.000000000E+00  7.630143682E+01  7.630143682E+01  0.000000000E+00  0.00000E+00  9.000E+00
      21    -1     0     0   501   502  0.000000000E+00  0.000000000E+00 -1.164891378E+03  1.164891378E+03  0.000000000E+00  0.00000E+00  9.000E+00
      25     1     1     2     0     0  7.434202166E+01  1.411402855E+01 -2.229841623E+02  2.665949711E+02  1.250000000E+02  0.00000E+00  9.000E+00
      25     1     1     2     0     0 -5.127026228E+01 -1.864861078E+01 -9.122358112E+02  9.223749702E+02  1.250000000E+02  0.00000E+00  9.000E+00
      21     1     1     2   501   512 -2.307175938E+01  4.534582236E+00  4.663003274E+01  5.222287306E+01  3.438521648E-06  0.00000E+00  9.000E+00
#rwgt            1           1   5.3075861410482789E-002           2      291820           0
</event>
<event>
      5   9999  3.79277E-02  2.53527E+01 -1.00000E+00  1.58297E-01
      21    -1     0     0   502   511  0.000000000E+00  0.000000000E+00  1.148689666E+03  1.148689666E+03  0.000000000E+00  0.00000E+00  9.000E+00
      21    -1     0     0   501   502  0.000000000E+00  0.000000000E+00 -1.342942167E+02  1.342942167E+02  0.000000000E+00  0.00000E+00  9.000E+00
      25     1     1     2     0     0  8.977085454E+01 -5.758017157E+01  9.865656317E+02  1.000155502E+03  1.250000000E+02  0.00000E+00  9.000E+00
      25     1     1     2     0     0 -6.587196332E+01  4.911836507E+01 -8.167063334E+01  1.704312814E+02  1.250000000E+02  0.00000E+00  9.000E+00
      21     1     1     2   501   511 -2.389889122E+01  8.461806495E+00  1.095004507E+02  1.123970990E+02  1.348699152E-06  0.00000E+00  9.000E+00
#rwgt            1           1   4.6134931701871329E-002           2      292015           0
</event>
<event>
      5   9999  3.79277E-02  8.35764E+01 -1.00000E+00  1.27437E-01
      21    -1     0     0   512   501  0.000000000E+00  0.000000000E+00  6.410339514E+02  6.410339514E+02  0.000000000E+00  0.00000E+00  9.000E+00
      21    -1     0     0   501   502  0.000000000E+00  0.000000000E+00 -1.834174403E+02  1.834174403E+02  0.000000000E+00  0.00000E+00  9.000E+00
      25     1     1     2     0     0  1.394798462E+02  6.839717441E+01 -6.359608845E+01  2.092899029E+02  1.250000000E+02  0.00000E+00  9.000E+00
      25     1     1     2     0     0 -1.915628619E+02 -3.033732478E+00  4.522190206E+02  5.067865193E+02  1.250000000E+02  0.00000E+00  9.000E+00
      21     1     1     2   512   502  5.208301567E+01 -6.536344194E+01  6.899357900E+01  1.083749695E+02  0.000000000E+00  0.00000E+00  9.000E+00
#rwgt            1           1   3.1466575344961382E-002           2      292213           0
</event>
<event>
      5   9999  3.79277E-02  6.79695E+01 -1.00000E+00  1.31871E-01
      21    -1     0     0   502   511  0.000000000E+00  0.000000000E+00  4.514065496E+02  4.514065496E+02  0.000000000E+00  0.00000E+00  9.000E+00
      21    -1     0     0   501   502  0.000000000E+00  0.000000000E+00 -5.639098889E+02  5.639098889E+02  0.000000000E+00  0.00000E+00  9.000E+00
      25     1     1     2     0     0  6.224018080E+01 -1.634411820E+02 -3.509308629E+02  4.115389783E+02  1.250000000E+02  0.00000E+00  9.000E+00
      25     1     1     2     0     0  2.389386579E-01  1.366790700E+02 -1.318228066E+02  2.273400044E+02  1.250000000E+02  0.00000E+00  9.000E+00
      21     1     1     2   501   511 -6.247911946E+01  2.676211207E+01  3.702503303E+02  3.764374557E+02  0.000000000E+00  0.00000E+00  9.000E+00
#rwgt            1           1   3.7580741779346415E-002           2      292463           0
</event>
<event>
      5   9999  3.79277E-02  1.99399E+01 -1.00000E+00  1.66477E-01
      21    -1     0     0   502   501  0.000000000E+00  0.000000000E+00  1.556452015E+02  1.556452015E+02  0.000000000E+00  0.00000E+00  9.000E+00
      21    -1     0     0   512   502  0.000000000E+00  0.000000000E+00 -5.725871914E+02  5.725871914E+02  0.000000000E+00  0.00000E+00  9.000E+00
      25     1     1     2     0     0 -1.910488031E+02  4.220765702E+01 -3.291744467E+00  2.322002736E+02  1.250000000E+02  0.00000E+00  9.000E+00
      25     1     1     2     0     0  2.106522011E+02 -4.585537155E+01 -3.523466974E+02  4.315672139E+02  1.250000000E+02  0.00000E+00  9.000E+00
      21     1     1     2   512   501 -1.960339801E+01  3.647714527E+00 -6.130354799E+01  6.446490542E+01  9.536743164E-07  0.00000E+00  9.000E+00
#rwgt            1           1   3.4589578699988723E-002           2      292559           0
</event>
<event>
      5   9999  3.79277E-02  2.22402E+02 -1.00000E+00  1.09995E-01
      21    -1     0     0   502   511  0.000000000E+00  0.000000000E+00  5.786398087E+02  5.786398087E+02  0.000000000E+00  0.00000E+00  9.000E+00
      21    -1     0     0   501   502  0.000000000E+00  0.000000000E+00 -4.807171328E+02  4.807171328E+02  0.000000000E+00  0.00000E+00  9.000E+00
      25     1     1     2     0     0  3.223181932E+02  3.450494122E+01  5.538635549E+01  3.518128153E+02  1.250000000E+02  0.00000E+00  9.000E+00
      25     1     1     2     0     0 -1.104422891E+02 -1.021150611E+02 -2.641705743E+02  3.286884197E+02  1.250000000E+02  0.00000E+00  9.000E+00
      21     1     1     2   501   511 -2.118759041E+02  6.761011986E+01  3.067068948E+02  3.788557065E+02  0.000000000E+00  0.00000E+00  9.000E+00
#rwgt            2          11   1.6636443094718051E-003           2      292902           0
</event>
<event>
      5   9999  3.79277E-02  6.80151E+01 -1.00000E+00  1.31857E-01
      21    -1     0     0   502   501  0.000000000E+00  0.000000000E+00  5.370335894E+02  5.370335894E+02  0.000000000E+00  0.00000E+00  9.000E+00
      21    -1     0     0   501   512  0.000000000E+00  0.000000000E+00 -1.053254394E+02  1.053254394E+02  0.000000000E+00  0.00000E+00  9.000E+00
      25     1     1     2     0     0  4.401863312E+01  8.844425944E+01  3.613527112E+02  3.949187372E+02  1.250000000E+02  0.00000E+00  9.000E+00
      25     1     1     2     0     0  1.996630958E+01 -1.115089642E+02  5.747039214E+01  1.782154555E+02  1.250000000E+02  0.00000E+00  9.000E+00
      21     1     1     2   502   512 -6.398494270E+01  2.306470475E+01  1.288504670E+01  6.922483605E+01  1.815741803E-06  0.00000E+00  9.000E+00
#rwgt            1           1   2.7912652804304848E-002           2      293027           0
</event>
<event>
      5   9999  3.79277E-02  2.83083E+01 -1.00000E+00  1.54811E-01
      21    -1     0     0   502   511  0.000000000E+00  0.000000000E+00  2.488200890E+01  2.488200890E+01  0.000000000E+00  0.00000E+00  9.000E+00
      21    -1     0     0   501   502  0.000000000E+00  0.000000000E+00 -1.751046903E+03  1.751046903E+03  0.000000000E+00  0.00000E+00  9.000E+00
      25     1     1     2     0     0  1.254443915E+02 -1.374763023E+01 -5.846485947E+02  6.110354098E+02  1.250000000E+02  0.00000E+00  9.000E+00
      25     1     1     2     0     0 -1.405192455E+02  3.770822428E+01 -1.083402749E+03  1.100251828E+03  1.250000000E+02  0.00000E+00  9.000E+00
      21     1     1     2   501   511  1.507485405E+01 -2.396059405E+01 -5.811355037E+01  6.464167409E+01  1.907348633E-06  0.00000E+00  9.000E+00
#rwgt            1           1   3.1967884671256296E-002           2      293292           0
</event>
<event>
      5   9999 -3.79277E-02  3.67210E+01 -1.00000E+00  1.47182E-01
      21    -1     0     0   502   501  0.000000000E+00  0.000000000E+00  7.401424146E+02  7.401424146E+02  0.000000000E+00  0.00000E+00  9.000E+00
      21    -1     0     0   501   512  0.000000000E+00  0.000000000E+00 -6.439026040E+01  6.439026040E+01  0.000000000E+00  0.00000E+00  9.000E+00
      25     1     1     2     0     0  1.222202389E+02  6.747869216E+01  2.700449553E+02  3.286950540E+02  1.250000000E+02  0.00000E+00  9.000E+00
      25     1     1     2     0     0 -8.687442585E+01 -7.743392500E+01  4.045224753E+02  4.390974967E+02  1.250000000E+02  0.00000E+00  9.000E+00
      21     1     1     2   502   512 -3.534581302E+01  9.955232847E+00  1.184723651E+00  3.674012424E+01  3.704369931E-07  0.00000E+00  9.000E+00
#rwgt            1           1 -0.15272336309202347                2      293452           0
</event>
<event>
      5   9999  3.79277E-02  7.79892E+01 -1.00000E+00  1.28887E-01
       3    -1     0     0   502     0  0.000000000E+00  0.000000000E+00  1.924250169E+03  1.924250169E+03  0.000000000E+00  0.00000E+00  9.000E+00
      21    -1     0     0   501   502  0.000000000E+00  0.000000000E+00 -1.749753853E+02  1.749753853E+02  0.000000000E+00  0.00000E+00  9.000E+00
      25     1     1     2     0     0 -1.013762946E+02 -1.360141926E+02  5.235599784E+01  2.171247664E+02  1.250000000E+02  0.00000E+00  9.000E+00
      25     1     1     2     0     0  8.231712672E+01  2.116386426E+02  9.165134897E+01  2.749399829E+02  1.250000000E+02  0.00000E+00  9.000E+00
       3     1     1     2   501     0  1.905916784E+01 -7.562445003E+01  1.605267437E+03  1.607160805E+03  0.000000000E+00  0.00000E+00  9.000E+00
#rwgt            1           1   3.0840263716221367E-002           2      293542           0
</event>
<event>
      5   9999  3.79277E-02  2.67804E+01 -1.00000E+00  1.56545E-01
      21    -1     0     0   511   501  0.000000000E+00  0.000000000E+00  4.234771517E+02  4.234771517E+02  0.000000000E+00  0.00000E+00  9.000E+00
      21    -1     0     0   501   502  0.000000000E+00  0.000000000E+00 -5.752521050E+01  5.752521050E+01  0.000000000E+00  0.00000E+00  9.000E+00
      25     1     1     2     0     0  3.011406006E+01 -4.986292616E+01  1.104333906E+02  1.766739986E+02  1.250000000E+02  0.00000E+00  9.000E+00
      25     1     1     2     0     0 -2.406622778E+01  2.377434658E+01  1.639467367E+02  2.089208830E+02  1.250000000E+02  0.00000E+00  9.000E+00
      21     1     1     2   511   502 -6.047832276E+00  2.608857958E+01  9.157181384E+01  9.540748058E+01  1.348699152E-06  0.00000E+00  9.000E+00
#rwgt            1           1   1.9689586578920053E-002           2      293643           0
</event>
<event>
      5   9999 -3.79277E-02  4.98614E+01 -1.00000E+00  1.39144E-01
      21    -1     0     0   502   512  0.000000000E+00  0.000000000E+00  4.004751968E+02  4.004751968E+02  0.000000000E+00  0.00000E+00  9.000E+00
      21    -1     0     0   501   502  0.000000000E+00  0.000000000E+00 -1.833568696E+02  1.833568696E+02  0.000000000E+00  0.00000E+00  9.000E+00
      25     1     1     2     0     0 -1.283371932E+02 -3.424882976E+01  1.511805111E+02  2.369049692E+02  1.250000000E+02  0.00000E+00  9.000E+00
      25     1     1     2     0     0  1.495860798E+02  7.935589734E+01 -5.378580430E+01  2.172355092E+02  1.250000000E+02  0.00000E+00  9.000E+00
      21     1     1     2   501   512 -2.124888665E+01 -4.510706758E+01  1.197236204E+02  1.296915880E+02  2.336015456E-06  0.00000E+00  9.000E+00
#rwgt            1           1  -2.6588088420895179E-002           2      293790           0
</event>
<event>
      5   9999  3.79277E-02  2.20803E+01 -1.00000E+00  1.62900E-01
      21    -1     0     0   502   501  0.000000000E+00  0.000000000E+00  1.886557470E+02  1.886557470E+02  0.000000000E+00  0.00000E+00  9.000E+00
      21    -1     0     0   501   511  0.000000000E+00  0.000000000E+00 -4.548503274E+02  4.548503274E+02  0.000000000E+00  0.00000E+00  9.000E+00
      25     1     1     2     0     0  1.531951181E+02  7.232029411E+01 -1.223817622E+02  2.435185104E+02  1.250000000E+02  0.00000E+00  9.000E+00
      25     1     1     2     0     0 -1.390718249E+02 -5.534757234E+01  5.288459675E+01  2.020547125E+02  1.250000000E+02  0.00000E+00  9.000E+00
      21     1     1     2   502   511 -1.412329319E+01 -1.697272177E+01 -1.966974149E+02  1.979328515E+02  2.697398305E-06  0.00000E+00  9.000E+00
#rwgt            1           1   3.4662994726481731E-002           2      294016           0
</event>
<event>
      5   9999  3.79277E-02  6.64473E+01 -1.00000E+00  1.32377E-01
       2    -1     0     0   502     0  0.000000000E+00  0.000000000E+00  7.789713403E+02  7.789713403E+02  0.000000000E+00  0.00000E+00  9.000E+00
      21    -1     0     0   501   502  0.000000000E+00  0.000000000E+00 -1.872396586E+02  1.872396586E+02  0.000000000E+00  0.00000E+00  9.000E+00
      25     1     1     2     0     0  4.873377234E+01 -4.178831106E+01  3.724606821E+01  1.453737016E+02  1.250000000E+02  0.00000E+00  9.000E+00
      25     1     1     2     0     0  3.813018373E+00  8.245872772E+01 -8.879329403E+01  1.741356654E+02  1.250000000E+02  0.00000E+00  9.000E+00
       2     1     1     2   501     0 -5.254679071E+01 -4.067041667E+01  6.432789075E+02  6.467016320E+02  0.000000000E+00  0.00000E+00  9.000E+00
#rwgt            2          18   7.9280627624370083E-004           2      294152           0
</event>
<event>
      5   9999  3.79277E-02  1.87424E+01 -1.00000E+00  1.68730E-01
      21    -1     0     0   502   501  0.000000000E+00  0.000000000E+00  2.231977291E+02  2.231977291E+02  0.000000000E+00  0.00000E+00  9.000E+00
      21    -1     0     0   511   502  0.000000000E+00  0.000000000E+00 -1.660798509E+03  1.660798509E+03  0.000000000E+00  0.00000E+00  9.000E+00
      25     1     1     2     0     0 -8.874067656E+01 -9.379080849E+01  1.545585200E+02  2.370336675E+02  1.250000000E+02  0.00000E+00  9.000E+00
      25     1     1     2     0     0  8.437055189E+01  7.556500618E+01 -2.328728265E+02  2.875468892E+02  1.250000000E+02  0.00000E+00  9.000E+00
      21     1     1     2   511   501  4.370124669E+00  1.822580231E+01 -1.359286473E+03  1.359415681E+03  2.157918644E-05  0.00000E+00  9.000E+00
#rwgt            1           1   3.7167574423883361E-002           2      294186           0
</event>
<event>
      5   9999  3.79277E-02  1.00353E+02 -1.00000E+00  1.23759E-01
      21    -1     0     0   502   501  0.000000000E+00  0.000000000E+00  4.197175665E+01  4.197175665E+01  0.000000000E+00  0.00000E+00  9.000E+00
      21    -1     0     0   512   502  0.000000000E+00  0.000000000E+00 -1.878726063E+03  1.878726063E+03  0.000000000E+00  0.00000E+00  9.000E+00
      25     1     1     2     0     0  9.259475922E+01  8.944582574E+01 -8.539701288E+02  8.726192332E+02  1.250000000E+02  0.00000E+00  9.000E+00
      25     1     1     2     0     0 -1.177733521E+01 -2.995435847E+01 -1.101350289E+02  1.696782066E+02  1.250000000E+02  0.00000E+00  9.000E+00
      21     1     1     2   512   501 -8.081742401E+01 -5.949146727E+01 -8.726491484E+02  8.784003796E+02  1.868812365E-05  0.00000E+00  9.000E+00
#rwgt            1           1   4.1965477572363970E-002           2      294380           0
</event>
<event>
      5   9999  3.79277E-02  7.92033E+00 -1.00000E+00  2.08240E-01
      21    -1     0     0   502   501  0.000000000E+00  0.000000000E+00  8.697627990E+02  8.697627990E+02  0.000000000E+00  0.00000E+00  9.000E+00
      21    -1     0     0   511   502  0.000000000E+00  0.000000000E+00 -3.788827673E+01  3.788827673E+01  0.000000000E+00  0.00000E+00  9.000E+00
      25     1     1     2     0     0 -5.953592556E+01  1.023883308E+02  3.294468133E+02  3.717365996E+02  1.250000000E+02  0.00000E+00  9.000E+00
      25     1     1     2     0     0  6.696188119E+01 -9.963390715E+01  4.968997448E+02  5.262557984E+02  1.250000000E+02  0.00000E+00  9.000E+00
      21     1     1     2   511   501 -7.425955627E+00 -2.754423613E+00  5.527964120E+00  9.658677639E+00  1.576990671E-07  0.00000E+00  9.000E+00
#rwgt            1           1   3.7582469406013112E-002           2      294450           0
</event>
<event>
      5   9999 -3.79277E-02  2.87017E+01 -1.00000E+00  1.54386E-01
      21    -1     0     0   502   501  0.000000000E+00  0.000000000E+00  2.161268407E+03  2.161268407E+03  0.000000000E+00  0.00000E+00  9.000E+00
      21    -1     0     0   501   512  0.000000000E+00  0.000000000E+00 -2.996914117E+01  2.996914117E+01  0.000000000E+00  0.00000E+00  9.000E+00
      25     1     1     2     0     0 -2.856397946E+01 -2.151501918E+02  1.013621293E+03  1.044106619E+03  1.250000000E+02  0.00000E+00  9.000E+00
      25     1     1     2     0     0  2.061709450E+01  1.875705691E+02  1.039321040E+03  1.063682757E+03  1.250000000E+02  0.00000E+00  9.000E+00
      21     1     1     2   502   512  7.946884953E+00  2.757962261E+01  7.835693226E+01  8.344817192E+01  9.536743164E-07  0.00000E+00  9.000E+00
#rwgt            1           1  -8.3085612136603523E-002           2      294644           0
</event>
<event>
      5   9999 -3.79277E-02  1.64754E+01 -1.00000E+00  1.73629E-01
      21    -1     0     0   502   501  0.000000000E+00  0.000000000E+00  1.441013049E+02  1.441013049E+02  0.000000000E+00  0.00000E+00  9.000E+00
      21    -1     0     0   501   511  0.000000000E+00  0.000000000E+00 -4.371532572E+02  4.371532572E+02  0.000000000E+00  0.00000E+00  9.000E+00
      25     1     1     2     0     0  2.182305566E+01 -1.524971900E+02 -1.545999576E+02  2.515110049E+02  1.250000000E+02  0.00000E+00  9.000E+00
      25     1     1     2     0     0 -1.902156061E+01  1.362616960E+02  4.405221790E+00  1.859394406E+02  1.250000000E+02  0.00000E+00  9.000E+00
      21     1     1     2   502   511 -2.801495050E+00  1.623549392E+01 -1.428572166E+02  1.438041167E+02  0.000000000E+00  0.00000E+00  9.000E+00
#rwgt            1           1  -5.9549636946182899E-002           2      294764           0
</event>
<event>
      5   9999  3.79277E-02  1.36558E+01 -1.00000E+00  1.81313E-01
      21    -1     0     0   502   501  0.000000000E+00  0.000000000E+00  4.561193751E+02  4.561193751E+02  0.000000000E+00  0.00000E+00  9.000E+00
      21    -1     0     0   501   512  0.000000000E+00  0.000000000E+00 -1.100185820E+02  1.100185820E+02  0.000000000E+00  0.00000E+00  9.000E+00
      25     1     1     2     0     0 -1.489162839E+02 -2.924914097E+00  5.620122517E+01  2.024060089E+02  1.250000000E+02  0.00000E+00  9.000E+00
      25     1     1     2     0     0  1.615604085E+02 -2.233274579E+00  2.810888692E+02  3.474805109E+02  1.250000000E+02  0.00000E+00  9.000E+00
      21     1     1     2   502   512 -1.264412459E+01  5.158188676E+00  8.810698784E+00  1.625143717E+01  2.384185791E-07  0.00000E+00  9.000E+00
#rwgt            1           1   4.2911354179238366E-002           2      294916           0
</event>
<event>
      5   9999  3.79277E-02  4.23689E+01 -1.00000E+00  1.43307E-01
      21    -1     0     0   502   501  0.000000000E+00  0.000000000E+00  7.355835390E+01  7.355835390E+01  0.000000000E+00  0.00000E+00  9.000E+00
      21    -1     0     0   511   502  0.000000000E+00  0.000000000E+00 -6.867868649E+02  6.867868649E+02  0.000000000E+00  0.00000E+00  9.000E+00
      25     1     1     2     0     0 -2.831220008E+01 -4.155281848E+01 -2.370705161E+01  1.368036611E+02  1.250000000E+02  0.00000E+00  9.000E+00
      25     1     1     2     0     0  2.373218562E+01  8.367341132E+01 -5.226071723E+02  5.443415407E+02  1.250000000E+02  0.00000E+00  9.000E+00
      21     1     1     2   511   501  4.580014465E+00 -4.212059285E+01 -6.691428708E+01  7.920001698E+01  9.536743164E-07  0.00000E+00  9.000E+00
#rwgt            1           1   4.2264574467278056E-002           2      295049           0
</event>
<event>
      5   9999  3.79277E-02  2.00620E+02 -1.00000E+00  1.11599E-01
      21    -1     0     0   512   501  0.000000000E+00  0.000000000E+00  2.567242378E+02  2.567242378E+02  0.000000000E+00  0.00000E+00  9.000E+00
      21    -1     0     0   501   502  0.000000000E+00  0.000000000E+00 -8.064637451E+02  8.064637451E+02  0.000000000E+00  0.00000E+00  9.000E+00
      25     1     1     2     0     0  1.416648587E+01 -1.775119160E+02 -6.200267836E+02  6.570916086E+02  1.250000000E+02  0.00000E+00  9.000E+00
      25     1     1     2     0     0 -1.327461137E+02  1.568714776E+01 -2.372482560E+01  1.845412817E+02  1.250000000E+02  0.00000E+00  9.000E+00
      21     1     1     2   512   502  1.185796279E+02  1.618247682E+02  9.401210189E+01  2.215550926E+02  5.394796609E-06  0.00000E+00  9.000E+00
#rwgt            2          11   2.4946084580060265E-003           2      295206           0
</event>
<event>
      5   9999  3.79277E-02  2.07433E+02 -1.00000E+00  1.11074E-01
       2    -1     0     0   502     0  0.000000000E+00  0.000000000E+00  1.684200512E+03  1.684200512E+03  0.000000000E+00  0.00000E+00  9.000E+00
      21    -1     0     0   501   502  0.000000000E+00  0.000000000E+00 -1.613848643E+02  1.613848643E+02  0.000000000E+00  0.00000E+00  9.000E+00
      25     1     1     2     0     0 -8.225098128E+00  1.376297554E+02 -2.160079083E+01  1.873531317E+02  1.250000000E+02  0.00000E+00  9.000E+00
      25     1     1     2     0     0  1.591056374E+02  4.719921831E+00  1.590110094E+02  2.573837265E+02  1.250000000E+02  0.00000E+00  9.000E+00
       2     1     1     2   501     0 -1.508805393E+02 -1.423496772E+02  1.385405429E+03  1.400848518E+03  2.157918644E-05  0.00000E+00  9.000E+00
#rwgt            1           1   2.9977712099058210E-002           2      295241           0
</event>
<event>
      5   9999  3.79277E-02  4.93448E+01 -1.00000E+00  1.39403E-01
      21    -1     0     0   502   501  0.000000000E+00  0.000000000E+00  9.451799807E+02  9.451799807E+02  0.000000000E+00  0.00000E+00  9.000E+00
      21    -1     0     0   501   511  0.000000000E+00  0.000000000E+00 -5.894595765E+01  5.894595765E+01  0.000000000E+00  0.00000E+00  9.000E+00
      25     1     1     2     0     0  1.293819690E+02  5.181157715E+01  4.429517696E+02  4.808902199E+02  1.250000000E+02  0.00000E+00  9.000E+00
      25     1     1     2     0     0 -1.786635950E+02 -4.931490767E+01  3.968161773E+02  4.554566048E+02  1.250000000E+02  0.00000E+00  9.000E+00
      21     1     1     2   502   511  4.928162592E+01 -2.496669471E+00  4.646607616E+01  6.777911364E+01  1.168007728E-06  0.00000E+00  9.000E+00
#rwgt            1           1   3.5029533656684930E-002           2      295280           0
</event>
<event>
      5   9999  3.79277E-02  3.40585E+01 -1.00000E+00  1.49309E-01
      21    -1     0     0   502   501  0.000000000E+00  0.000000000E+00  5.622388921E+02  5.622388921E+02  0.000000000E+00  0.00000E+00  9.000E+00
      21    -1     0     0   501   512  0.000000000E+00  0.000000000E+00 -4.038429917E+02  4.038429917E+02  0.000000000E+00  0.00000E+00  9.000E+00
      25     1     1     2     0     0 -1.144254877E+02  5.634969423E+01  1.358559553E+02  2.243887717E+02  1.250000000E+02  0.00000E+00  9.000E+00
      25     1     1     2     0     0  8.306131554E+01 -4.307297247E+01  3.652869253E+02  3.972581036E+02  1.250000000E+02  0.00000E+00  9.000E+00
      21     1     1     2   502   512  3.136417213E+01 -1.327672176E+01 -3.427469802E+02  3.444350085E+02  3.814697266E-06  0.00000E+00  9.000E+00
#rwgt            1           1   4.3833655367956102E-002           2      295451           0
</event>
<event>
      5   9999  3.79277E-02  4.75301E+01 -1.00000E+00  1.40343E-01
      21    -1     0     0   502   501  0.000000000E+00  0.000000000E+00  1.263553380E+02  1.263553380E+02  0.000000000E+00  0.00000E+00  9.000E+00
      21    -1     0     0   501   511  0.000000000E+00  0.000000000E+00 -3.106103917E+02  3.106103917E+02  0.000000000E+00  0.00000E+00  9.000E+00
      25     1     1     2     0     0 -7.387201736E+01  4.036165277E+01 -1.016098865E+02  1.817572750E+02  1.250000000E+02  0.00000E+00  9.000E+00
      25     1     1     2     0     0  8.035857953E+01  6.723743584E+00  1.206351339E+01  1.492422138E+02  1.250000000E+02  0.00000E+00  9.000E+00
      21     1     1     2   502   511 -6.486562171E+00 -4.708539635E+01 -9.470868053E+01  1.059662409E+02  1.348699152E-06  0.00000E+00  9.000E+00
#rwgt            1           1   3.8995902441143988E-002           2      295651           0
</event>
<event>
      5   9999  3.79277E-02  1.11295E+02 -1.00000E+00  1.21773E-01
      21    -1     0     0   502   512  0.000000000E+00  0.000000000E+00  5.874535931E+02  5.874535931E+02  0.000000000E+00  0.00000E+00  9.000E+00
      21    -1     0     0   501   502  0.000000000E+00  0.000000000E+00 -3.671244697E+02  3.671244697E+02  0.000000000E+00  0.00000E+00  9.000E+00
      25     1     1     2     0     0 -9.957241938E+00  8.583765312E+01 -2.928842015E+02  3.299597019E+02  1.250000000E+02  0.00000E+00  9.000E+00
      25     1     1     2     0     0  1.109418349E+02 -3.905395016E+01  1.043232849E+02  2.008523078E+02  1.250000000E+02  0.00000E+00  9.000E+00
      21     1     1     2   501   512 -1.009845930E+02 -4.678370296E+01  4.088900401E+02  4.237660531E+02  0.000000000E+00  0.00000E+00  9.000E+00
#rwgt            1           1   3.6309124603219403E-002           2      295737           0
</event>
<event>
      5   9999  3.79277E-02  1.67299E+02 -1.00000E+00  1.14545E-01
       2    -1     0     0   502     0  0.000000000E+00  0.000000000E+00  7.061873284E+02  7.061873284E+02  0.000000000E+00  0.00000E+00  9.000E+00
      21    -1     0     0   501   502  0.000000000E+00  0.000000000E+00 -3.806174844E+02  3.806174844E+02  0.000000000E+00  0.00000E+00  9.000E+00
      25     1     1     2     0     0  2.459395211E+02 -9.830614943E+01 -1.042132777E+02  3.108629188E+02  1.250000000E+02  0.00000E+00  9.000E+00
      25     1     1     2     0     0 -8.464957769E+01  5.387174653E+01 -1.206654140E+02  2.006311497E+02  1.250000000E+02  0.00000E+00  9.000E+00
       2     1     1     2   501     0 -1.612899434E+02  4.443440290E+01  5.504485358E+02  5.753107443E+02  0.000000000E+00  0.00000E+00  9.000E+00
#rwgt            1           1   5.0063399329082922E-002           2      295953           0
</event>
<event>
      5   9999  3.79277E-02  7.44077E+01 -1.00000E+00  1.29892E-01
      21    -1     0     0   502   501  0.000000000E+00  0.000000000E+00  7.402386877E+02  7.402386877E+02  0.000000000E+00  0.00000E+00  9.000E+00
      21    -1     0     0   511   502  0.000000000E+00  0.000000000E+00 -1.485057920E+02  1.485057920E+02  0.000000000E+00  0.00000E+00  9.000E+00
      25     1     1     2     0     0 -8.446392442E+01  1.653550582E+01 -1.033367011E+01  1.521162786E+02  1.250000000E+02  0.00000E+00  9.000E+00
      25     1     1     2     0     0  1.192724799E+01 -3.311675706E+01  6.400466589E+02  6.530878229E+02  1.250000000E+02  0.00000E+00  9.000E+00
      21     1     1     2   511   501  7.253667642E+01  1.658125124E+01 -3.798009312E+01  8.354037822E+01  1.168007728E-06  0.00000E+00  9.000E+00
#rwgt            1           1   4.3224844831410210E-002           2      296102           0
</event>
<event>
      5   9999  3.79277E-02  5.06027E+01 -1.00000E+00  1.38779E-01
      21    -1     0     0   502   512  0.000000000E+00  0.000000000E+00  8.050701791E+02  8.050701791E+02  0.000000000E+00  0.00000E+00  9.000E+00
      21    -1     0     0   501   502  0.000000000E+00  0.000000000E+00 -1.349594649E+02  1.349594649E+02  0.000000000E+00  0.00000E+00  9.000E+00
      25     1     1     2     0     0 -2.625963559E+02  1.284296038E+02  4.337845288E+02  5.378150489E+02  1.250000000E+02  0.00000E+00  9.000E+00
      25     1     1     2     0     0  2.190447190E+02 -1.026636562E+02  1.795709993E+02  3.261765764E+02  1.250000000E+02  0.00000E+00  9.000E+00
      21     1     1     2   501   512  4.355163697E+01 -2.576594763E+01  5.675518606E+01  7.603801868E+01  1.348699152E-06  0.00000E+00  9.000E+00
#rwgt            1           1   1.2372167547294371E-002           2      296181           0
</event>
<event>
      5   9999  3.79277E-02  5.65115E+01 -1.00000E+00  1.36108E-01
      21    -1     0     0   502   501  0.000000000E+00  0.000000000E+00  7.822032365E+02  7.822032365E+02  0.000000000E+00  0.00000E+00  9.000E+00
      21    -1     0     0   511   502  0.000000000E+00  0.000000000E+00 -6.386606243E+02  6.386606243E+02  0.000000000E+00  0.00000E+00  9.000E+00
      25     1     1     2     0     0 -3.776509578E+01  7.611580977E+01  2.267399443E+02  2.724992134E+02  1.250000000E+02  0.00000E+00  9.000E+00
      25     1     1     2     0     0  1.036113067E+00 -3.316776215E+01  5.233994855E+02  5.391411646E+02  1.250000000E+02  0.00000E+00  9.000E+00
      21     1     1     2   511   501  3.672898272E+01 -4.294804762E+01 -6.065968175E+02  6.092234828E+02  1.321449896E-05  0.00000E+00  9.000E+00
#rwgt            1           1   3.5995322799290352E-002           2      296358           0
</event>
<event>
      5   9999  3.79277E-02  5.59926E+00 -1.00000E+00  2.30237E-01
      21    -1     0     0   502   501  0.000000000E+00  0.000000000E+00  5.374057898E+02  5.374057898E+02  0.000000000E+00  0.00000E+00  9.000E+00
      21    -1     0     0   512   502  0.000000000E+00  0.000000000E+00 -1.077386044E+02  1.077386044E+02  0.000000000E+00  0.00000E+00  9.000E+00
      25     1     1     2     0     0  1.574190150E+02  1.038569058E+02  1.093270169E+02  2.512854946E+02  1.250000000E+02  0.00000E+00  9.000E+00
      25     1     1     2     0     0 -1.550015667E+02 -9.880639007E+01  3.174972002E+02  3.875792313E+02  1.250000000E+02  0.00000E+00  9.000E+00
      21     1     1     2   512   501 -2.417448305E+00 -5.050515709E+00  2.842968161E+00  6.279668239E+00  1.192092896E-07  0.00000E+00  9.000E+00
#rwgt            1           1   4.6999236452030295E-002           2      296507           0
</event>
<event>
      5   9999  3.79277E-02  1.13845E+02 -1.00000E+00  1.21347E-01
       5    -1     0     0   502     0  0.000000000E+00  0.000000000E+00  3.311381085E+02  3.311381085E+02  0.000000000E+00  0.00000E+00  9.000E+00
      21    -1     0     0   501   502  0.000000000E+00  0.000000000E+00 -5.589456272E+02  5.589456272E+02  0.000000000E+00  0.00000E+00  9.000E+00
      25     1     1     2     0     0 -9.877287399E+01 -1.683559005E+02 -2.484395575E+02  3.397749308E+02  1.250000000E+02  0.00000E+00  9.000E+00
      25     1     1     2     0     0  1.336807102E+02  5.999433867E+01 -2.149781114E+02  2.886354817E+02  1.250000000E+02  0.00000E+00  9.000E+00
       5     1     1     2   501     0 -3.490783617E+01  1.083615618E+02  2.356101503E+02  2.616733231E+02  2.697398305E-06  0.00000E+00  9.000E+00
#rwgt            1           1   1.5507194424348947E-002           2      296843           0
</event>
<event>
      5   9999  3.79277E-02  1.98147E+02 -1.00000E+00  1.11795E-01
      21    -1     0     0   502   511  0.000000000E+00  0.000000000E+00  3.153541477E+02  3.153541477E+02  0.000000000E+00  0.00000E+00  9.000E+00
      21    -1     0     0   501   502  0.000000000E+00  0.000000000E+00 -5.541413629E+02  5.541413629E+02  0.000000000E+00  0.00000E+00  9.000E+00
      25     1     1     2     0     0 -3.206733864E+02  7.169976057E+00 -1.930204772E+02  3.946704117E+02  1.250000000E+02  0.00000E+00  9.000E+00
      25     1     1     2     0     0  1.631176883E+02 -1.273306471E+02 -1.112685430E+02  2.661318519E+02  1.250000000E+02  0.00000E+00  9.000E+00
      21     1     1     2   501   511  1.575556981E+02  1.201606710E+02  6.550180501E+01  2.086932469E+02  4.862803949E-06  0.00000E+00  9.000E+00
#rwgt            1           1   3.8844540393505718E-002           2      296902           0
</event>
<event>
      5   9999  3.79277E-02  1.18689E+02 -1.00000E+00  1.20571E-01
      21    -1     0     0   502   501  0.000000000E+00  0.000000000E+00  1.236962830E+03  1.236962830E+03  0.000000000E+00  0.00000E+00  9.000E+00
      21    -1     0     0   512   502  0.000000000E+00  0.000000000E+00 -4.451173132E+01  4.451173132E+01  0.000000000E+00  0.00000E+00  9.000E+00
      25     1     1     2     0     0 -4.754838034E+00 -5.193770430E+01  7.107930642E+02  7.235826931E+02  1.250000000E+02  0.00000E+00  9.000E+00
      25     1     1     2     0     0 -1.011186331E+02 -1.707826232E+00  2.434842040E+02  2.917832282E+02  1.250000000E+02  0.00000E+00  9.000E+00
      21     1     1     2   512   501  1.058734711E+02  5.364553053E+01  2.381738308E+02  2.661086404E+02  3.814697266E-06  0.00000E+00  9.000E+00
#rwgt            1           1   4.4704570595194539E-002           2      297038           0
</event>
<event>
      5   9999  3.79277E-02  1.21582E+02 -1.00000E+00  1.20127E-01
      21    -1     0     0   511   501  0.000000000E+00  0.000000000E+00  5.878632958E+02  5.878632958E+02  0.000000000E+00  0.00000E+00  9.000E+00
      21    -1     0     0   501   502  0.000000000E+00  0.000000000E+00 -1.512116705E+03  1.512116705E+03  0.000000000E+00  0.00000E+00  9.000E+00
      25     1     1     2     0     0 -2.993016056E+02  2.155442203E+02 -6.683692905E+02  7.735523709E+02  1.250000000E+02  0.00000E+00  9.000E+00
      25     1     1     2     0     0  2.536949452E+02 -1.028401171E+02 -7.549745361E+02  8.127415119E+02  1.250000000E+02  0.00000E+00  9.000E+00
      21     1     1     2   511   502  4.560666042E+01 -1.127041032E+02  4.990904177E+02  5.136861176E+02  5.394796609E-06  0.00000E+00  9.000E+00
#rwgt            1           1   3.4023825444910789E-002           2      297109           0
</event>
<event>
      5   9999  3.79277E-02  1.43068E+01 -1.00000E+00  1.79341E-01
      21    -1     0     0   502   512  0.000000000E+00  0.000000000E+00  6.124502861E+02  6.124502861E+02  0.000000000E+00  0.00000E+00  9.000E+00
      21    -1     0     0   501   502  0.000000000E+00  0.000000000E+00 -3.588479918E+02  3.588479918E+02  0.000000000E+00  0.00000E+00  9.000E+00
      25     1     1     2     0     0  1.372657583E+02 -1.257408676E+01  3.368776631E+01  1.891027807E+02  1.250000000E+02  0.00000E+00  9.000E+00
      25     1     1     2     0     0 -1.344173083E+02 -1.446317205E+00 -2.510574065E+02  3.110063118E+02  1.250000000E+02  0.00000E+00  9.000E+00
      21     1     1     2   501   512 -2.848450053E+00  1.402040396E+01  4.709719345E+02  4.711891854E+02  0.000000000E+00  0.00000E+00  9.000E+00
#rwgt            1           1   3.8199462557403488E-002           2      297241           0
</event>
<event>
      5   9999  3.79277E-02  7.61614E+01 -1.00000E+00  1.29392E-01
      21    -1     0     0   502   501  0.000000000E+00  0.000000000E+00  1.082061441E+02  1.082061441E+02  0.000000000E+00  0.00000E+00  9.000E+00
       1    -1     0     0   501     0  0.000000000E+00  0.000000000E+00 -1.735524849E+03  1.735524849E+03  0.000000000E+00  0.00000E+00  9.000E+00
      25     1     1     2     0     0  7.266994118E+01 -2.174724127E+02 -2.102289552E+02  3.352556998E+02  1.250000000E+02  0.00000E+00  9.000E+00
      25     1     1     2     0     0 -7.380816073E+01  2.936252778E+02 -5.656988274E+02  6.536846423E+02  1.250000000E+02  0.00000E+00  9.000E+00
       1     1     1     2   502     0  1.138219542E+00 -7.615286513E+01 -8.513909222E+02  8.547906509E+02  1.078959322E-05  0.00000E+00  9.000E+00
#rwgt            1           1   2.5253246926334742E-002           2      297448           0
</event>
<event>
      5   9999  3.79277E-02  2.33362E+02 -1.00000E+00  1.09262E-01
      21    -1     0     0   502   511  0.000000000E+00  0.000000000E+00  8.260279833E+02  8.260279833E+02  0.000000000E+00  0.00000E+00  9.000E+00
      21    -1     0     0   501   502  0.000000000E+00  0.000000000E+00 -2.573878455E+02  2.573878455E+02  0.000000000E+00  0.00000E+00  9.000E+00
      25     1     1     2     0     0  2.008920788E+02  1.841378731E+02 -5.740338637E+01  3.052614165E+02  1.250000000E+02  0.00000E+00  9.000E+00
      25     1     1     2     0     0  3.025560866E+01 -1.520691019E+02  4.280579155E+02  4.721217985E+02  1.250000000E+02  0.00000E+00  9.000E+00
      21     1     1     2   501   511 -2.311476874E+02 -3.206877118E+01  1.979856086E+02  3.060326138E+02  3.814697266E-06  0.00000E+00  9.000E+00
#rwgt            1           1   3.0708467103474711E-002           2      297521           0
</event>
<event>
      5   9999  3.79277E-02  1.82219E+02 -1.00000E+00  1.13140E-01
      21    -1     0     0   502   501  0.000000000E+00  0.000000000E+00  8.945858455E+01  8.945858455E+01  0.000000000E+00  0.00000E+00  9.000E+00
      21    -1     0     0   501   512  0.000000000E+00  0.000000000E+00 -1.094453539E+03  1.094453539E+03  0.000000000E+00  0.00000E+00  9.000E+00
      25     1     1     2     0     0 -5.157924271E+01 -1.507081035E+02 -6.475582445E+02  6.784762565E+02  1.250000000E+02  0.00000E+00  9.000E+00
      25     1     1     2     0     0  6.484453426E+00 -2.584229119E+01 -3.088841523E+01  1.314875140E+02  1.250000000E+02  0.00000E+00  9.000E+00
      21     1     1     2   502   512  4.509478929E+01  1.765503946E+02 -3.265482946E+02  3.739483529E+02  3.814697266E-06  0.00000E+00  9.000E+00
#rwgt            2          11   1.7758705273657402E-003           2      297868           0
</event>
<event>
      5   9999  3.79277E-02  5.05554E+01 -1.00000E+00  1.38802E-01
      21    -1     0     0   511   501  0.000000000E+00  0.000000000E+00  2.527042597E+02  2.527042597E+02  0.000000000E+00  0.00000E+00  9.000E+00
      21    -1     0     0   501   502  0.000000000E+00  0.000000000E+00 -4.454685503E+02  4.454685503E+02  0.000000000E+00  0.00000E+00  9.000E+00
      25     1     1     2     0     0 -3.879380411E+01  9.911362316E+01  6.623301414E+01  1.770318663E+02  1.250000000E+02  0.00000E+00  9.000E+00
      25     1     1     2     0     0 -1.380549123E+00 -6.842368591E+01 -3.714487899E+02  3.978478480E+02  1.250000000E+02  0.00000E+00  9.000E+00
      21     1     1     2   511   502  4.017435324E+01 -3.068993724E+01  1.124514851E+02  1.232930956E+02  0.000000000E+00  0.00000E+00  9.000E+00
#rwgt            1           1   2.8643063674035563E-002           2      297888           0
</event>
<event>
      5   9999  3.79277E-02  4.39710E+01 -1.00000E+00  1.42336E-01
      21    -1     0     0   502   512  0.000000000E+00  0.000000000E+00  2.711653621E+02  2.711653621E+02  0.000000000E+00  0.00000E+00  9.000E+00
      21    -1     0     0   501   502  0.000000000E+00  0.000000000E+00 -1.536849062E+02  1.536849062E+02  0.000000000E+00  0.00000E+00  9.000E+00
      25     1     1     2     0     0  1.166560141E+02 -8.539296101E+01  5.094243207E+01  1.977895720E+02  1.250000000E+02  0.00000E+00  9.000E+00
      25     1     1     2     0     0 -7.346668737E+01  9.364699183E+01  4.662179949E+01  1.787895562E+02  1.250000000E+02  0.00000E+00  9.000E+00
      21     1     1     2   501   512 -4.318932669E+01 -8.254030822E+00  1.991622436E+01  4.827114000E+01  5.331201500E-07  0.00000E+00  9.000E+00
#rwgt            1           1   4.2750676344431651E-002           2      298075           0
</event>
<event>
      5   9999  3.79277E-02  1.12692E+02 -1.00000E+00  1.21538E-01
      21    -1     0     0   502   511  0.000000000E+00  0.000000000E+00  6.802465890E+01  6.802465890E+01  0.000000000E+00  0.00000E+00  9.000E+00
      21    -1     0     0   501   502  0.000000000E+00  0.000000000E+00 -1.488677966E+03  1.488677966E+03  0.000000000E+00  0.00000E+00  9.000E+00
      25     1     1     2     0     0 -3.220473690E+00 -5.301265576E+01 -1.216192704E+02  1.823100657E+02  1.250000000E+02  0.00000E+00  9.000E+00
      25     1     1     2     0     0 -1.091506257E+02  4.451506225E+01 -1.230626910E+03  1.242563093E+03  1.250000000E+02  0.00000E+00  9.000E+00
      21     1     1     2   501   511  1.123710994E+02  8.497593515E+00 -6.840712710E+01  1.318294660E+02  1.907348633E-06  0.00000E+00  9.000E+00
#rwgt            1           1   4.0533189024674045E-002           2      298199           0
</event>
<event>
      5   9999  3.79277E-02  1.27088E+02 -1.00000E+00  1.19320E-01
      21    -1     0     0   502   501  0.000000000E+00  0.000000000E+00  5.320303008E+02  5.320303008E+02  0.000000000E+00  0.00000E+00  9.000E+00
      21    -1     0     0   501   512  0.000000000E+00  0.000000000E+00 -1.248988566E+02  1.248988566E+02  0.000000000E+00  0.00000E+00  9.000E+00
      25     1     1     2     0     0  3.568617008E+00 -1.617487098E+02  3.077513219E+02  3.694742971E+02  1.250000000E+02  0.00000E+00  9.000E+00
      25     1     1     2     0     0 -3.155603933E+01  3.778101273E+01  1.562216019E+01  1.352488093E+02  1.250000000E+02  0.00000E+00  9.000E+00
      21     1     1     2   502   512  2.798742232E+01  1.239676971E+02  8.375796207E+01  1.522060509E+02  1.348699152E-06  0.00000E+00  9.000E+00
#rwgt            1           1   4.2943390098601104E-002           2      298445           0
</event>
<event>
      5   9999  3.79277E-02  2.21918E+01 -1.00000E+00  1.62727E-01
      21    -1     0     0   502   501  0.000000000E+00  0.000000000E+00  2.796010923E+02  2.796010923E+02  0.000000000E+00  0.00000E+00  9.000E+00
      21    -1     0     0   511   502  0.000000000E+00  0.000000000E+00 -1.274790400E+02  1.274790400E+02  0.000000000E+00  0.00000E+00  9.000E+00
      25     1     1     2     0     0  8.500984774E+01  4.003036400E+01 -9.454687995E+00  1.566636377E+02  1.250000000E+02  0.00000E+00  9.000E+00
      25     1     1     2     0     0 -8.641328060E+01 -6.217772010E+01  1.581369929E+02  2.279597168E+02  1.250000000E+02  0.00000E+00  9.000E+00
      21     1     1     2   511   501  1.403432860E+00  2.214735609E+01  3.439747397E+00  2.245677777E+01  5.161913656E-07  0.00000E+00  9.000E+00
#rwgt            1           1   3.5630104840967902E-002           2      298492           0
</event>
<event>
      5   9999  3.79277E-02  5.03604E+01 -1.00000E+00  1.38898E-01
      21    -1     0     0   502   501  0.000000000E+00  0.000000000E+00  8.143198846E+01  8.143198846E+01  0.000000000E+00  0.00000E+00  9.000E+00
      21    -1     0     0   512   502  0.000000000E+00  0.000000000E+00 -1.011144647E+03  1.011144647E+03  0.000000000E+00  0.00000E+00  9.000E+00
      25     1     1     2     0     0  7.791161438E+01  6.199038207E+01 -9.955670964E+01  1.882805501E+02  1.250000000E+02  0.00000E+00  9.000E+00
      25     1     1     2     0     0 -6.904159352E+01 -1.115635088E+02 -1.914652866E+02  2.636230530E+02  1.250000000E+02  0.00000E+00  9.000E+00
      21     1     1     2   512   501 -8.870020864E+00  4.957312672E+01 -6.386906622E+02  6.406730322E+02  1.078959322E-05  0.00000E+00  9.000E+00
#rwgt            1           1   5.4123258302988801E-002           2      298560           0
</event>
<event>
      5   9999  3.79277E-02  2.18944E+01 -1.00000E+00  1.63190E-01
       1    -1     0     0   502     0  0.000000000E+00  0.000000000E+00  7.276937689E+02  7.276937689E+02  0.000000000E+00  0.00000E+00  9.000E+00
      21    -1     0     0   501   502  0.000000000E+00  0.000000000E+00 -1.178437403E+02  1.178437403E+02  0.000000000E+00  0.00000E+00  9.000E+00
      25     1     1     2     0     0 -4.022545080E+01  6.937122351E+01  3.744441464E+02  4.028199006E+02  1.250000000E+02  0.00000E+00  9.000E+00
      25     1     1     2     0     0  5.211951515E+01 -8.775313295E+01 -4.014848828E+01  1.662947904E+02  1.250000000E+02  0.00000E+00  9.000E+00
       1     1     1     2   501     0 -1.189406435E+01  1.838190944E+01  2.755543705E+02  2.764228183E+02  5.394796609E-06  0.00000E+00  9.000E+00
#rwgt            1           1   3.8493891755011882E-002           2      298705           0
</event>
<event>
      5   9999  3.79277E-02  4.44615E+01 -1.00000E+00  1.42048E-01
      21    -1     0     0   502   501  0.000000000E+00  0.000000000E+00  3.122154026E+02  3.122154026E+02  0.000000000E+00  0.00000E+00  9.000E+00
      21    -1     0     0   501   511  0.000000000E+00  0.000000000E+00 -1.821317809E+02  1.821317809E+02  0.000000000E+00  0.00000E+00  9.000E+00
      25     1     1     2     0     0  1.330802964E+02 -8.975485174E+01  3.119870656E+01  2.058267669E+02  1.250000000E+02  0.00000E+00  9.000E+00
      25     1     1     2     0     0 -1.711437836E+02  6.677676552E+01  1.008434389E+02  2.440158402E+02  1.250000000E+02  0.00000E+00  9.000E+00
      21     1     1     2   502   511  3.806348721E+01  2.297808621E+01 -1.958523846E+00  4.450457640E+01  5.157610267E-07  0.00000E+00  9.000E+00
#rwgt            1           1   3.7768677721475331E-002           2      298962           0
</event>
<event>
      5   9999  3.79277E-02  1.03274E+02 -1.00000E+00  1.23202E-01
       4    -1     0     0   502     0  0.000000000E+00  0.000000000E+00  7.117252858E+01  7.117252858E+01  0.000000000E+00  0.00000E+00  9.000E+00
      21    -1     0     0   501   502  0.000000000E+00  0.000000000E+00 -2.750468533E+03  2.750468533E+03  0.000000000E+00  0.00000E+00  9.000E+00
      25     1     1     2     0     0 -8.299550413E+01  6.583505559E+01 -8.216801108E+02  8.378578117E+02  1.250000000E+02  0.00000E+00  9.000E+00
      25     1     1     2     0     0  1.716612822E+01 -1.454092932E+02 -1.869896918E+03  1.879781377E+03  1.250000000E+02  0.00000E+00  9.000E+00
       4     1     1     2   501     0  6.582937592E+01  7.957423763E+01  1.228102490E+01  1.040018731E+02  1.305872339E-06  0.00000E+00  9.000E+00
#rwgt            1           1   5.3170867054100082E-002           2      299095           0
</event>
<event>
      5   9999  3.79277E-02  1.08835E+01 -1.00000E+00  1.91601E-01
      21    -1     0     0   511   501  0.000000000E+00  0.000000000E+00  7.942054453E+01  7.942054453E+01  0.000000000E+00  0.00000E+00  9.000E+00
      21    -1     0     0   501   502  0.000000000E+00  0.000000000E+00 -5.651326747E+02  5.651326747E+02  0.000000000E+00  0.00000E+00  9.000E+00
      25     1     1     2     0     0  1.146363142E+02  1.297745811E+01 -4.237143487E+02  4.565837801E+02  1.250000000E+02  0.00000E+00  9.000E+00
      25     1     1     2     0     0 -1.065575230E+02 -2.027012262E+01 -5.279676088E+01  1.737178216E+02  1.250000000E+02  0.00000E+00  9.000E+00
      21     1     1     2   511   502 -8.078791217E+00  7.292664516E+00 -9.201020580E+00  1.425161756E+01  1.685873940E-07  0.00000E+00  9.000E+00
#rwgt            1           1   3.4705482153319533E-002           2      299199           0
</event>
<event>
      5   9999  3.79277E-02  5.00667E+01 -1.00000E+00  1.39043E-01
      21    -1     0     0   502   512  0.000000000E+00  0.000000000E+00  2.287770514E+02  2.287770514E+02  0.000000000E+00  0.00000E+00  9.000E+00
      21    -1     0     0   501   502  0.000000000E+00  0.000000000E+00 -3.369676664E+02  3.369676664E+02  0.000000000E+00  0.00000E+00  9.000E+00
      25     1     1     2     0     0 -1.892536864E+02 -7.937504952E+01 -1.106682067E+02  2.645558699E+02  1.250000000E+02  0.00000E+00  9.000E+00
      25     1     1     2     0     0  1.443432879E+02  1.015048351E+02 -5.681347634E+01  2.235866441E+02  1.250000000E+02  0.00000E+00  9.000E+00
      21     1     1     2   501   512  4.491039848E+01 -2.212978559E+01  5.929106801E+01  7.760220388E+01  6.743495762E-07  0.00000E+00  9.000E+00
#rwgt            1           1   2.7310910235865061E-002           2      299437           0
</event>
<event>
      5   9999  3.79277E-02  7.63024E+01 -1.00000E+00  1.29352E-01
      21    -1     0     0   502   501  0.000000000E+00  0.000000000E+00  8.630639009E+01  8.630639009E+01  0.000000000E+00  0.00000E+00  9.000E+00
       2    -1     0     0   501     0  0.000000000E+00  0.000000000E+00 -1.327468654E+03  1.327468654E+03  0.000000000E+00  0.00000E+00  9.000E+00
      25     1     1     2     0     0 -1.115148172E+02  5.484958479E+01 -5.665520639E+01  1.851454666E+02  1.250000000E+02  0.00000E+00  9.000E+00
      25     1     1     2     0     0  4.955461570E+01 -9.938031328E+01 -3.226434505E+02  3.633949680E+02  1.250000000E+02  0.00000E+00  9.000E+00
       2     1     1     2   502     0  6.196020148E+01  4.453072849E+01 -8.618636070E+02  8.652346095E+02  1.078959322E-05  0.00000E+00  9.000E+00
#rwgt            1           1   2.5850472480115030E-002           2      299748           0
</event>
<event>
      5   9999  3.79277E-02  5.58307E+01 -1.00000E+00  1.36396E-01
      21    -1     0     0   511   501  0.000000000E+00  0.000000000E+00  8.840120845E+02  8.840120845E+02  0.000000000E+00  0.00000E+00  9.000E+00
      21    -1     0     0   501   502  0.000000000E+00  0.000000000E+00 -9.138043865E+01  9.138043865E+01  0.000000000E+00  0.00000E+00  9.000E+00
      25     1     1     2     0     0  2.184510578E+01  1.192823763E+02  6.465041693E+01  1.857691319E+02  1.250000000E+02  0.00000E+00  9.000E+00
      25     1     1     2     0     0 -6.298326110E+01 -1.570278161E+02  3.562220460E+02  4.136952650E+02  1.250000000E+02  0.00000E+00  9.000E+00
      21     1     1     2   511   502  4.113815531E+01  3.774543977E+01  3.717591829E+02  3.759281263E+02  0.000000000E+00  0.00000E+00  9.000E+00
#rwgt            1           1   3.3079743813521578E-002           2      299850           0
</event>
<event>
      5   9999  3.79277E-02  6.93140E+00 -1.00000E+00  2.16160E-01
      21    -1     0     0   512   501  0.000000000E+00  0.000000000E+00  3.032729960E+02  3.032729960E+02  0.000000000E+00  0.00000E+00  9.000E+00
      21    -1     0     0   501   502  0.000000000E+00  0.000000000E+00 -5.020889383E+02  5.020889383E+02  0.000000000E+00  0.00000E+00  9.000E+00
      25     1     1     2     0     0  2.458055510E+02 -3.964390368E+01 -2.042699812E+02  3.454608997E+02  1.250000000E+02  0.00000E+00  9.000E+00
      25     1     1     2     0     0 -2.454235383E+02  4.656476806E+01 -1.412635697E+02  3.130197867E+02  1.250000000E+02  0.00000E+00  9.000E+00
      21     1     1     2   512   502 -3.820127307E-01 -6.920864381E+00  1.467176085E+02  1.468812478E+02  2.697398305E-06  0.00000E+00  9.000E+00
#rwgt            1           1   3.6950607686857866E-002           2      299947           0
</event>
<event>
      5   9999  3.79277E-02  9.46354E+01 -1.00000E+00  1.24915E-01
      21    -1     0     0   502   501  0.000000000E+00  0.000000000E+00  1.426960169E+02  1.426960169E+02  0.000000000E+00  0.00000E+00  9.000E+00
      21    -1     0     0   501   511  0.000000000E+00  0.000000000E+00 -5.081233650E+02  5.081233650E+02  0.000000000E+00  0.00000E+00  9.000E+00
      25     1     1     2     0     0 -8.437838685E+00 -7.773727193E+00 -3.437996404E+02  3.659983889E+02  1.250000000E+02  0.00000E+00  9.000E+00
      25     1     1     2     0     0 -1.870593637E+01 -8.288536792E+01  5.724935710E+01  1.616242097E+02  1.250000000E+02  0.00000E+00  9.000E+00
      21     1     1     2   502   511  2.714377505E+01  9.065909511E+01 -7.887706490E+01  1.231967833E+02  1.348699152E-06  0.00000E+00  9.000E+00
#rwgt            1           1   1.3635826677251828E-002           2      300408           0
</event>
<event>
      5   9999  3.79277E-02  1.20086E+01 -1.00000E+00  1.86995E-01
      21    -1     0     0   502   512  0.000000000E+00  0.000000000E+00  1.574696458E+02  1.574696458E+02  0.000000000E+00  0.00000E+00  9.000E+00
      21    -1     0     0   501   502  0.000000000E+00  0.000000000E+00 -1.784561191E+02  1.784561191E+02  0.000000000E+00  0.00000E+00  9.000E+00
      25     1     1     2     0     0  2.102044639E+01  5.251018272E+01  7.227353243E+01  1.550730213E+02  1.250000000E+02  0.00000E+00  9.000E+00
      25     1     1     2     0     0 -3.174285496E+01 -4.710305219E+01 -9.718963367E+01  1.682175117E+02  1.250000000E+02  0.00000E+00  9.000E+00
      21     1     1     2   501   512  1.072240857E+01 -5.407130527E+00  3.929627991E+00  1.263523178E+01  2.064765462E-07  0.00000E+00  9.000E+00
#rwgt            1           1   3.4246311508972442E-002           2      300510           0
</event>
<event>
      5   9999  3.79277E-02  1.36335E+02 -1.00000E+00  1.18062E-01
      21    -1     0     0   502   501  0.000000000E+00  0.000000000E+00  6.004027157E+02  6.004027157E+02  0.000000000E+00  0.00000E+00  9.000E+00
      21    -1     0     0   511   502  0.000000000E+00  0.000000000E+00 -4.135433392E+02  4.135433392E+02  0.000000000E+00  0.00000E+00  9.000E+00
      25     1     1     2     0     0 -3.203730854E+02  1.499647219E+02 -5.942876510E+01  3.798487986E+02  1.250000000E+02  0.00000E+00  9.000E+00
      25     1     1     2     0     0  2.325718066E+02 -2.542632753E+02  3.132804286E+02  4.821919590E+02  1.250000000E+02  0.00000E+00  9.000E+00
      21     1     1     2   511   501  8.780127881E+01  1.042985534E+02 -6.699228700E+01  1.519052972E+02  3.693564745E-06  0.00000E+00  9.000E+00
#rwgt            1           1   3.5925618089432551E-002           2      300680           0
</event>
<event>
      5   9999 -3.79277E-02  5.73677E+01 -1.00000E+00  1.35753E-01
      21    -1     0     0   502   501  0.000000000E+00  0.000000000E+00  6.779081065E+02  6.779081065E+02  0.000000000E+00  0.00000E+00  9.000E+00
      21    -1     0     0   512   502  0.000000000E+00  0.000000000E+00 -1.261114851E+02  1.261114851E+02  0.000000000E+00  0.00000E+00  9.000E+00
      25     1     1     2     0     0  1.811028843E+02 -2.634143351E+01  2.956907060E+02  3.695268859E+02  1.250000000E+02  0.00000E+00  9.000E+00
      25     1     1     2     0     0 -1.825648535E+02  8.369047421E+01  2.848980673E+02  3.703051849E+02  1.250000000E+02  0.00000E+00  9.000E+00
      21     1     1     2   512   501  1.461969154E+00 -5.734904069E+01 -2.879215189E+01  6.418752085E+01  1.305872339E-06  0.00000E+00  9.000E+00
#rwgt            1           1  -8.0794723602951174E-002           2      300805           0
</event>
<event>
      5   9999  3.79277E-02  7.35081E+01 -1.00000E+00  1.30154E-01
      21    -1     0     0   502   501  0.000000000E+00  0.000000000E+00  5.241882169E+01  5.241882169E+01  0.000000000E+00  0.00000E+00  9.000E+00
       2    -1     0     0   501     0  0.000000000E+00  0.000000000E+00 -2.863976107E+03  2.863976107E+03  0.000000000E+00  0.00000E+00  9.000E+00
      25     1     1     2     0     0 -7.348046514E+01 -3.296825456E+01 -7.228944270E+01  1.653391910E+02  1.250000000E+02  0.00000E+00  9.000E+00
      25     1     1     2     0     0  6.181738514E+01 -3.960868477E+01 -1.023656729E+03  1.033870561E+03  1.250000000E+02  0.00000E+00  9.000E+00
       2     1     1     2   502     0  1.166308000E+01  7.257693933E+01 -1.715611113E+03  1.717185177E+03  0.000000000E+00  0.00000E+00  9.000E+00
#rwgt            1           1   4.5980533609519231E-002           2      300988           0
</event>
<event>
      5   9999  3.79277E-02  1.75410E+02 -1.00000E+00  1.13762E-01
      21    -1     0     0   502   501  0.000000000E+00  0.000000000E+00  1.794731249E+03  1.794731249E+03  0.000000000E+00  0.00000E+00  9.000E+00
      21    -1     0     0   511   502  0.000000000E+00  0.000000000E+00 -2.815215295E+03  2.815215295E+03  0.000000000E+00  0.00000E+00  9.000E+00
      25     1     1     2     0     0  2.199164579E+02  1.732669616E+02  6.277360981E+02  6.986145556E+02  1.250000000E+02  0.00000E+00  9.000E+00
      25     1     1     2     0     0 -1.423689541E+02 -3.306048577E+02  1.096598485E+03  1.160914178E+03  1.250000000E+02  0.00000E+00  9.000E+00
      21     1     1     2   511   501 -7.754750374E+01  1.573378961E+02 -2.744818629E+03  2.750417811E+03  4.315837288E-05  0.00000E+00  9.000E+00
#rwgt            1           1   5.3337371267537341E-002           2      301186           0
</event>
<event>
      5   9999  3.79277E-02  2.45554E+02 -1.00000E+00  1.08497E-01
      21    -1     0     0   502   501  0.000000000E+00  0.000000000E+00  1.765919207E+02  1.765919207E+02  0.000000000E+00  0.00000E+00  9.000E+00
      21    -1     0     0   501   512  0.000000000E+00  0.000000000E+00 -1.168884025E+03  1.168884025E+03  0.000000000E+00  0.00000E+00  9.000E+00
      25     1     1     2     0     0 -2.061470533E+02 -1.707352650E+02 -4.484930551E+02  5.370457698E+02  1.250000000E+02  0.00000E+00  9.000E+00
      25     1     1     2     0     0  3.213898544E+02 -4.609596254E+01 -2.680446925E+02  4.391915681E+02  1.250000000E+02  0.00000E+00  9.000E+00
      21     1     1     2   502   512 -1.152428010E+02  2.168312275E+02 -2.757543568E+02  3.692386081E+02  6.607249480E-06  0.00000E+00  9.000E+00
#rwgt            1           1  0.10535756204852775                2      301285           0
</event>
<event>
      5   9999 -3.79277E-02  2.10680E+01 -1.00000E+00  1.64526E-01
       2    -1     0     0   502     0  0.000000000E+00  0.000000000E+00  1.122447158E+03  1.122447158E+03  0.000000000E+00  0.00000E+00  9.000E+00
      21    -1     0     0   501   502  0.000000000E+00  0.000000000E+00 -1.029160791E+02  1.029160791E+02  0.000000000E+00  0.00000E+00  9.000E+00
      25     1     1     2     0     0  1.205251042E+02  1.332651957E+02  1.000259441E+02  2.406576460E+02  1.250000000E+02  0.00000E+00  9.000E+00
      25     1     1     2     0     0 -1.415841396E+02 -1.326509460E+02  3.786801208E+02  4.434703777E+02  1.250000000E+02  0.00000E+00  9.000E+00
       2     1     1     2   501     0  2.105903543E+01 -6.142496336E-01  5.408250138E+02  5.412352130E+02  1.078959322E-05  0.00000E+00  9.000E+00
#rwgt            1           1  -8.2749405645991286E-002           2      301361           0
</event>
<event>
      5   9999  3.79277E-02  1.22044E+01 -1.00000E+00  1.86260E-01
      21    -1     0     0   511   501  0.000000000E+00  0.000000000E+00  6.900304339E+02  6.900304339E+02  0.000000000E+00  0.00000E+00  9.000E+00
      21    -1     0     0   501   502  0.000000000E+00  0.000000000E+00 -1.199872747E+02  1.199872747E+02  0.000000000E+00  0.00000E+00  9.000E+00
      25     1     1     2     0     0 -9.444827929E+01  2.026218924E+02  3.353185521E+02  4.219474376E+02  1.250000000E+02  0.00000E+00  9.000E+00
      25     1     1     2     0     0  8.387652505E+01 -1.965238820E+02  1.243602676E+02  2.770331818E+02  1.250000000E+02  0.00000E+00  9.000E+00
      21     1     1     2   511   502  1.057175425E+01 -6.098010373E+00  1.103643396E+02  1.110370892E+02  2.336015456E-06  0.00000E+00  9.000E+00
#rwgt            1           1   2.8742810791944635E-002           2      301608           0
</event>
<event>
      5   9999  3.79277E-02  2.91150E+01 -1.00000E+00  1.53949E-01
      21    -1     0     0   502   512  0.000000000E+00  0.000000000E+00  4.112956187E+02  4.112956187E+02  0.000000000E+00  0.00000E+00  9.000E+00
      21    -1     0     0   501   502  0.000000000E+00  0.000000000E+00 -1.487681778E+02  1.487681778E+02  0.000000000E+00  0.00000E+00  9.000E+00
      25     1     1     2     0     0  1.502616837E+02  2.444888598E+01  1.531683379E+02  2.495232681E+02  1.250000000E+02  0.00000E+00  9.000E+00
      25     1     1     2     0     0 -1.356346817E+02 -4.962298055E+01 -6.460358632E+00  1.911176164E+02  1.250000000E+02  0.00000E+00  9.000E+00
      21     1     1     2   501   512 -1.462700195E+01  2.517409457E+01  1.158194615E+02  1.194229119E+02  1.907348633E-06  0.00000E+00  9.000E+00
#rwgt            1           1   5.7313199732227808E-002           2      301898           0
</event>
<event>
      5   9999  3.79277E-02  1.82220E+02 -1.00000E+00  1.13140E-01
      21    -1     0     0   511   501  0.000000000E+00  0.000000000E+00  4.723249573E+02  4.723249573E+02  0.000000000E+00  0.00000E+00  9.000E+00
      21    -1     0     0   501   502  0.000000000E+00  0.000000000E+00 -3.086226245E+02  3.086226245E+02  0.000000000E+00  0.00000E+00  9.000E+00
      25     1     1     2     0     0 -1.073872058E+02  3.153699572E+01  1.762297559E+01  1.687073304E+02  1.250000000E+02  0.00000E+00  9.000E+00
      25     1     1     2     0     0  1.940017230E+02  1.287815742E+02 -1.195912385E+02  2.900834823E+02  1.250000000E+02  0.00000E+00  9.000E+00
      21     1     1     2   511   502 -8.661451714E+01 -1.603185699E+02  2.656705957E+02  3.221567691E+02  6.607249480E-06  0.00000E+00  9.000E+00
#rwgt            1           1   3.5089697298382808E-002           2      302076           0
</event>
<event>
      5   9999  3.79277E-02  1.06659E+02 -1.00000E+00  1.22582E-01
      21    -1     0     0   502   501  0.000000000E+00  0.000000000E+00  6.638893094E+02  6.638893094E+02  0.000000000E+00  0.00000E+00  9.000E+00
       2    -1     0     0   501     0  0.000000000E+00  0.000000000E+00 -3.882601509E+02  3.882601509E+02  0.000000000E+00  0.00000E+00  9.000E+00
      25     1     1     2     0     0 -2.713651002E+02  8.974360278E+01  5.175516060E+02  6.042992609E+02  1.250000000E+02  0.00000E+00  9.000E+00
      25     1     1     2     0     0  1.653930370E+02 -7.765956277E+01 -4.799467151E+01  2.265267156E+02  1.250000000E+02  0.00000E+00  9.000E+00
       2     1     1     2   502     0  1.059720632E+02 -1.208404002E+01 -1.939277760E+02  2.213234839E+02  5.394796609E-06  0.00000E+00  9.000E+00
#rwgt            1           1   3.7251637922847296E-002           2      302119           0
</event>
<event>
      5   9999  3.79277E-02  1.40223E+01 -1.00000E+00  1.80186E-01
      21    -1     0     0   502   511  0.000000000E+00  0.000000000E+00  1.707955176E+02  1.707955176E+02  0.000000000E+00  0.00000E+00  9.000E+00
      21    -1     0     0   501   502  0.000000000E+00  0.000000000E+00 -4.626392185E+02  4.626392185E+02  0.000000000E+00  0.00000E+00  9.000E+00
      25     1     1     2     0     0 -2.059657078E+02  2.345337839E+01 -4.410260207E+01  2.460527855E+02  1.250000000E+02  0.00000E+00  9.000E+00
      25     1     1     2     0     0  1.919849716E+02 -2.453265108E+01 -2.737677831E+02  3.578182211E+02  1.250000000E+02  0.00000E+00  9.000E+00
      21     1     1     2   501   511  1.398073612E+01  1.079272693E+00  2.602668426E+01  2.956372956E+01  6.743495762E-07  0.00000E+00  9.000E+00
#rwgt            1           1   3.5996905591092150E-002           2      302180           0
</event>
<event>
      5   9999  3.79277E-02  2.28566E+02 -1.00000E+00  1.09577E-01
      21    -1     0     0   512   501  0.000000000E+00  0.000000000E+00  2.331490965E+02  2.331490965E+02  0.000000000E+00  0.00000E+00  9.000E+00
      21    -1     0     0   501   502  0.000000000E+00  0.000000000E+00 -1.455011767E+03  1.455011767E+03  0.000000000E+00  0.00000E+00  9.000E+00
      25     1     1     2     0     0  3.341049956E+01 -1.695396270E+02  2.034284466E+01  2.142400008E+02  1.250000000E+02  0.00000E+00  9.000E+00
      25     1     1     2     0     0 -2.289405076E+02  5.117303751E+01 -1.215004315E+03  1.243741501E+03  1.250000000E+02  0.00000E+00  9.000E+00
      21     1     1     2   512   502  1.955300081E+02  1.183665895E+02 -2.720120090E+01  2.301793624E+02  1.966049969E-06  0.00000E+00  9.000E+00
#rwgt            1           1   4.1028765346743622E-002           2      302416           0
</event>
<event>
      5   9999  3.79277E-02  6.03918E+01 -1.00000E+00  1.34553E-01
      21    -1     0     0   511   501  0.000000000E+00  0.000000000E+00  3.071414786E+02  3.071414786E+02  0.000000000E+00  0.00000E+00  9.000E+00
      21    -1     0     0   501   502  0.000000000E+00  0.000000000E+00 -3.650103246E+02  3.650103246E+02  0.000000000E+00  0.00000E+00  9.000E+00
      25     1     1     2     0     0  2.247794503E+02  6.194186495E+01  1.455634079E+02  3.019541383E+02  1.250000000E+02  0.00000E+00  9.000E+00
      25     1     1     2     0     0 -1.783432499E+02 -2.333042042E+01 -2.169729869E+02  3.083065039E+02  1.250000000E+02  0.00000E+00  9.000E+00
      21     1     1     2   511   502 -4.643620044E+01 -3.861144452E+01  1.354073295E+01  6.189116099E+01  7.152557373E-07  0.00000E+00  9.000E+00
#rwgt            1           1   4.0111605869582491E-002           2      302526           0
</event>
<event>
      5   9999  3.79277E-02  8.98994E+01 -1.00000E+00  1.25944E-01
       3    -1     0     0   502     0  0.000000000E+00  0.000000000E+00  2.186232993E+02  2.186232993E+02  0.000000000E+00  0.00000E+00  9.000E+00
      21    -1     0     0   501   502  0.000000000E+00  0.000000000E+00 -4.701296923E+02  4.701296923E+02  0.000000000E+00  0.00000E+00  9.000E+00
      25     1     1     2     0     0 -1.339189214E+02 -8.980192921E+01 -2.133723103E+02  2.952141711E+02  1.250000000E+02  0.00000E+00  9.000E+00
      25     1     1     2     0     0  1.619847247E+02  1.752080511E+02 -9.674677874E+01  2.862199354E+02  1.250000000E+02  0.00000E+00  9.000E+00
       3     1     1     2   501     0 -2.806580323E+01 -8.540612192E+01  5.861269597E+01  1.073188851E+02  9.536743164E-07  0.00000E+00  9.000E+00
#rwgt            1           1   3.5512485347292760E-002           2      302662           0
</event>
<event>
      5   9999  3.79277E-02  2.02188E+02 -1.00000E+00  1.11476E-01
      21    -1     0     0   502   501  0.000000000E+00  0.000000000E+00  7.193170274E+01  7.193170274E+01  0.000000000E+00  0.00000E+00  9.000E+00
      21    -1     0     0   501   511  0.000000000E+00  0.000000000E+00 -1.525341765E+03  1.525341765E+03  0.000000000E+00  0.00000E+00  9.000E+00
      25     1     1     2     0     0  8.181032489E+01 -1.325638779E+02 -1.807808199E+02  2.693934220E+02  1.250000000E+02  0.00000E+00  9.000E+00
      25     1     1     2     0     0  1.054393796E+02  5.629152314E+01 -4.928388917E+02  5.223039072E+02  1.250000000E+02  0.00000E+00  9.000E+00
      21     1     1     2   502   511 -1.872497044E+02  7.627235476E+01 -7.797903509E+02  8.055761387E+02  1.525878906E-05  0.00000E+00  9.000E+00
#rwgt            1           1   3.7678142880976200E-002           2      302742           0
</event>
<event>
      5   9999  3.79277E-02  1.33000E+02 -1.00000E+00  1.18502E-01
      21    -1     0     0   502   501  0.000000000E+00  0.000000000E+00  7.971063073E+01  7.971063073E+01  0.000000000E+00  0.00000E+00  9.000E+00
       1    -1     0     0   501     0  0.000000000E+00  0.000000000E+00 -2.157650666E+03  2.157650666E+03  0.000000000E+00  0.00000E+00  9.000E+00
      25     1     1     2     0     0 -7.903656287E+01  9.497256495E+01 -4.469905821E+02  4.803042232E+02  1.250000000E+02  0.00000E+00  9.000E+00
      25     1     1     2     0     0  1.789746916E+02 -7.215588957E+00 -1.607174500E+03  1.621949099E+03  1.250000000E+02  0.00000E+00  9.000E+00
       1     1     1     2   502     0 -9.993812872E+01 -8.775697599E+01 -2.377495282E+01  1.351079746E+02  1.752011592E-06  0.00000E+00  9.000E+00
#rwgt            2          12   4.5737407210488286E-006           2      302809           0
</event>
<event>
      5   9999 -6.70317E-02  1.67019E+01 -1.00000E+00  1.73096E-01
      21    -1     0     0   511   501  0.000000000E+00  0.000000000E+00  2.356154038E+02  2.356154038E+02  0.000000000E+00  0.00000E+00  9.000E+00
      21    -1     0     0   501   502  0.000000000E+00  0.000000000E+00 -7.785334770E+02  7.785334770E+02  0.000000000E+00  0.00000E+00  9.000E+00
      25     1     1     2     0     0 -3.869927430E+02 -4.223976798E+01 -3.251757481E+02  5.224096556E+02  1.250000000E+02  0.00000E+00  9.000E+00
      25     1     1     2     0     0  4.032605374E+02  3.845647356E+01 -2.126287937E+02  4.742720373E+02  1.250000000E+02  0.00000E+00  9.000E+00
      21     1     1     2   511   502 -1.626779439E+01  3.783294414E+00 -5.113531332E+00  1.746718791E+01  1.192092896E-07  0.00000E+00  9.000E+00
#rwgt            1           1  -1.0566386878110794                2      302873           0
</event>
<event>
      5   9999  3.79277E-02  4.64159E+01 -1.00000E+00  1.40944E-01
      21    -1     0     0   502   501  0.000000000E+00  0.000000000E+00  5.157366461E+02  5.157366461E+02  0.000000000E+00  0.00000E+00  9.000E+00
      21    -1     0     0   501   512  0.000000000E+00  0.000000000E+00 -1.593754723E+03  1.593754723E+03  0.000000000E+00  0.00000E+00  9.000E+00
      25     1     1     2     0     0  2.285354936E+02 -2.113113511E+02  9.287868346E+01  3.480408148E+02  1.250000000E+02  0.00000E+00  9.000E+00
      25     1     1     2     0     0 -2.518933369E+02  1.712008768E+02  2.029974604E+02  3.867724943E+02  1.250000000E+02  0.00000E+00  9.000E+00
      21     1     1     2   502   512  2.335784340E+01  4.011047425E+01 -1.373894221E+03  1.374678060E+03  0.000000000E+00  0.00000E+00  9.000E+00
#rwgt            1           1   3.2603471644703542E-002           2      303202           0
</event>
<event>
      5   9999  3.79277E-02  5.48460E+01 -1.00000E+00  1.36821E-01
      21    -1     0     0   502   501  0.000000000E+00  0.000000000E+00  1.114261308E+03  1.114261308E+03  0.000000000E+00  0.00000E+00  9.000E+00
      21    -1     0     0   501   511  0.000000000E+00  0.000000000E+00 -1.331716033E+02  1.331716033E+02  0.000000000E+00  0.00000E+00  9.000E+00
      25     1     1     2     0     0 -5.784180625E+01  1.313217994E+02  3.970842449E+01  1.944038285E+02  1.250000000E+02  0.00000E+00  9.000E+00
      25     1     1     2     0     0  5.105365972E+01 -1.857461257E+02  9.659939611E+02  9.929136077E+02  1.250000000E+02  0.00000E+00  9.000E+00
      21     1     1     2   502   511  6.788146526E+00  5.442432621E+01 -2.461268134E+01  6.011547471E+01  3.371747881E-07  0.00000E+00  9.000E+00
#rwgt            1           1   3.2244241291150715E-002           2      303370           0
</event>
<event>
      5   9999  3.79277E-02  3.07693E+01 -1.00000E+00  1.52280E-01
      21    -1     0     0   502   512  0.000000000E+00  0.000000000E+00  2.487922178E+02  2.487922178E+02  0.000000000E+00  0.00000E+00  9.000E+00
      21    -1     0     0   501   502  0.000000000E+00  0.000000000E+00 -2.748094772E+02  2.748094772E+02  0.000000000E+00  0.00000E+00  9.000E+00
      25     1     1     2     0     0  9.931489300E+01  1.534037835E+02 -7.433621965E+01  2.335530824E+02  1.250000000E+02  0.00000E+00  9.000E+00
      25     1     1     2     0     0 -6.899354931E+01 -1.481722715E+02 -2.809126442E+01  2.076758316E+02  1.250000000E+02  0.00000E+00  9.000E+00
      21     1     1     2   501   512 -3.032134369E+01 -5.231511978E+00  7.641022470E+01  8.237278094E+01  9.536743164E-07  0.00000E+00  9.000E+00
#rwgt            1           1   4.7777309322849910E-002           2      303464           0
</event>
<event>
      5   9999  3.79277E-02  1.84667E+01 -1.00000E+00  1.69279E-01
      21    -1     0     0   502   501  0.000000000E+00  0.000000000E+00  9.139266337E+02  9.139266337E+02  0.000000000E+00  0.00000E+00  9.000E+00
      21    -1     0     0   501   511  0.000000000E+00  0.000000000E+00 -2.328217845E+02  2.328217845E+02  0.000000000E+00  0.00000E+00  9.000E+00
      25     1     1     2     0     0  5.825909524E+01  3.148760396E+01 -5.380277563E+01  1.513450695E+02  1.250000000E+02  0.00000E+00  9.000E+00
      25     1     1     2     0     0 -5.135152428E+01 -1.436144880E+01  8.591320463E+02  8.698138325E+02  1.250000000E+02  0.00000E+00  9.000E+00
      21     1     1     2   502   511 -6.907570964E+00 -1.712615516E+01 -1.242244214E+02  1.255895163E+02  1.907348633E-06  0.00000E+00  9.000E+00
#rwgt            1           1   3.3368094334770733E-002           2      303570           0
</event>
<event>
      5   9999 -3.79277E-02  2.76271E+01 -1.00000E+00  1.55568E-01
      21    -1     0     0   502   501  0.000000000E+00  0.000000000E+00  9.899642851E+01  9.899642851E+01  0.000000000E+00  0.00000E+00  9.000E+00
      21    -1     0     0   501   512  0.000000000E+00  0.000000000E+00 -3.466571696E+02  3.466571696E+02  0.000000000E+00  0.00000E+00  9.000E+00
      25     1     1     2     0     0 -3.208508038E+00 -7.827826515E+01 -1.759340094E+02  2.295986868E+02  1.250000000E+02  0.00000E+00  9.000E+00
      25     1     1     2     0     0  2.697634800E+01  9.236175228E+01 -2.213937328E+01  1.592908299E+02  1.250000000E+02  0.00000E+00  9.000E+00
      21     1     1     2   502   512 -2.376783996E+01 -1.408348712E+01 -4.958735842E+01  5.676408144E+01  6.743495762E-07  0.00000E+00  9.000E+00
#rwgt            1           1  -1.4188753594367519E-002           2      303713           0
</event>
<event>
      5   9999  3.79277E-02  1.21454E+02 -1.00000E+00  1.20147E-01
       2    -1     0     0   502     0  0.000000000E+00  0.000000000E+00  2.852150119E+03  2.852150119E+03  0.000000000E+00  0.00000E+00  9.000E+00
      21    -1     0     0   501   502  0.000000000E+00  0.000000000E+00 -2.867497803E+02  2.867497803E+02  0.000000000E+00  0.00000E+00  9.000E+00
      25     1     1     2     0     0 -5.897518796E+01  1.686346230E+02  4.739647586E+00  2.180898281E+02  1.250000000E+02  0.00000E+00  9.000E+00
      25     1     1     2     0     0 -5.774518215E+01 -2.022129830E+02 -9.495137403E+01  2.624221027E+02  1.250000000E+02  0.00000E+00  9.000E+00
       2     1     1     2   501     0  1.167203701E+02  3.357835995E+01  2.655612065E+03  2.658387969E+03  0.000000000E+00  0.00000E+00  9.000E+00
#rwgt            1           1   3.9691390899366130E-002           2      304033           0
</event>
<event>
      5   9999  3.79277E-02  2.71763E+01 -1.00000E+00  1.56083E-01
      21    -1     0     0   502   501  0.000000000E+00  0.000000000E+00  4.168110940E+02  4.168110940E+02  0.000000000E+00  0.00000E+00  9.000E+00
      21    -1     0     0   501   511  0.000000000E+00  0.000000000E+00 -1.459971200E+02  1.459971200E+02  0.000000000E+00  0.00000E+00  9.000E+00
      25     1     1     2     0     0  5.504122779E+01  9.283313414E+01 -4.701353361E+01  1.717055616E+02  1.250000000E+02  0.00000E+00  9.000E+00
      25     1     1     2     0     0 -6.044540620E+01 -6.619956277E+01  3.278462869E+02  3.621383950E+02  1.250000000E+02  0.00000E+00  9.000E+00
      21     1     1     2   502   511  5.404178420E+00 -2.663357137E+01 -1.001877936E+01  2.896425743E+01  2.665600750E-07  0.00000E+00  9.000E+00
#rwgt            1           1   1.1268213162585500E-002           2      304228           0
</event>
<event>
      5   9999  3.79277E-02  2.34367E+02 -1.00000E+00  1.09197E-01
      21    -1     0     0   502   512  0.000000000E+00  0.000000000E+00  6.328489801E+02  6.328489801E+02  0.000000000E+00  0.00000E+00  9.000E+00
      21    -1     0     0   501   502  0.000000000E+00  0.000000000E+00 -1.196338696E+03  1.196338696E+03  0.000000000E+00  0.00000E+00  9.000E+00
      25     1     1     2     0     0 -5.543091388E+01 -9.375284638E+01 -1.294745254E+02  2.103588247E+02  1.250000000E+02  0.00000E+00  9.000E+00
      25     1     1     2     0     0 -1.557235725E+02  1.954457279E+02 -9.829837264E+02  1.021925080E+03  1.250000000E+02  0.00000E+00  9.000E+00
      21     1     1     2   501   512  2.111544864E+02 -1.016928816E+02  5.489685355E+02  5.969037713E+02  1.525878906E-05  0.00000E+00  9.000E+00
#rwgt            1           1   3.3802607588911619E-002           2      304413           0
</event>
<event>
      5   9999  3.79277E-02  8.46789E+01 -1.00000E+00  1.27166E-01
      21    -1     0     0   502   501  0.000000000E+00  0.000000000E+00  5.404217730E+01  5.404217730E+01  0.000000000E+00  0.00000E+00  9.000E+00
       2    -1     0     0   501     0  0.000000000E+00  0.000000000E+00 -2.151575280E+03  2.151575280E+03  0.000000000E+00  0.00000E+00  9.000E+00
      25     1     1     2     0     0 -1.060760997E+01  1.448590516E+02 -3.884797032E+02  4.331721898E+02  1.250000000E+02  0.00000E+00  9.000E+00
      25     1     1     2     0     0  1.817511231E+00 -6.063759649E+01 -1.273479184E+02  1.884747033E+02  1.250000000E+02  0.00000E+00  9.000E+00
       2     1     1     2   502     0  8.790098738E+00 -8.422145515E+01 -1.581705481E+03  1.583970564E+03  2.157918644E-05  0.00000E+00  9.000E+00
#rwgt            1           1   4.1692118186292426E-002           2      304443           0
</event>
<event>
      5   9999  3.79277E-02  1.74249E+01 -1.00000E+00  1.71464E-01
      21    -1     0     0   502   511  0.000000000E+00  0.000000000E+00  2.209337150E+02  2.209337150E+02  0.000000000E+00  0.00000E+00  9.000E+00
      21    -1     0     0   501   502  0.000000000E+00  0.000000000E+00 -5.492451494E+02  5.492451494E+02  0.000000000E+00  0.00000E+00  9.000E+00
      25     1     1     2     0     0  1.114458200E+02  3.303612252E+01 -3.508560985E+02  3.901750351E+02  1.250000000E+02  0.00000E+00  9.000E+00
      25     1     1     2     0     0 -1.245470881E+02 -4.452447450E+01 -1.317857278E+02  2.246928660E+02  1.250000000E+02  0.00000E+00  9.000E+00
      21     1     1     2   501   511  1.310126818E+01  1.148835198E+01  1.543303919E+02  1.553109633E+02  1.907348633E-06  0.00000E+00  9.000E+00
#rwgt            1           1   3.2676439708530645E-002           2      304495           0
</event>
<event>
      5   9999  3.79277E-02  1.31620E+01 -1.00000E+00  1.82904E-01
      21    -1     0     0   512   501  0.000000000E+00  0.000000000E+00  2.781233823E+02  2.781233823E+02  0.000000000E+00  0.00000E+00  9.000E+00
      21    -1     0     0   501   502  0.000000000E+00  0.000000000E+00 -7.415034397E+02  7.415034397E+02  0.000000000E+00  0.00000E+00  9.000E+00
      25     1     1     2     0     0  3.201549106E+02 -7.575223481E+01 -5.281714131E+02  6.346870169E+02  1.250000000E+02  0.00000E+00  9.000E+00
      25     1     1     2     0     0 -3.128141055E+02  8.667699139E+01  3.164220313E+01  3.492732375E+02  1.250000000E+02  0.00000E+00  9.000E+00
      21     1     1     2   512   502 -7.340805170E+00 -1.092475659E+01  3.314915250E+01  3.566656752E+01  1.066240300E-06  0.00000E+00  9.000E+00
#rwgt            1           1   3.0641130535975166E-002           2      304627           0
</event>
<event>
      5   9999  3.79277E-02  1.59785E+02 -1.00000E+00  1.15316E-01
       1    -1     0     0   502     0  0.000000000E+00  0.000000000E+00  3.611363763E+02  3.611363763E+02  0.000000000E+00  0.00000E+00  9.000E+00
      21    -1     0     0   501   502  0.000000000E+00  0.000000000E+00 -1.053113544E+03  1.053113544E+03  0.000000000E+00  0.00000E+00  9.000E+00
      25     1     1     2     0     0  2.589324394E+02  7.667776863E+01 -7.584514847E+02  8.147386962E+02  1.250000000E+02  0.00000E+00  9.000E+00
      25     1     1     2     0     0 -1.082125465E+02 -1.297317893E+02 -1.991527000E+02  2.895290837E+02  1.250000000E+02  0.00000E+00  9.000E+00
       1     1     1     2   501     0 -1.507198929E+02  5.305402068E+01  2.656270170E+02  3.099821404E+02  6.607249480E-06  0.00000E+00  9.000E+00
#rwgt            1           1   4.0929074422407619E-002           2      304998           0
</event>
<event>
      5   9999  3.79277E-02  5.52651E+01 -1.00000E+00  1.36639E-01
      21    -1     0     0   502   501  0.000000000E+00  0.000000000E+00  2.873566286E+02  2.873566286E+02  0.000000000E+00  0.00000E+00  9.000E+00
      21    -1     0     0   501   511  0.000000000E+00  0.000000000E+00 -2.627386277E+02  2.627386277E+02  0.000000000E+00  0.00000E+00  9.000E+00
      25     1     1     2     0     0 -1.345210241E+02 -6.809802360E+01  8.664777614E+00  1.960441917E+02  1.250000000E+02  0.00000E+00  9.000E+00
      25     1     1     2     0     0  1.308010406E+02  1.295829138E+01  1.327920501E+02  2.248011524E+02  1.250000000E+02  0.00000E+00  9.000E+00
      21     1     1     2   502   511  3.719983535E+00  5.513973222E+01 -1.168388268E+02  1.292499122E+02  2.697398305E-06  0.00000E+00  9.000E+00
#rwgt            1           1   4.4096802476660125E-002           2      305061           0
</event>
<event>
      5   9999  3.79277E-02  4.22639E+01 -1.00000E+00  1.43373E-01
      21    -1     0     0   502   512  0.000000000E+00  0.000000000E+00  4.145023585E+02  4.145023585E+02  0.000000000E+00  0.00000E+00  9.000E+00
      21    -1     0     0   501   502  0.000000000E+00  0.000000000E+00 -6.783044444E+02  6.783044444E+02  0.000000000E+00  0.00000E+00  9.000E+00
      25     1     1     2     0     0 -2.871214730E+02  7.024752991E+00 -1.246433067E+02  3.371187348E+02  1.250000000E+02  0.00000E+00  9.000E+00
      25     1     1     2     0     0  3.291484499E+02 -2.555584556E+00 -3.759928515E+02  5.151124707E+02  1.250000000E+02  0.00000E+00  9.000E+00
      21     1     1     2   501   512 -4.202697689E+01 -4.469168435E+00  2.368340723E+02  2.405755974E+02  2.697398305E-06  0.00000E+00  9.000E+00
#rwgt            1           1   2.7466725738330779E-002           2      305243           0
</event>
<event>
      5   9999  3.79277E-02  1.46355E+02 -1.00000E+00  1.16819E-01
      21    -1     0     0   502   511  0.000000000E+00  0.000000000E+00  8.176039155E+02  8.176039155E+02  0.000000000E+00  0.00000E+00  9.000E+00
      21    -1     0     0   501   502  0.000000000E+00  0.000000000E+00 -6.259713244E+02  6.259713244E+02  0.000000000E+00  0.00000E+00  9.000E+00
      25     1     1     2     0     0 -3.380588368E+02  2.863654430E+02  1.168243002E+01  4.604893302E+02  1.250000000E+02  0.00000E+00  9.000E+00
      25     1     1     2     0     0  2.178336555E+02 -3.698269460E+02 -2.615669066E+02  5.179437402E+02  1.250000000E+02  0.00000E+00  9.000E+00
      21     1     1     2   501   511  1.202251814E+02  8.346150302E+01  4.415170676E+02  4.651421694E+02  7.629394531E-06  0.00000E+00  9.000E+00
#rwgt            1           1  0.14871307761387800                2      305555           0
</event>
<event>
      5   9999  3.79277E-02  6.63437E+01 -1.00000E+00  1.32412E-01
      21    -1     0     0   502   501  0.000000000E+00  0.000000000E+00  1.113004929E+02  1.113004929E+02  0.000000000E+00  0.00000E+00  9.000E+00
      21    -1     0     0   512   502  0.000000000E+00  0.000000000E+00 -5.341807560E+02  5.341807560E+02  0.000000000E+00  0.00000E+00  9.000E+00
      25     1     1     2     0     0 -9.280847428E+01 -7.260090655E+01 -1.251797062E+01  1.722382191E+02  1.250000000E+02  0.00000E+00  9.000E+00
      25     1     1     2     0     0  3.620119308E+01  1.072001540E+02 -2.767160537E+02  3.240357600E+02  1.250000000E+02  0.00000E+00  9.000E+00
      21     1     1     2   512   501  5.660728120E+01 -3.459924748E+01 -1.336462388E+02  1.492072698E+02  1.907348633E-06  0.00000E+00  9.000E+00
#rwgt            1           1   4.1429314528723532E-002           2      305796           0
</event>
<event>
      5   9999  3.79277E-02  1.43194E+02 -1.00000E+00  1.17199E-01
      21    -1     0     0   502   501  0.000000000E+00  0.000000000E+00  1.156564160E+03  1.156564160E+03  0.000000000E+00  0.00000E+00  9.000E+00
      21    -1     0     0   501   511  0.000000000E+00  0.000000000E+00 -8.857282341E+01  8.857282341E+01  0.000000000E+00  0.00000E+00  9.000E+00
      25     1     1     2     0     0 -2.102716654E+02 -1.175966971E+02  6.265317166E+02  6.827958321E+02  1.250000000E+02  0.00000E+00  9.000E+00
      25     1     1     2     0     0  1.051684213E+02  2.034603116E+01  3.641047345E+02  3.995893086E+02  1.250000000E+02  0.00000E+00  9.000E+00
      21     1     1     2   502   511  1.051032441E+02  9.725066598E+01  7.735488514E+01  1.627518424E+02  2.697398305E-06  0.00000E+00  9.000E+00
#rwgt            2          11   1.9982017117079025E-003           2      305913           0
</event>
<event>
      5   9999  3.79277E-02  6.38471E+01 -1.00000E+00  1.33277E-01
      21    -1     0     0   502   501  0.000000000E+00  0.000000000E+00  3.112671304E+02  3.112671304E+02  0.000000000E+00  0.00000E+00  9.000E+00
      21    -1     0     0   501   512  0.000000000E+00  0.000000000E+00 -8.896878587E+02  8.896878587E+02  0.000000000E+00  0.00000E+00  9.000E+00
      25     1     1     2     0     0  4.250934393E+01  1.230625493E+02  7.082740251E+01  1.938890309E+02  1.250000000E+02  0.00000E+00  9.000E+00
      25     1     1     2     0     0 -5.223688575E+01 -5.996084275E+01  1.467393152E+02  2.085219929E+02  1.250000000E+02  0.00000E+00  9.000E+00
      21     1     1     2   502   512  9.727541818E+00 -6.310170653E+01 -7.959874460E+02  7.985439653E+02  1.525878906E-05  0.00000E+00  9.000E+00
#rwgt            1           1   2.3386381381113489E-002           2      305933           0
</event>
<event>
      5   9999  3.79277E-02  7.47674E+00 -1.00000E+00  2.11587E-01
      21    -1     0     0   502   501  0.000000000E+00  0.000000000E+00  3.261101984E+02  3.261101984E+02  0.000000000E+00  0.00000E+00  9.000E+00
      21    -1     0     0   501   511  0.000000000E+00  0.000000000E+00 -4.174674142E+02  4.174674142E+02  0.000000000E+00  0.00000E+00  9.000E+00
      25     1     1     2     0     0 -7.575662953E-01  1.189047308E+02 -3.680539438E+02  4.064819977E+02  1.250000000E+02  0.00000E+00  9.000E+00
      25     1     1     2     0     0  8.114710143E+00 -1.202366793E+02  2.795578745E+02  3.290901286E+02  1.250000000E+02  0.00000E+00  9.000E+00
      21     1     1     2   502   511 -7.357143848E+00  1.331948447E+00 -2.861146523E+00  8.005486349E+00  5.960464478E-08  0.00000E+00  9.000E+00
#rwgt            1           1   3.8872955088270607E-002           2      306011           0
</event>
<event>
      5   9999  3.79277E-02  1.95493E+01 -1.00000E+00  1.67190E-01
      21    -1     0     0   502   501  0.000000000E+00  0.000000000E+00  1.699873181E+02  1.699873181E+02  0.000000000E+00  0.00000E+00  9.000E+00
      21    -1     0     0   501   512  0.000000000E+00  0.000000000E+00 -3.628703646E+02  3.628703646E+02  0.000000000E+00  0.00000E+00  9.000E+00
      25     1     1     2     0     0 -1.647431651E+02 -8.022659690E+01 -4.125790651E+01  2.256187761E+02  1.250000000E+02  0.00000E+00  9.000E+00
      25     1     1     2     0     0  1.842917112E+02  8.005468334E+01 -1.093880309E+02  2.606970050E+02  1.250000000E+02  0.00000E+00  9.000E+00
      21     1     1     2   502   512 -1.954854608E+01  1.719135591E-01 -4.223710918E+01  4.654190155E+01  6.743495762E-07  0.00000E+00  9.000E+00
#rwgt            1           1   2.8772278009035986E-002           2      306468           0
</event>
<event>
      5   9999  3.79277E-02  5.13262E+01 -1.00000E+00  1.38430E-01
      21    -1     0     0   511   501  0.000000000E+00  0.000000000E+00  5.209719634E+02  5.209719634E+02  0.000000000E+00  0.00000E+00  9.000E+00
      21    -1     0     0   501   502  0.000000000E+00  0.000000000E+00 -2.643649063E+02  2.643649063E+02  0.000000000E+00  0.00000E+00  9.000E+00
      25     1     1     2     0     0 -1.223844180E+02 -9.856395518E+01  1.396686782E+02  2.445917797E+02  1.250000000E+02  0.00000E+00  9.000E+00
      25     1     1     2     0     0  1.604842986E+02  6.417242754E+01 -1.552117800E+02  2.637972843E+02  1.250000000E+02  0.00000E+00  9.000E+00
      21     1     1     2   511   502 -3.809988063E+01  3.439152764E+01  2.721501589E+02  2.769478057E+02  3.814697266E-06  0.00000E+00  9.000E+00
#rwgt            1           1   4.7435271640080275E-002           2      306650           0
</event>
<event>
      5   9999 -3.79277E-02  7.30608E+01 -1.00000E+00  1.30286E-01
      21    -1     0     0   502   501  0.000000000E+00  0.000000000E+00  1.967539039E+02  1.967539039E+02  0.000000000E+00  0.00000E+00  9.000E+00
       1    -1     0     0   501     0  0.000000000E+00  0.000000000E+00 -8.209189483E+02  8.209189483E+02  0.000000000E+00  0.00000E+00  9.000E+00
      25     1     1     2     0     0 -7.255442483E+00 -1.195229403E+02  2.811903804E+00  1.731221578E+02  1.250000000E+02  0.00000E+00  9.000E+00
      25     1     1     2     0     0 -4.202782235E+01  6.558742979E+01  5.607755801E+01  1.575999407E+02  1.250000000E+02  0.00000E+00  9.000E+00
       1     1     1     2   502     0  4.928326483E+01  5.393551055E+01 -6.830545062E+02  6.869507536E+02  1.078959322E-05  0.00000E+00  9.000E+00
#rwgt            1           1 -0.30461653459556004                2      306833           0
</event>
<event>
      5   9999  3.79277E-02  1.10807E+02 -1.00000E+00  1.21856E-01
      21    -1     0     0   511   501  0.000000000E+00  0.000000000E+00  2.142418053E+02  2.142418053E+02  0.000000000E+00  0.00000E+00  9.000E+00
      21    -1     0     0   501   502  0.000000000E+00  0.000000000E+00 -5.730834095E+02  5.730834095E+02  0.000000000E+00  0.00000E+00  9.000E+00
      25     1     1     2     0     0 -1.563507982E+02 -1.161648935E+02 -1.477535332E+01  2.319119782E+02  1.250000000E+02  0.00000E+00  9.000E+00
      25     1     1     2     0     0  2.502802439E+02  5.738215088E+01 -3.406923719E+02  4.445550629E+02  1.250000000E+02  0.00000E+00  9.000E+00
      21     1     1     2   511   502 -9.392944567E+01  5.878274263E+01 -3.373878998E+00  1.108581736E+02  2.403109670E-06  0.00000E+00  9.000E+00
#rwgt            1           1  0.14487313649481592                2      306951           0
</event>
<event>
      5   9999  3.79277E-02  8.44235E+01 -1.00000E+00  1.27228E-01
       1    -1     0     0   502     0  0.000000000E+00  0.000000000E+00  2.489642952E+02  2.489642952E+02  0.000000000E+00  0.00000E+00  9.000E+00
      21    -1     0     0   501   502  0.000000000E+00  0.000000000E+00 -3.874350804E+02  3.874350804E+02  0.000000000E+00  0.00000E+00  9.000E+00
      25     1     1     2     0     0 -6.858303004E+01 -4.834692000E+01  3.998472058E+01  1.557717387E+02  1.250000000E+02  0.00000E+00  9.000E+00
      25     1     1     2     0     0  5.454990664E+01  1.315959681E+02 -2.864994913E+02  3.435114986E+02  1.250000000E+02  0.00000E+00  9.000E+00
       1     1     1     2   501     0  1.403312340E+01 -8.324904809E+01  1.080439856E+02  1.371161383E+02  0.000000000E+00  0.00000E+00  9.000E+00
#rwgt            1           1   5.1459813380136180E-002           2      307032           0
</event>
<event>
      5   9999  3.79277E-02  9.69481E+00 -1.00000E+00  1.97326E-01
      21    -1     0     0   502   501  0.000000000E+00  0.000000000E+00  2.140644918E+03  2.140644918E+03  0.000000000E+00  0.00000E+00  9.000E+00
      21    -1     0     0   511   502  0.000000000E+00  0.000000000E+00 -2.226032660E+01  2.226032660E+01  0.000000000E+00  0.00000E+00  9.000E+00
      25     1     1     2     0     0  1.293079726E+02 -3.052968222E+01  1.192799279E+03  1.206668029E+03  1.250000000E+02  0.00000E+00  9.000E+00
      25     1     1     2     0     0 -1.363140250E+02  3.723077569E+01  9.273820071E+02  9.463773197E+02  1.250000000E+02  0.00000E+00  9.000E+00
      21     1     1     2   511   501  7.006052456E+00 -6.701093471E+00 -1.796694825E+00  9.859895385E+00  1.429269172E-07  0.00000E+00  9.000E+00
#rwgt            1           1   7.6621073807306248E-002           2      307103           0
</event>
<event>
      5   9999 -3.79277E-02  1.86631E+01 -1.00000E+00  1.68887E-01
      21    -1     0     0   502   512  0.000000000E+00  0.000000000E+00  2.406225077E+02  2.406225077E+02  0.000000000E+00  0.00000E+00  9.000E+00
      21    -1     0     0   501   502  0.000000000E+00  0.000000000E+00 -2.548438696E+02  2.548438696E+02  0.000000000E+00  0.00000E+00  9.000E+00
      25     1     1     2     0     0  2.525287515E+01  1.877880216E+02 -4.749443605E+01  2.319111257E+02  1.250000000E+02  0.00000E+00  9.000E+00
      25     1     1     2     0     0 -2.633692173E+01 -2.064196338E+02  2.981384334E+01  2.445742504E+02  1.250000000E+02  0.00000E+00  9.000E+00
      21     1     1     2   501   512  1.084046572E+00  1.863161223E+01  3.459230851E+00  1.898100128E+01  3.625608999E-07  0.00000E+00  9.000E+00
#rwgt            1           1 -0.28748987486591793                2      307350           0
</event>
<event>
      5   9999  3.79277E-02  4.68042E+01 -1.00000E+00  1.40732E-01
       1    -1     0     0   502     0  0.000000000E+00  0.000000000E+00  1.116050545E+03  1.116050545E+03  0.000000000E+00  0.00000E+00  9.000E+00
      21    -1     0     0   501   502  0.000000000E+00  0.000000000E+00 -8.383228175E+01  8.383228175E+01  0.000000000E+00  0.00000E+00  9.000E+00
      25     1     1     2     0     0  3.368322052E+01 -1.172250473E+02  2.799502404E+02  3.299597069E+02  1.250000000E+02  0.00000E+00  9.000E+00
      25     1     1     2     0     0 -8.046977596E+01  1.159406036E+02  9.521877128E+01  2.112089553E+02  1.250000000E+02  0.00000E+00  9.000E+00
       1     1     1     2   501     0  4.678655544E+01  1.284443697E+00  6.570492515E+02  6.587141645E+02  7.629394531E-06  0.00000E+00  9.000E+00
#rwgt            1           1   4.1881996119931181E-002           2      307665           0
</event>
<event>
      5   9999  3.79277E-02  2.64065E+01 -1.00000E+00  1.56991E-01
      21    -1     0     0   502   501  0.000000000E+00  0.000000000E+00  3.556933146E+01  3.556933146E+01  0.000000000E+00  0.00000E+00  9.000E+00
      21    -1     0     0   501   511  0.000000000E+00  0.000000000E+00 -1.453618500E+03  1.453618500E+03  0.000000000E+00  0.00000E+00  9.000E+00
      25     1     1     2     0     0  1.607450740E+02  7.988430475E+01 -5.807754433E+02  6.206009962E+02  1.250000000E+02  0.00000E+00  9.000E+00
      25     1     1     2     0     0 -1.524826729E+02 -5.480371725E+01 -7.480748859E+02  7.755613760E+02  1.250000000E+02  0.00000E+00  9.000E+00
      21     1     1     2   502   511 -8.262401094E+00 -2.508058750E+01 -8.919883976E+01  9.302545972E+01  1.651812370E-06  0.00000E+00  9.000E+00
#rwgt            1           1   7.0263077595932128E-003           2      307790           0
</event>
<event>
      5   9999  3.79277E-02  3.20031E+01 -1.00000E+00  1.51115E-01
       2    -1     0     0   502     0  0.000000000E+00  0.000000000E+00  1.580059263E+03  1.580059263E+03  0.000000000E+00  0.00000E+00  9.000E+00
      21    -1     0     0   501   502  0.000000000E+00  0.000000000E+00 -6.452119276E+01  6.452119276E+01  0.000000000E+00  0.00000E+00  9.000E+00
      25     1     1     2     0     0 -1.335664295E+01  1.093297257E+02  4.939804589E+02  5.213185999E+02  1.250000000E+02  0.00000E+00  9.000E+00
      25     1     1     2     0     0  2.878222591E+01 -1.373698637E+02  1.240724457E+02  2.252062782E+02  1.250000000E+02  0.00000E+00  9.000E+00
       2     1     1     2   501     0 -1.542558295E+01  2.804013804E+01  8.974851657E+02  8.980555777E+02  1.525878906E-05  0.00000E+00  9.000E+00
#rwgt            1           1   3.4815446391774238E-002           2      308094           0
</event>
<event>
      5   9999  3.79277E-02  4.33591E+01 -1.00000E+00  1.42701E-01
      21    -1     0     0   502   501  0.000000000E+00  0.000000000E+00  1.039653668E+03  1.039653668E+03  0.000000000E+00  0.00000E+00  9.000E+00
      21    -1     0     0   511   502  0.000000000E+00  0.000000000E+00 -1.487773722E+02  1.487773722E+02  0.000000000E+00  0.00000E+00  9.000E+00
      25     1     1     2     0     0  2.448347940E+02 -1.480291233E+02  5.160687707E+02  6.031655442E+02  1.250000000E+02  0.00000E+00  9.000E+00
      25     1     1     2     0     0 -2.293032280E+02  1.075472562E+02  4.303796098E+02  5.147795559E+02  1.250000000E+02  0.00000E+00  9.000E+00
      21     1     1     2   511   501 -1.553156602E+01  4.048186717E+01 -5.557208479E+01  7.048593988E+01  0.000000000E+00  0.00000E+00  9.000E+00
#rwgt            1           1   2.4625806001056735E-002           2      308240           0
</event>
<event>
      5   9999  3.79277E-02  2.75685E+01 -1.00000E+00  1.55634E-01
      21    -1     0     0   502   501  0.000000000E+00  0.000000000E+00  4.996063210E+02  4.996063210E+02  0.000000000E+00  0.00000E+00  9.000E+00
      21    -1     0     0   512   502  0.000000000E+00  0.000000000E+00 -2.451379130E+02  2.451379130E+02  0.000000000E+00  0.00000E+00  9.000E+00
      25     1     1     2     0     0 -1.549473456E+02 -1.800622194E+02 -1.710264957E+01  2.689769198E+02  1.250000000E+02  0.00000E+00  9.000E+00
      25     1     1     2     0     0  1.766884259E+02  1.970135556E+02  3.113857561E+02  4.273397127E+02  1.250000000E+02  0.00000E+00  9.000E+00
      21     1     1     2   512   501 -2.174108030E+01 -1.695133627E+01 -3.981469852E+01  4.842760155E+01  6.743495762E-07  0.00000E+00  9.000E+00
#rwgt            1           1   3.4710829832293746E-002           2      308457           0
</event>
<event>
      5   9999  3.79277E-02  3.23988E+00 -1.00000E+00  2.87086E-01
      21    -1     0     0   502   501  0.000000000E+00  0.000000000E+00  6.808457464E+01  6.808457464E+01  0.000000000E+00  0.00000E+00  9.000E+00
      21    -1     0     0   501   511  0.000000000E+00  0.000000000E+00 -1.329587678E+03  1.329587678E+03  0.000000000E+00  0.00000E+00  9.000E+00
      25     1     1     2     0     0  2.052117736E+02  3.089051239E+01 -2.188261508E+02  3.264597679E+02  1.250000000E+02  0.00000E+00  9.000E+00
      25     1     1     2     0     0 -2.044129483E+02 -2.775065323E+01 -1.011221876E+03  1.039590994E+03  1.250000000E+02  0.00000E+00  9.000E+00
      21     1     1     2   502   511 -7.988253593E-01 -3.139859167E+00 -3.145507706E+01  3.162149127E+01  0.000000000E+00  0.00000E+00  9.000E+00
#rwgt            1           1   4.1703779408969667E-002           2      308671           0
</event>
<event>
      5   9999  3.79277E-02  8.02413E+01 -1.00000E+00  1.28286E-01
      21    -1     0     0   502   501  0.000000000E+00  0.000000000E+00  2.331801191E+02  2.331801191E+02  0.000000000E+00  0.00000E+00  9.000E+00
      21    -1     0     0   501   512  0.000000000E+00  0.000000000E+00 -1.137199410E+03  1.137199410E+03  0.000000000E+00  0.00000E+00  9.000E+00
      25     1     1     2     0     0 -8.162991750E+01  3.719796374E+01  9.768969345E+01  1.822509483E+02  1.250000000E+02  0.00000E+00  9.000E+00
      25     1     1     2     0     0  1.610282705E+02 -2.559783270E+01 -2.367804290E+01  2.068115148E+02  1.250000000E+02  0.00000E+00  9.000E+00
      21     1     1     2   502   512 -7.939835302E+01 -1.160013104E+01 -9.780309410E+02  9.813170656E+02  1.078959322E-05  0.00000E+00  9.000E+00
#rwgt            2          11   2.8501064318807055E-003           2      309336           0
</event>
<event>
      5   9999  3.79277E-02  4.44172E+02 -1.00000E+00  1.00335E-01
      21    -1     0     0   511   501  0.000000000E+00  0.000000000E+00  2.420119577E+02  2.420119577E+02  0.000000000E+00  0.00000E+00  9.000E+00
      21    -1     0     0   501   502  0.000000000E+00  0.000000000E+00 -3.027356065E+03  3.027356065E+03  0.000000000E+00  0.00000E+00  9.000E+00
      25     1     1     2     0     0  3.365967480E+02 -1.118474760E+02 -6.747967579E+02  7.725172445E+02  1.250000000E+02  0.00000E+00  9.000E+00
      25     1     1     2     0     0 -1.270852757E+01 -1.921012890E+02 -2.033052356E+03  2.045969524E+03  1.250000000E+02  0.00000E+00  9.000E+00
      21     1     1     2   511   502 -3.238882204E+02  3.039487650E+02 -7.749499325E+01  4.508812538E+02  6.810596875E-06  0.00000E+00  9.000E+00
#rwgt            2          11   2.9382368696032053E-003           2      309416           0
</event>
<event>
      5   9999  3.79277E-02  1.16272E+02 -1.00000E+00  1.20953E-01
      21    -1     0     0   502   501  0.000000000E+00  0.000000000E+00  1.944563959E+02  1.944563959E+02  0.000000000E+00  0.00000E+00  9.000E+00
       1    -1     0     0   501     0  0.000000000E+00  0.000000000E+00 -2.054276422E+03  2.054276422E+03  0.000000000E+00  0.00000E+00  9.000E+00
      25     1     1     2     0     0  1.252169006E+02 -9.366548900E+01 -6.891113648E+02  7.176015392E+02  1.250000000E+02  0.00000E+00  9.000E+00
      25     1     1     2     0     0 -3.818107936E+01  1.707631494E+02  1.124823611E+02  2.426831876E+02  1.250000000E+02  0.00000E+00  9.000E+00
       1     1     1     2   502     0 -8.703582121E+01 -7.709766037E+01 -1.283191022E+03  1.288448091E+03  2.157918644E-05  0.00000E+00  9.000E+00
#rwgt            1           1   3.6091788879134792E-002           2      309481           0
</event>
<event>
      5   9999  3.79277E-02  7.23522E+00 -1.00000E+00  2.13545E-01
      21    -1     0     0   511   501  0.000000000E+00  0.000000000E+00  4.417397230E+02  4.417397230E+02  0.000000000E+00  0.00000E+00  9.000E+00
      21    -1     0     0   501   502  0.000000000E+00  0.000000000E+00 -5.476152578E+02  5.476152578E+02  0.000000000E+00  0.00000E+00  9.000E+00
      25     1     1     2     0     0 -1.242335134E+02  2.130478078E+02 -4.610861761E+02  5.376325846E+02  1.250000000E+02  0.00000E+00  9.000E+00
      25     1     1     2     0     0  1.218161192E+02 -2.062283769E+02  3.521874404E+02  4.438809565E+02  1.250000000E+02  0.00000E+00  9.000E+00
      21     1     1     2   511   502  2.417394261E+00 -6.819430833E+00  3.023200907E+00  7.841439640E+00  1.397852826E-07  0.00000E+00  9.000E+00
#rwgt            1           1  0.13928396426498096                2      309599           0
</event>
<event>
      5   9999  3.79277E-02  5.15906E+02 -1.00000E+00  9.84671E-02
      21    -1     0     0   502   501  0.000000000E+00  0.000000000E+00  3.136800950E+02  3.136800950E+02  0.000000000E+00  0.00000E+00  9.000E+00
       2    -1     0     0   501     0  0.000000000E+00  0.000000000E+00 -2.617592092E+03  2.617592092E+03  0.000000000E+00  0.00000E+00  9.000E+00
      25     1     1     2     0     0 -2.473379151E+02  1.079048474E+02 -3.394857557E+02  4.513259118E+02  1.250000000E+02  0.00000E+00  9.000E+00
      25     1     1     2     0     0 -2.653107559E+02 -5.002008212E+01  1.287122820E+02  3.241660954E+02  1.250000000E+02  0.00000E+00  9.000E+00
       2     1     1     2   502     0  5.126486710E+02 -5.788476533E+01 -2.093138523E+03  2.155780180E+03  3.051757812E-05  0.00000E+00  9.000E+00
#rwgt            2          13   3.2662009127085276E-004           2      310275           0
</event>
<event>
      5   9999  3.79277E-02  4.36006E+00 -1.00000E+00  2.54951E-01
      21    -1     0     0   502   501  0.000000000E+00  0.000000000E+00  1.742056988E+01  1.742056988E+01  0.000000000E+00  0.00000E+00  9.000E+00
      21    -1     0     0   511   502  0.000000000E+00  0.000000000E+00 -1.821981922E+03  1.821981922E+03  0.000000000E+00  0.00000E+00  9.000E+00
      25     1     1     2     0     0 -1.011939643E+02 -6.882716799E+01 -7.459064115E+02  7.661453988E+02  1.250000000E+02  0.00000E+00  9.000E+00
      25     1     1     2     0     0  9.835145096E+01  6.552107536E+01 -1.027872262E+03  1.042167169E+03  1.250000000E+02  0.00000E+00  9.000E+00
      21     1     1     2   511   501  2.842513336E+00  3.306092631E+00 -3.078267829E+01  3.108992463E+01  3.371747881E-07  0.00000E+00  9.000E+00
#rwgt            1           1  0.12475747077099242                2      310294           0
</event>
<event>
      5   9999  3.79277E-02  5.92400E+01 -1.00000E+00  1.35000E-01
      21    -1     0     0   512   501  0.000000000E+00  0.000000000E+00  9.821585730E+02  9.821585730E+02  0.000000000E+00  0.00000E+00  9.000E+00
      21    -1     0     0   501   502  0.000000000E+00  0.000000000E+00 -8.302203528E+01  8.302203528E+01  0.000000000E+00  0.00000E+00  9.000E+00
      25     1     1     2     0     0 -1.119877093E+02  1.969206044E+01  1.816335297E+02  2.480821707E+02  1.250000000E+02  0.00000E+00  9.000E+00
      25     1     1     2     0     0  5.354951353E+01 -2.940568686E+01  5.133063475E+01  1.482972653E+02  1.250000000E+02  0.00000E+00  9.000E+00
      21     1     1     2   512   502  5.843819582E+01  9.713626423E+00  6.661723732E+02  6.688011723E+02  7.629394531E-06  0.00000E+00  9.000E+00
#rwgt            1           1   3.4173133646994779E-002           2      310912           0
</event>
<event>
      5   9999  3.79277E-02  1.26775E+02 -1.00000E+00  1.19364E-01
      21    -1     0     0   502   501  0.000000000E+00  0.000000000E+00  3.060410198E+02  3.060410198E+02  0.000000000E+00  0.00000E+00  9.000E+00
      21    -1     0     0   501   511  0.000000000E+00  0.000000000E+00 -1.802741358E+02  1.802741358E+02  0.000000000E+00  0.00000E+00  9.000E+00
      25     1     1     2     0     0  3.939616987E+01  8.845192248E+01  1.074580229E+02  1.911753841E+02  1.250000000E+02  0.00000E+00  9.000E+00
      25     1     1     2     0     0  8.622337756E+01 -7.137184934E+01  1.137395770E+01  1.681748454E+02  1.250000000E+02  0.00000E+00  9.000E+00
      21     1     1     2   502   511 -1.256195474E+02 -1.708007314E+01  6.934903369E+00  1.269649262E+02  9.424321831E-07  0.00000E+00  9.000E+00
#rwgt            1           1   2.7153350155753209E-002           2      310973           0
</event>
<event>
      5   9999  3.79277E-02  6.48413E+01 -1.00000E+00  1.32927E-01
      21    -1     0     0   502   501  0.000000000E+00  0.000000000E+00  2.386902073E+02  2.386902073E+02  0.000000000E+00  0.00000E+00  9.000E+00
      21    -1     0     0   512   502  0.000000000E+00  0.000000000E+00 -2.824396477E+02  2.824396477E+02  0.000000000E+00  0.00000E+00  9.000E+00
      25     1     1     2     0     0  1.140966056E+02  9.377870764E+01 -3.923571344E+01  1.974257395E+02  1.250000000E+02  0.00000E+00  9.000E+00
      25     1     1     2     0     0 -8.150745670E+01 -3.772212384E+01  1.120047850E+02  1.903588611E+02  1.250000000E+02  0.00000E+00  9.000E+00
      21     1     1     2   512   501 -3.258914894E+01 -5.605658380E+01 -1.165185121E+02  1.333452544E+02  2.336015456E-06  0.00000E+00  9.000E+00
#rwgt            1           1   4.7990983329466018E-002           2      311052           0
</event>
<event>
      5   9999  3.79277E-02  2.32968E+01 -1.00000E+00  1.61081E-01
       2    -1     0     0   502     0  0.000000000E+00  0.000000000E+00  4.185196934E+01  4.185196934E+01  0.000000000E+00  0.00000E+00  9.000E+00
      21    -1     0     0   501   502  0.000000000E+00  0.000000000E+00 -2.017996253E+03  2.017996253E+03  0.000000000E+00  0.00000E+00  9.000E+00
      25     1     1     2     0     0  9.334142936E+01  5.015856135E+01 -2.171046079E+02  2.720071957E+02  1.250000000E+02  0.00000E+00  9.000E+00
      25     1     1     2     0     0 -8.087739161E+01 -6.984079646E+01 -1.756751776E+03  1.764432116E+03  1.250000000E+02  0.00000E+00  9.000E+00
       2     1     1     2   501     0 -1.246403775E+01  1.968223512E+01 -2.287899740E+00  2.340891073E+01  2.811545471E-07  0.00000E+00  9.000E+00
#rwgt            1           1   5.1505739682357179E-002           2      311118           0
</event>
<event>
      5   9999  3.79277E-02  8.51639E+00 -1.00000E+00  2.04181E-01
      21    -1     0     0   502   511  0.000000000E+00  0.000000000E+00  1.039558634E+03  1.039558634E+03  0.000000000E+00  0.00000E+00  9.000E+00
      21    -1     0     0   501   502  0.000000000E+00  0.000000000E+00 -3.520864006E+01  3.520864006E+01  0.000000000E+00  0.00000E+00  9.000E+00
      25     1     1     2     0     0 -3.446100412E+01 -7.577180131E+01  7.662802506E+02  7.808580852E+02  1.250000000E+02  0.00000E+00  9.000E+00
      25     1     1     2     0     0  4.024580871E+01  6.952160789E+01  1.719995371E+02  2.272923665E+02  1.250000000E+02  0.00000E+00  9.000E+00
      21     1     1     2   501   511 -5.784804589E+00  6.250193421E+00  6.607020580E+01  6.661682203E+01  1.348699152E-06  0.00000E+00  9.000E+00
#rwgt            1           1   3.5836212311992792E-002           2      311294           0
</event>
<event>
      5   9999  3.79277E-02  6.08200E+01 -1.00000E+00  1.34389E-01
      21    -1     0     0   512   501  0.000000000E+00  0.000000000E+00  1.501487177E+03  1.501487177E+03  0.000000000E+00  0.00000E+00  9.000E+00
      21    -1     0     0   501   502  0.000000000E+00  0.000000000E+00 -1.123836613E+02  1.123836613E+02  0.000000000E+00  0.00000E+00  9.000E+00
      25     1     1     2     0     0 -3.436228122E+02 -1.003404806E+02  3.987356272E+02  5.502362670E+02  1.250000000E+02  0.00000E+00  9.000E+00
      25     1     1     2     0     0  2.837054265E+02  8.990093729E+01  8.842149364E+02  9.412927288E+02  1.250000000E+02  0.00000E+00  9.000E+00
      21     1     1     2   512   502  5.991738566E+01  1.043954335E+01  1.061529524E+02  1.223418427E+02  1.907348633E-06  0.00000E+00  9.000E+00
#rwgt            1           1   3.5895371415948410E-002           2      311630           0
</event>
<event>
      5   9999  3.79277E-02  6.10749E+01 -1.00000E+00  1.34293E-01
      21    -1     0     0   502   501  0.000000000E+00  0.000000000E+00  4.697351784E+01  4.697351784E+01  0.000000000E+00  0.00000E+00  9.000E+00
       1    -1     0     0   501     0  0.000000000E+00  0.000000000E+00 -1.915692670E+03  1.915692670E+03  0.000000000E+00  0.00000E+00  9.000E+00
      25     1     1     2     0     0  1.526960704E+02 -4.046108162E+01 -4.432821496E+02  4.869057950E+02  1.250000000E+02  0.00000E+00  9.000E+00
      25     1     1     2     0     0 -2.117012396E+02  5.622620852E+01 -6.391860053E+02  6.871408522E+02  1.250000000E+02  0.00000E+00  9.000E+00
       1     1     1     2   502     0  5.900516930E+01 -1.576512690E+01 -7.862509970E+02  7.886195404E+02  1.078959322E-05  0.00000E+00  9.000E+00
#rwgt            1           1   3.7341371562035854E-002           2      311751           0
</event>
<event>
      5   9999  3.79277E-02  1.01690E+02 -1.00000E+00  1.23501E-01
      21    -1     0     0   502   501  0.000000000E+00  0.000000000E+00  3.161738305E+02  3.161738305E+02  0.000000000E+00  0.00000E+00  9.000E+00
      21    -1     0     0   501   511  0.000000000E+00  0.000000000E+00 -2.123088821E+02  2.123088821E+02  0.000000000E+00  0.00000E+00  9.000E+00
      25     1     1     2     0     0  7.768466684E+01  4.303922757E+01  1.623009052E+02  2.232797940E+02  1.250000000E+02  0.00000E+00  9.000E+00
      25     1     1     2     0     0 -1.508085579E+02  2.762793970E+01 -4.120837573E+01  2.020634910E+02  1.250000000E+02  0.00000E+00  9.000E+00
      21     1     1     2   502   511  7.312389105E+01 -7.066716727E+01 -1.722758113E+01  1.031394276E+02  2.654916936E-06  0.00000E+00  9.000E+00
#rwgt            1           1   3.5507031416567282E-002           2      311898           0
</event>
<event>
      5   9999  3.79277E-02  6.59649E+01 -1.00000E+00  1.32540E-01
      21    -1     0     0   502   512  0.000000000E+00  0.000000000E+00  3.500781368E+01  3.500781368E+01  0.000000000E+00  0.00000E+00  9.000E+00
      21    -1     0     0   501   502  0.000000000E+00  0.000000000E+00 -1.633288439E+03  1.633288439E+03  0.000000000E+00  0.00000E+00  9.000E+00
      25     1     1     2     0     0  8.648752217E+01 -1.656399783E+02 -7.027827599E+02  7.378653682E+02  1.250000000E+02  0.00000E+00  9.000E+00
      25     1     1     2     0     0 -8.241012772E+01  9.980124234E+01 -7.391672766E+02  7.607529033E+02  1.250000000E+02  0.00000E+00  9.000E+00
      21     1     1     2   501   512 -4.077394448E+00  6.583873595E+01 -1.563305885E+02  1.696779809E+02  0.000000000E+00  0.00000E+00  9.000E+00
#rwgt            1           1   4.8512262605512620E-002           2      312060           0
</event>
<event>
      5   9999 -3.79277E-02  1.36008E+01 -1.00000E+00  1.81486E-01
      21    -1     0     0   502   501  0.000000000E+00  0.000000000E+00  2.824592536E+02  2.824592536E+02  0.000000000E+00  0.00000E+00  9.000E+00
      21    -1     0     0   501   511  0.000000000E+00  0.000000000E+00 -4.189684161E+02  4.189684161E+02  0.000000000E+00  0.00000E+00  9.000E+00
      25     1     1     2     0     0  3.065073977E+02  3.361357707E+01 -2.128120577E+00  3.327253918E+02  1.250000000E+02  0.00000E+00  9.000E+00
      25     1     1     2     0     0 -2.983862233E+02 -4.452361851E+01 -1.175732982E+02  3.470809291E+02  1.250000000E+02  0.00000E+00  9.000E+00
      21     1     1     2   502   511 -8.121174418E+00  1.091004144E+01 -1.680774366E+01  2.162134882E+01  3.371747881E-07  0.00000E+00  9.000E+00
#rwgt            1           1  -3.7168310183848120E-002           2      312139           0
</event>
<event>
      5   9999  3.79277E-02  3.75312E+01 -1.00000E+00  1.46577E-01
       1    -1     0     0   502     0  0.000000000E+00  0.000000000E+00  6.405169819E+02  6.405169819E+02  0.000000000E+00  0.00000E+00  9.000E+00
      21    -1     0     0   501   502  0.000000000E+00  0.000000000E+00 -4.207838575E+02  4.207838575E+02  0.000000000E+00  0.00000E+00  9.000E+00
      25     1     1     2     0     0  1.609537358E+01  9.615603581E+01 -1.007148871E+02  1.878124936E+02  1.250000000E+02  0.00000E+00  9.000E+00
      25     1     1     2     0     0 -4.319576140E+01 -1.221206150E+02 -2.465373564E+02  3.052621603E+02  1.250000000E+02  0.00000E+00  9.000E+00
       1     1     1     2   501     0  2.710038782E+01  2.596457917E+01  5.669853679E+02  5.682261854E+02  1.078959322E-05  0.00000E+00  9.000E+00
#rwgt            1           1   4.1739207846115928E-002           2      312358           0
</event>
<event>
      5   9999  3.79277E-02  4.02180E+01 -1.00000E+00  1.44694E-01
      21    -1     0     0   502   501  0.000000000E+00  0.000000000E+00  2.074657264E+02  2.074657264E+02  0.000000000E+00  0.00000E+00  9.000E+00
      21    -1     0     0   501   511  0.000000000E+00  0.000000000E+00 -6.739795143E+02  6.739795143E+02  0.000000000E+00  0.00000E+00  9.000E+00
      25     1     1     2     0     0  3.218622642E+02  7.117135068E+00 -7.332120745E+01  3.530537781E+02  1.250000000E+02  0.00000E+00  9.000E+00
      25     1     1     2     0     0 -2.860152665E+02  1.111688181E+01 -3.396661422E+02  4.614394932E+02  1.250000000E+02  0.00000E+00  9.000E+00
      21     1     1     2   502   511 -3.584699770E+01 -1.823401688E+01 -5.352643831E+01  6.695196945E+01  0.000000000E+00  0.00000E+00  9.000E+00
#rwgt            1           1   2.2440203630083581E-002           2      312492           0
</event>
<event>
      5   9999  3.79277E-02  1.33480E+02 -1.00000E+00  1.18438E-01
      21    -1     0     0   502   501  0.000000000E+00  0.000000000E+00  3.051021505E+02  3.051021505E+02  0.000000000E+00  0.00000E+00  9.000E+00
      21    -1     0     0   501   512  0.000000000E+00  0.000000000E+00 -9.164036874E+02  9.164036874E+02  0.000000000E+00  0.00000E+00  9.000E+00
      25     1     1     2     0     0  8.136482523E+00 -2.375278943E+02 -4.464099809E+01  2.722196202E+02  1.250000000E+02  0.00000E+00  9.000E+00
      25     1     1     2     0     0  1.219907748E+02  2.672577398E+02  4.572002068E+01  3.225271599E+02  1.250000000E+02  0.00000E+00  9.000E+00
      21     1     1     2   502   512 -1.301272573E+02 -2.972984551E+01 -6.123805596E+02  6.267590578E+02  1.078959322E-05  0.00000E+00  9.000E+00
#rwgt            1           1   4.4898510488320116E-002           2      312724           0
</event>
<event>
      5   9999  3.79277E-02  4.46428E+01 -1.00000E+00  1.41943E-01
      21    -1     0     0   502   511  0.000000000E+00  0.000000000E+00  1.126192332E+03  1.126192332E+03  0.000000000E+00  0.00000E+00  9.000E+00
      21    -1     0     0   501   502  0.000000000E+00  0.000000000E+00 -7.843413930E+01  7.843413930E+01  0.000000000E+00  0.00000E+00  9.000E+00
      25     1     1     2     0     0 -7.200671975E+00 -1.038723579E+01  8.005668321E+02  8.103653479E+02  1.250000000E+02  0.00000E+00  9.000E+00
      25     1     1     2     0     0  4.431306287E+01  3.519953565E+01 -5.824045497E+00  1.373374470E+02  1.250000000E+02  0.00000E+00  9.000E+00
      21     1     1     2   501   511 -3.711239090E+01 -2.481229986E+01  2.530154065E+02  2.569236768E+02  4.672030912E-06  0.00000E+00  9.000E+00
#rwgt            1           1   3.4969816539740434E-002           2      312812           0
</event>
<event>
      5   9999  3.79277E-02  1.67030E+01 -1.00000E+00  1.73094E-01
      21    -1     0     0   502   512  0.000000000E+00  0.000000000E+00  3.081376408E+02  3.081376408E+02  0.000000000E+00  0.00000E+00  9.000E+00
      21    -1     0     0   501   502  0.000000000E+00  0.000000000E+00 -4.462444254E+02  4.462444254E+02  0.000000000E+00  0.00000E+00  9.000E+00
      25     1     1     2     0     0  1.449849024E+02  1.713665388E+02 -2.246040314E+02  3.412610195E+02  1.250000000E+02  0.00000E+00  9.000E+00
      25     1     1     2     0     0 -1.453783580E+02 -1.880649382E+02 -5.205521447E+01  2.735654095E+02  1.250000000E+02  0.00000E+00  9.000E+00
      21     1     1     2   501   512  3.934555344E-01  1.669839938E+01  1.385524613E+02  1.395556372E+02  0.000000000E+00  0.00000E+00  9.000E+00
#rwgt            1           1   3.0019076810245605E-002           2      312945           0
</event>
<event>
      5   9999  3.79277E-02  9.58837E+01 -1.00000E+00  1.24655E-01
      21    -1     0     0   502   501  0.000000000E+00  0.000000000E+00  4.788938438E+02  4.788938438E+02  0.000000000E+00  0.00000E+00  9.000E+00
      21    -1     0     0   511   502  0.000000000E+00  0.000000000E+00 -6.350901654E+02  6.350901654E+02  0.000000000E+00  0.00000E+00  9.000E+00
      25     1     1     2     0     0 -3.613418405E+02  8.077046739E+01 -2.967613079E+02  4.906975320E+02  1.250000000E+02  0.00000E+00  9.000E+00
      25     1     1     2     0     0  2.753268887E+02 -1.231392528E+02  2.959768486E+02  4.406761465E+02  1.250000000E+02  0.00000E+00  9.000E+00
      21     1     1     2   511   501  8.601495171E+01  4.236878544E+01 -1.554118623E+02  1.826103306E+02  1.907348633E-06  0.00000E+00  9.000E+00
#rwgt            1           1  0.25662317803525792                2      313190           0
</event>
<event>
      5   9999  3.79277E-02  3.82380E+01 -1.00000E+00  1.46064E-01
      21    -1     0     0   502   512  0.000000000E+00  0.000000000E+00  1.498221181E+02  1.498221181E+02  0.000000000E+00  0.00000E+00  9.000E+00
      21    -1     0     0   501   502  0.000000000E+00  0.000000000E+00 -6.030028674E+02  6.030028674E+02  0.000000000E+00  0.00000E+00  9.000E+00
      25     1     1     2     0     0 -1.131579067E+02  1.780813284E+02 -2.908937261E+02  3.804757959E+02  1.250000000E+02  0.00000E+00  9.000E+00
      25     1     1     2     0     0  1.389445138E+02 -1.498467068E+02 -2.048048671E+02  3.151660626E+02  1.250000000E+02  0.00000E+00  9.000E+00
      21     1     1     2   501   512 -2.578660704E+01 -2.823462159E+01  4.251784397E+01  5.718312701E+01  4.768371582E-07  0.00000E+00  9.000E+00
#rwgt            1           1   6.5257333895014702E-002           2      313344           0
</event>
<event>
      5   9999  3.79277E-02  1.23828E+02 -1.00000E+00  1.19792E-01
       3    -1     0     0   502     0  0.000000000E+00  0.000000000E+00  7.425383352E+02  7.425383352E+02  0.000000000E+00  0.00000E+00  9.000E+00
      21    -1     0     0   501   502  0.000000000E+00  0.000000000E+00 -2.477943803E+02  2.477943803E+02  0.000000000E+00  0.00000E+00  9.000E+00
      25     1     1     2     0     0  9.258760755E+01 -1.450346367E+02 -6.179261818E+01  2.214742391E+02  1.250000000E+02  0.00000E+00  9.000E+00
      25     1     1     2     0     0  3.074343012E+01  1.339517714E+02 -1.279395207E+01  1.862174019E+02  1.250000000E+02  0.00000E+00  9.000E+00
       3     1     1     2   501     0 -1.233310377E+02  1.108286528E+01  5.693305251E+02  5.826410744E+02  0.000000000E+00  0.00000E+00  9.000E+00
#rwgt            1           1   3.5841653836183859E-002           2      313586           0
</event>
<event>
      5   9999  3.79277E-02  6.68880E+01 -1.00000E+00  1.32229E-01
       1    -1     0     0   502     0  0.000000000E+00  0.000000000E+00  4.533366760E+02  4.533366760E+02  0.000000000E+00  0.00000E+00  9.000E+00
      21    -1     0     0   501   502  0.000000000E+00  0.000000000E+00 -8.861931335E+02  8.861931335E+02  0.000000000E+00  0.00000E+00  9.000E+00
      25     1     1     2     0     0  8.813352535E+01 -1.476421845E+02 -6.668748749E+02  6.999377342E+02  1.250000000E+02  0.00000E+00  9.000E+00
      25     1     1     2     0     0 -3.161080091E+01  1.118765186E+02 -1.635662374E+02  2.364202025E+02  1.250000000E+02  0.00000E+00  9.000E+00
       1     1     1     2   501     0 -5.652272443E+01  3.576566586E+01  3.975846548E+02  4.031718728E+02  7.629394531E-06  0.00000E+00  9.000E+00
#rwgt            1           1   2.3129891165280320E-002           2      313750           0
</event>
<event>
      5   9999  3.79277E-02  1.90403E+01 -1.00000E+00  1.68151E-01
      21    -1     0     0   502   501  0.000000000E+00  0.000000000E+00  1.444901366E+02  1.444901366E+02  0.000000000E+00  0.00000E+00  9.000E+00
      21    -1     0     0   501   511  0.000000000E+00  0.000000000E+00 -3.815495020E+02  3.815495020E+02  0.000000000E+00  0.00000E+00  9.000E+00
      25     1     1     2     0     0  1.481804476E+02  8.608174816E+00  2.239161768E+01  1.953405495E+02  1.250000000E+02  0.00000E+00  9.000E+00
      25     1     1     2     0     0 -1.350716017E+02  5.200935973E+00 -2.465219411E+02  3.076840177E+02  1.250000000E+02  0.00000E+00  9.000E+00
      21     1     1     2   502   511 -1.310884589E+01 -1.380911079E+01 -1.292904201E+01  2.301507134E+01  4.129530925E-07  0.00000E+00  9.000E+00
#rwgt            1           1   3.3907130439709145E-002           2      313844           0
</event>
<event>
      5   9999  3.79277E-02  4.06416E+01 -1.00000E+00  1.44413E-01
      21    -1     0     0   502   501  0.000000000E+00  0.000000000E+00  6.924586479E+02  6.924586479E+02  0.000000000E+00  0.00000E+00  9.000E+00
      21    -1     0     0   512   502  0.000000000E+00  0.000000000E+00 -1.344768999E+02  1.344768999E+02  0.000000000E+00  0.00000E+00  9.000E+00
      25     1     1     2     0     0  1.594592737E+02 -8.178004277E+01  3.266108557E+02  3.929565961E+02  1.250000000E+02  0.00000E+00  9.000E+00
      25     1     1     2     0     0 -1.888355131E+02  5.369484690E+01  2.841926481E+02  3.673315244E+02  1.250000000E+02  0.00000E+00  9.000E+00
      21     1     1     2   512   501  2.937623936E+01  2.808519587E+01 -5.282175582E+01  6.664742721E+01  1.507891493E-06  0.00000E+00  9.000E+00
#rwgt            1           1   2.3488554385048793E-002           2      313995           0
</event>
<event>
      5   9999  3.79277E-02  3.33036E+01 -1.00000E+00  1.49954E-01
      21    -1     0     0   502   511  0.000000000E+00  0.000000000E+00  1.113132190E+02  1.113132190E+02  0.000000000E+00  0.00000E+00  9.000E+00
      21    -1     0     0   501   502  0.000000000E+00  0.000000000E+00 -4.457983539E+02  4.457983539E+02  0.000000000E+00  0.00000E+00  9.000E+00
      25     1     1     2     0     0 -2.743587406E+01 -9.001015531E+01 -3.279732864E+02  3.633813862E+02  1.250000000E+02  0.00000E+00  9.000E+00
      25     1     1     2     0     0 -4.299712373E+00  1.001088299E+02 -7.890810878E+00  1.603980369E+02  1.250000000E+02  0.00000E+00  9.000E+00
      21     1     1     2   501   511  3.173558643E+01 -1.009867462E+01  1.378962318E+00  3.333214983E+01  9.305772183E-08  0.00000E+00  9.000E+00
#rwgt            1           1   4.0520638389340252E-002           2      314231           0
</event>
<event>
      5   9999  3.79277E-02  1.53921E+01 -1.00000E+00  1.76334E-01
      21    -1     0     0   502   512  0.000000000E+00  0.000000000E+00  3.729651910E+02  3.729651910E+02  0.000000000E+00  0.00000E+00  9.000E+00
      21    -1     0     0   501   502  0.000000000E+00  0.000000000E+00 -1.622435775E+02  1.622435775E+02  0.000000000E+00  0.00000E+00  9.000E+00
      25     1     1     2     0     0 -3.702457989E-01  1.143694113E+02  2.355124712E+02  2.901234623E+02  1.250000000E+02  0.00000E+00  9.000E+00
      25     1     1     2     0     0 -1.204611821E+01 -1.052727219E+02 -8.383542252E+01  1.840674686E+02  1.250000000E+02  0.00000E+00  9.000E+00
      21     1     1     2   501   512  1.241636401E+01 -9.096689399E+00  5.904456481E+01  6.101783745E+01  6.743495762E-07  0.00000E+00  9.000E+00
#rwgt            1           1   5.0139006617277444E-002           2      314483           0
</event>
<event>
      5   9999  3.79277E-02  7.27087E+01 -1.00000E+00  1.30391E-01
      21    -1     0     0   511   501  0.000000000E+00  0.000000000E+00  2.480197876E+02  2.480197876E+02  0.000000000E+00  0.00000E+00  9.000E+00
      21    -1     0     0   501   502  0.000000000E+00  0.000000000E+00 -1.308806633E+03  1.308806633E+03  0.000000000E+00  0.00000E+00  9.000E+00
      25     1     1     2     0     0  1.675450767E+02  2.803738477E+02 -9.642972819E+02  1.025755865E+03  1.250000000E+02  0.00000E+00  9.000E+00
      25     1     1     2     0     0 -9.593983455E+01 -2.677547954E+02 -2.248762597E+02  3.835249855E+02  1.250000000E+02  0.00000E+00  9.000E+00
      21     1     1     2   511   502 -7.160524219E+01 -1.261905221E+01  1.283866966E+02  1.475455694E+02  1.907348633E-06  0.00000E+00  9.000E+00
#rwgt            1           1   3.6631158871305913E-002           2      314736           0
</event>
<event>
      5   9999  3.79277E-02  9.20538E+01 -1.00000E+00  1.25467E-01
      21    -1     0     0   512   501  0.000000000E+00  0.000000000E+00  6.380931081E+02  6.380931081E+02  0.000000000E+00  0.00000E+00  9.000E+00
      21    -1     0     0   501   502  0.000000000E+00  0.000000000E+00 -5.539350971E+02  5.539350971E+02  0.000000000E+00  0.00000E+00  9.000E+00
      25     1     1     2     0     0 -1.001694978E+02  2.668857607E+02 -1.004512663E+02  3.270739892E+02  1.250000000E+02  0.00000E+00  9.000E+00
      25     1     1     2     0     0  5.850810377E+01 -3.489724769E+02 -2.300674101E+02  4.401829177E+02  1.250000000E+02  0.00000E+00  9.000E+00
      21     1     1     2   512   502  4.166139400E+01  8.208671620E+01  4.146766875E+02  4.247712983E+02  5.394796609E-06  0.00000E+00  9.000E+00
#rwgt            1           1   4.1868729683064841E-002           2      315141           0
</event>
<event>
      5   9999  3.79277E-02  8.90022E+01 -1.00000E+00  1.26147E-01
      21    -1     0     0   502   501  0.000000000E+00  0.000000000E+00  1.036589962E+03  1.036589962E+03  0.000000000E+00  0.00000E+00  9.000E+00
      21    -1     0     0   501   511  0.000000000E+00  0.000000000E+00 -5.132584751E+02  5.132584751E+02  0.000000000E+00  0.00000E+00  9.000E+00
      25     1     1     2     0     0 -1.189080817E+02  6.532074322E+01  9.273255837E+02  9.454965201E+02  1.250000000E+02  0.00000E+00  9.000E+00
      25     1     1     2     0     0  1.468672294E+02 -1.498173518E+02 -6.338303703E+01  2.523046400E+02  1.250000000E+02  0.00000E+00  9.000E+00
      21     1     1     2   502   511 -2.795914773E+01  8.449660857E+01 -3.406110601E+02  3.520472768E+02  3.814697266E-06  0.00000E+00  9.000E+00
#rwgt            1           1   4.0223229635969464E-002           2      315280           0
</event>
<event>
      5   9999  3.79277E-02  2.30565E+01 -1.00000E+00  1.61429E-01
      21    -1     0     0   502   501  0.000000000E+00  0.000000000E+00  4.031570133E+02  4.031570133E+02  0.000000000E+00  0.00000E+00  9.000E+00
      21    -1     0     0   501   512  0.000000000E+00  0.000000000E+00 -1.002532097E+02  1.002532097E+02  0.000000000E+00  0.00000E+00  9.000E+00
      25     1     1     2     0     0 -3.268203916E+01 -1.214258329E+02  1.928278148E+02  2.619540317E+02  1.250000000E+02  0.00000E+00  9.000E+00
      25     1     1     2     0     0  1.818211231E+01  1.393521824E+02  1.109779496E+02  2.183820625E+02  1.250000000E+02  0.00000E+00  9.000E+00
      21     1     1     2   502   512  1.449992686E+01 -1.792634943E+01 -9.019608161E-01  2.307412872E+01  5.202618316E-07  0.00000E+00  9.000E+00
#rwgt            1           1   4.7251292004962808E-002           2      315463           0
</event>
<event>
      5   9999  3.79277E-02  1.11457E+02 -1.00000E+00  1.21746E-01
      21    -1     0     0   511   501  0.000000000E+00  0.000000000E+00  1.183538892E+02  1.183538892E+02  0.000000000E+00  0.00000E+00  9.000E+00
      21    -1     0     0   501   502  0.000000000E+00  0.000000000E+00 -7.056225793E+02  7.056225793E+02  0.000000000E+00  0.00000E+00  9.000E+00
      25     1     1     2     0     0 -3.889968121E+01 -1.545225788E+02 -4.238480738E+02  4.697473813E+02  1.250000000E+02  0.00000E+00  9.000E+00
      25     1     1     2     0     0  1.303806098E+02  9.085215094E+01 -9.443968370E+01  2.231525725E+02  1.250000000E+02  0.00000E+00  9.000E+00
      21     1     1     2   511   502 -9.148092857E+01  6.367042788E+01 -6.898093264E+01  1.310765149E+02  1.348699152E-06  0.00000E+00  9.000E+00
#rwgt            1           1   5.2580752990209353E-002           2      315581           0
</event>
<event>
      5   9999  3.79277E-02  1.07339E+02 -1.00000E+00  1.22460E-01
      21    -1     0     0   502   501  0.000000000E+00  0.000000000E+00  9.932458232E+02  9.932458232E+02  0.000000000E+00  0.00000E+00  9.000E+00
      21    -1     0     0   501   512  0.000000000E+00  0.000000000E+00 -8.063639955E+02  8.063639955E+02  0.000000000E+00  0.00000E+00  9.000E+00
      25     1     1     2     0     0  1.150120008E+02 -4.877268020E+01  4.005259789E+02  4.377814459E+02  1.250000000E+02  0.00000E+00  9.000E+00
      25     1     1     2     0     0 -1.489062430E+02  1.506193023E+02  5.437943719E+02  5.968220524E+02  1.250000000E+02  0.00000E+00  9.000E+00
      21     1     1     2   502   512  3.389424214E+01 -1.018466221E+02 -7.574385230E+02  7.650063204E+02  0.000000000E+00  0.00000E+00  9.000E+00
#rwgt            1           1   4.1782160261434997E-002           2      315679           0
</event>
<event>
      5   9999  3.79277E-02  2.84127E+01 -1.00000E+00  1.54698E-01
      21    -1     0     0   502   511  0.000000000E+00  0.000000000E+00  1.145807839E+03  1.145807839E+03  0.000000000E+00  0.00000E+00  9.000E+00
      21    -1     0     0   501   502  0.000000000E+00  0.000000000E+00 -6.337496518E+01  6.337496518E+01  0.000000000E+00  0.00000E+00  9.000E+00
      25     1     1     2     0     0  3.280206225E+01 -2.249765918E+02  6.055076920E+02  6.587526146E+02  1.250000000E+02  0.00000E+00  9.000E+00
      25     1     1     2     0     0 -2.219551712E+01  1.986179083E+02  3.615469333E+02  4.316050272E+02  1.250000000E+02  0.00000E+00  9.000E+00
      21     1     1     2   501   511 -1.060654513E+01  2.635868354E+01  1.153782485E+02  1.188251624E+02  0.000000000E+00  0.00000E+00  9.000E+00
#rwgt            1           1   3.6963040856969706E-002           2      315840           0
</event>
<event>
      5   9999 -3.79277E-02  7.31312E+00 -1.00000E+00  2.12902E-01
      21    -1     0     0   502   501  0.000000000E+00  0.000000000E+00  1.533131443E+02  1.533131443E+02  0.000000000E+00  0.00000E+00  9.000E+00
      21    -1     0     0   512   502  0.000000000E+00  0.000000000E+00 -9.331408764E+02  9.331408764E+02  0.000000000E+00  0.00000E+00  9.000E+00
      25     1     1     2     0     0 -1.342746994E+02  3.264164148E+02 -3.237659175E+02  4.950017577E+02  1.250000000E+02  0.00000E+00  9.000E+00
      25     1     1     2     0     0  1.365928986E+02 -3.194804466E+02 -4.462378058E+02  5.792051062E+02  1.250000000E+02  0.00000E+00  9.000E+00
      21     1     1     2   512   501 -2.318199190E+00 -6.935968239E+00 -9.824008742E+00  1.224715684E+01  1.685873940E-07  0.00000E+00  9.000E+00
#rwgt            1           1  -2.2426187465548551E-002           2      316053           0
</event>
<event>
      5   9999  3.79277E-02  1.22539E+01 -1.00000E+00  1.86077E-01
      21    -1     0     0   511   501  0.000000000E+00  0.000000000E+00  6.138750989E+02  6.138750989E+02  0.000000000E+00  0.00000E+00  9.000E+00
      21    -1     0     0   501   502  0.000000000E+00  0.000000000E+00 -1.050871699E+02  1.050871699E+02  0.000000000E+00  0.00000E+00  9.000E+00
      25     1     1     2     0     0 -1.546962268E+02 -1.442151615E+02  2.863054199E+02  3.772594981E+02  1.250000000E+02  0.00000E+00  9.000E+00
      25     1     1     2     0     0  1.464302587E+02  1.532612247E+02  2.046102533E+02  3.200330911E+02  1.250000000E+02  0.00000E+00  9.000E+00
      21     1     1     2   511   502  8.265968036E+00 -9.046063194E+00  1.787225576E+01  2.166967957E+01  2.384185791E-07  0.00000E+00  9.000E+00
#rwgt            1           1   3.8185263990000690E-002           2      316295           0
</event>
<event>
      5   9999  3.79277E-02  4.96812E+01 -1.00000E+00  1.39234E-01
      -2    -1     0     0     0   501  0.000000000E+00  0.000000000E+00  3.870934893E+02  3.870934893E+02  0.000000000E+00  0.00000E+00  9.000E+00
      21    -1     0     0   501   502  0.000000000E+00  0.000000000E+00 -7.314895775E+02  7.314895775E+02  0.000000000E+00  0.00000E+00  9.000E+00
      25     1     1     2     0     0  2.532418505E+01  2.996201802E+02 -3.221477577E+02  4.580586693E+02  1.250000000E+02  0.00000E+00  9.000E+00
      25     1     1     2     0     0  2.371059957E+01 -3.076082834E+02 -2.570170444E+02  4.205565476E+02  1.250000000E+02  0.00000E+00  9.000E+00
      -2     1     1     2     0   502 -4.903478462E+01  7.988103181E+00  2.347687140E+02  2.399678499E+02  3.814697266E-06  0.00000E+00  9.000E+00
#rwgt            1           1   3.7327807003676293E-002           2      316517           0
</event>
<event>
      5   9999  3.79277E-02  7.76720E+01 -1.00000E+00  1.28973E-01
      21    -1     0     0   502   511  0.000000000E+00  0.000000000E+00  1.970992576E+02  1.970992576E+02  0.000000000E+00  0.00000E+00  9.000E+00
      21    -1     0     0   501   502  0.000000000E+00  0.000000000E+00 -7.431096831E+02  7.431096831E+02  0.000000000E+00  0.00000E+00  9.000E+00
      25     1     1     2     0     0 -1.144052223E+02  5.467732188E+01 -4.758142066E+02  5.080377187E+02  1.250000000E+02  0.00000E+00  9.000E+00
      25     1     1     2     0     0  1.474183467E+02  1.562971106E+01 -2.014778637E+02  2.796333070E+02  1.250000000E+02  0.00000E+00  9.000E+00
      21     1     1     2   501   511 -3.301312440E+01 -7.030703293E+01  1.312816448E+02  1.525379150E+02  5.046370146E-06  0.00000E+00  9.000E+00
#rwgt            1           1   3.7780759927524998E-002           2      316690           0
</event>
<event>
      5   9999  3.79277E-02  1.41565E+02 -1.00000E+00  1.17399E-01
      21    -1     0     0   502   501  0.000000000E+00  0.000000000E+00  1.204212173E+02  1.204212173E+02  0.000000000E+00  0.00000E+00  9.000E+00
      21    -1     0     0   512   502  0.000000000E+00  0.000000000E+00 -9.068790926E+02  9.068790926E+02  0.000000000E+00  0.00000E+00  9.000E+00
      25     1     1     2     0     0  1.111491241E+02 -1.370741733E+02 -3.123618248E+02  3.799188944E+02  1.250000000E+02  0.00000E+00  9.000E+00
      25     1     1     2     0     0 -1.818426933E+02  1.442440711E+01 -9.128569821E+01  2.392340012E+02  1.250000000E+02  0.00000E+00  9.000E+00
      21     1     1     2   512   501  7.069356925E+01  1.226497662E+02 -3.828103523E+02  4.081474142E+02  5.394796609E-06  0.00000E+00  9.000E+00
#rwgt            1           1   3.9692571521106342E-002           2      316839           0
</event>
<event>
      5   9999  3.79277E-02  6.80327E+01 -1.00000E+00  1.31851E-01
      21    -1     0     0   502   501  0.000000000E+00  0.000000000E+00  2.474435073E+02  2.474435073E+02  0.000000000E+00  0.00000E+00  9.000E+00
      21    -1     0     0   511   502  0.000000000E+00  0.000000000E+00 -2.726923983E+02  2.726923983E+02  0.000000000E+00  0.00000E+00  9.000E+00
      25     1     1     2     0     0 -8.861489518E+01  1.603964061E+02 -9.936065706E+00  2.220435366E+02  1.250000000E+02  0.00000E+00  9.000E+00
      25     1     1     2     0     0  1.464891417E+02 -1.246330226E+02 -6.359892601E+00  2.294731078E+02  1.250000000E+02  0.00000E+00  9.000E+00
      21     1     1     2   511   501 -5.787424654E+01 -3.576338352E+01 -8.952932689E+00  6.861926127E+01  1.846782373E-06  0.00000E+00  9.000E+00
#rwgt            1           1   2.8562148141160620E-002           2      316888           0
</event>
<event>
      5   9999  3.79277E-02  2.85475E+01 -1.00000E+00  1.54552E-01
      21    -1     0     0   502   501  0.000000000E+00  0.000000000E+00  8.788324883E+02  8.788324883E+02  0.000000000E+00  0.00000E+00  9.000E+00
      21    -1     0     0   512   502  0.000000000E+00  0.000000000E+00 -1.051039328E+02  1.051039328E+02  0.000000000E+00  0.00000E+00  9.000E+00
      25     1     1     2     0     0  1.543196727E+02  1.445207797E+02  4.181097575E+02  4.849139991E+02  1.250000000E+02  0.00000E+00  9.000E+00
      25     1     1     2     0     0 -1.300673956E+02 -1.294613029E+02  3.933590349E+02  4.517013246E+02  1.250000000E+02  0.00000E+00  9.000E+00
      21     1     1     2   512   501 -2.425227715E+01 -1.505947684E+01 -3.774023688E+01  4.732109751E+01  4.768371582E-07  0.00000E+00  9.000E+00
#rwgt            1           1   4.2809713017586723E-002           2      317051           0
</event>
<event>
      5   9999  3.79277E-02  5.21952E+01 -1.00000E+00  1.38019E-01
      -2    -1     0     0     0   501  0.000000000E+00  0.000000000E+00  1.162766205E+03  1.162766205E+03  0.000000000E+00  0.00000E+00  9.000E+00
      21    -1     0     0   501   502  0.000000000E+00  0.000000000E+00 -6.986034016E+01  6.986034016E+01  0.000000000E+00  0.00000E+00  9.000E+00
      25     1     1     2     0     0 -2.703634435E+01  1.103575079E+01  9.324165248E+00  1.287038918E+02  1.250000000E+02  0.00000E+00  9.000E+00
      25     1     1     2     0     0  4.130314548E+01  3.917182955E+01  5.167325748E+02  5.346755426E+02  1.250000000E+02  0.00000E+00  9.000E+00
      -2     1     1     2     0   502 -1.426680113E+01 -5.020758034E+01  5.668491244E+02  5.692471103E+02  7.629394531E-06  0.00000E+00  9.000E+00
#rwgt            1           1   2.6628728809648675E-002           2      317226           0
</event>
<event>
      5   9999  3.79277E-02  9.01659E+00 -1.00000E+00  2.01102E-01
      21    -1     0     0   502   501  0.000000000E+00  0.000000000E+00  1.138954268E+02  1.138954268E+02  0.000000000E+00  0.00000E+00  9.000E+00
      21    -1     0     0   501   511  0.000000000E+00  0.000000000E+00 -3.365906453E+02  3.365906453E+02  0.000000000E+00  0.00000E+00  9.000E+00
      25     1     1     2     0     0  1.204513158E+02  5.416973708E+01 -6.037964131E+01  1.916078834E+02  1.250000000E+02  0.00000E+00  9.000E+00
      25     1     1     2     0     0 -1.211855477E+02 -6.315638369E+01 -1.324730152E+02  2.277032400E+02  1.250000000E+02  0.00000E+00  9.000E+00
      21     1     1     2   502   511  7.342319291E-01  8.986646610E+00 -2.984256206E+01  3.117494866E+01  4.768371582E-07  0.00000E+00  9.000E+00
#rwgt            1           1   3.9380573636035206E-002           2      317323           0
</event>
<event>
      5   9999  3.79277E-02  4.38319E+01 -1.00000E+00  1.42418E-01
      21    -1     0     0   502   512  0.000000000E+00  0.000000000E+00  1.368741239E+02  1.368741239E+02  0.000000000E+00  0.00000E+00  9.000E+00
      21    -1     0     0   501   502  0.000000000E+00  0.000000000E+00 -6.726410238E+02  6.726410238E+02  0.000000000E+00  0.00000E+00  9.000E+00
      25     1     1     2     0     0  4.390014436E+01  3.844704380E+01 -5.939515391E+02  6.097612883E+02  1.250000000E+02  0.00000E+00  9.000E+00
      25     1     1     2     0     0 -1.175875843E-01 -3.636695850E+01  7.788039896E+01  1.517001188E+02  1.250000000E+02  0.00000E+00  9.000E+00
      21     1     1     2   501   512 -4.378255678E+01 -2.080085299E+00 -1.969575974E+01  4.805374059E+01  5.840038640E-07  0.00000E+00  9.000E+00
#rwgt            1           1   4.3611915608687275E-002           2      317542           0
</event>
<event>
      5   9999 -3.79277E-02  1.46041E+01 -1.00000E+00  1.78485E-01
      21    -1     0     0   511   501  0.000000000E+00  0.000000000E+00  1.544784371E+02  1.544784371E+02  0.000000000E+00  0.00000E+00  9.000E+00
      21    -1     0     0   501   502  0.000000000E+00  0.000000000E+00 -1.915296177E+02  1.915296177E+02  0.000000000E+00  0.00000E+00  9.000E+00
      25     1     1     2     0     0 -9.412484491E+01 -4.487026621E+01 -6.138982720E+01  1.739728085E+02  1.250000000E+02  0.00000E+00  9.000E+00
      25     1     1     2     0     0  7.975902424E+01  4.749758991E+01  2.238853048E+01  1.573015235E+02  1.250000000E+02  0.00000E+00  9.000E+00
      21     1     1     2   511   502  1.436582067E+01 -2.627323708E+00  1.950116086E+00  1.473372275E+01  1.884864366E-07  0.00000E+00  9.000E+00
#rwgt            1           1  -2.0028498051922521E-002           2      317659           0
</event>
<event>
      5   9999  3.79277E-02  4.65955E+01 -1.00000E+00  1.40846E-01
      21    -1     0     0   502   501  0.000000000E+00  0.000000000E+00  1.132368568E+02  1.132368568E+02  0.000000000E+00  0.00000E+00  9.000E+00
      21    -1     0     0   512   502  0.000000000E+00  0.000000000E+00 -1.391756948E+03  1.391756948E+03  0.000000000E+00  0.00000E+00  9.000E+00
      25     1     1     2     0     0 -2.782247982E+02 -1.251612759E+02 -6.336293123E+02  7.142726992E+02  1.250000000E+02  0.00000E+00  9.000E+00
      25     1     1     2     0     0  2.317119973E+02  1.223870021E+02 -2.225496885E+02  3.658174297E+02  1.250000000E+02  0.00000E+00  9.000E+00
      21     1     1     2   512   501  4.651280094E+01  2.774273794E+00 -4.223410904E+02  4.249036760E+02  0.000000000E+00  0.00000E+00  9.000E+00
#rwgt            1           1   4.2423976721272169E-002           2      317867           0
</event>
<event>
      5   9999  3.79277E-02  1.49551E+01 -1.00000E+00  1.77506E-01
      21    -1     0     0   502   511  0.000000000E+00  0.000000000E+00  2.305256534E+03  2.305256534E+03  0.000000000E+00  0.00000E+00  9.000E+00
      21    -1     0     0   501   502  0.000000000E+00  0.000000000E+00 -2.323647478E+02  2.323647478E+02  0.000000000E+00  0.00000E+00  9.000E+00
      25     1     1     2     0     0  1.515985986E+02 -9.523658615E+01  8.972685186E+01  2.360678936E+02  1.250000000E+02  0.00000E+00  9.000E+00
      25     1     1     2     0     0 -1.520817379E+02  1.101838405E+02 -7.922859816E+01  2.391056346E+02  1.250000000E+02  0.00000E+00  9.000E+00
      21     1     1     2   501   511  4.831393153E-01 -1.494725438E+01  2.062393532E+03  2.062447753E+03  3.051757812E-05  0.00000E+00  9.000E+00
#rwgt            1           1   3.6616388125077885E-002           2      318005           0
</event>
<event>
      5   9999  3.79277E-02  1.48534E+01 -1.00000E+00  1.77786E-01
      21    -1     0     0   502   501  0.000000000E+00  0.000000000E+00  5.144445212E+02  5.144445212E+02  0.000000000E+00  0.00000E+00  9.000E+00
      21    -1     0     0   501   512  0.000000000E+00  0.000000000E+00 -3.101956039E+02  3.101956039E+02  0.000000000E+00  0.00000E+00  9.000E+00
      25     1     1     2     0     0 -6.903410619E+01  7.688273064E+01  7.953637306E+00  1.623727885E+02  1.250000000E+02  0.00000E+00  9.000E+00
      25     1     1     2     0     0  8.042735978E+01 -6.735296547E+01  4.135100459E+02  4.445453185E+02  1.250000000E+02  0.00000E+00  9.000E+00
      21     1     1     2   502   512 -1.139325359E+01 -9.529765163E+00 -2.172147659E+02  2.177220181E+02  2.697398305E-06  0.00000E+00  9.000E+00
#rwgt            1           1   3.5666959537387626E-002           2      318386           0
</event>
<event>
      5   9999  3.79277E-02  6.45275E+01 -1.00000E+00  1.33037E-01
      21    -1     0     0   511   501  0.000000000E+00  0.000000000E+00  2.127228331E+02  2.127228331E+02  0.000000000E+00  0.00000E+00  9.000E+00
      21    -1     0     0   501   502  0.000000000E+00  0.000000000E+00 -3.388195806E+02  3.388195806E+02  0.000000000E+00  0.00000E+00  9.000E+00
      25     1     1     2     0     0  1.557734695E+02 -1.402462545E+01 -4.795444024E+01  2.058802863E+02  1.250000000E+02  0.00000E+00  9.000E+00
      25     1     1     2     0     0 -2.033878195E+02 -2.952612628E+01 -1.199282687E+02  2.687865080E+02  1.250000000E+02  0.00000E+00  9.000E+00
      21     1     1     2   511   502  4.761434992E+01  4.355075173E+01  4.178596141E+01  7.687561945E+01  1.430511475E-06  0.00000E+00  9.000E+00
#rwgt            2          11   1.9850421854047950E-003           2      318754           0
</event>
<event>
      5   9999  3.79277E-02  2.12297E+02 -1.00000E+00  1.10713E-01
      21    -1     0     0   502   501  0.000000000E+00  0.000000000E+00  8.902743139E+02  8.902743139E+02  0.000000000E+00  0.00000E+00  9.000E+00
      -4    -1     0     0     0   502  0.000000000E+00  0.000000000E+00 -1.201757137E+02  1.201757137E+02  0.000000000E+00  0.00000E+00  9.000E+00
      25     1     1     2     0     0  5.514078551E+01 -2.530584894E+01  1.239171109E+02  1.861755692E+02  1.250000000E+02  0.00000E+00  9.000E+00
      25     1     1     2     0     0 -1.409983174E+02  2.194664889E+02  4.515962998E+02  5.362930945E+02  1.250000000E+02  0.00000E+00  9.000E+00
      -4     1     1     2     0   501  8.585753189E+01 -1.941606400E+02  1.945851895E+02  2.879813638E+02  0.000000000E+00  0.00000E+00  9.000E+00
#rwgt            1           1   4.0226054094292439E-002           2      318804           0
</event>
<event>
      5   9999 -3.79277E-02  7.16012E+00 -1.00000E+00  2.14175E-01
      21    -1     0     0   502   511  0.000000000E+00  0.000000000E+00  7.344909451E+01  7.344909451E+01  0.000000000E+00  0.00000E+00  9.000E+00
      21    -1     0     0   501   502  0.000000000E+00  0.000000000E+00 -9.569891042E+02  9.569891042E+02  0.000000000E+00  0.00000E+00  9.000E+00
      25     1     1     2     0     0  1.719059838E+02 -6.340630577E+01 -2.226085582E+02  3.142476684E+02  1.250000000E+02  0.00000E+00  9.000E+00
      25     1     1     2     0     0 -1.700454583E+02  7.032048149E+01 -6.692279753E+02  7.052315300E+02  1.250000000E+02  0.00000E+00  9.000E+00
      21     1     1     2   501   511 -1.860525435E+00 -6.914175714E+00  8.296523841E+00  1.095900034E+01  2.665600750E-07  0.00000E+00  9.000E+00
#rwgt            1           1 -0.10790047804218633                2      318871           0
</event>
<event>
      5   9999  3.79277E-02  4.89207E+01 -1.00000E+00  1.39618E-01
      21    -1     0     0   502   501  0.000000000E+00  0.000000000E+00  1.287702438E+02  1.287702438E+02  0.000000000E+00  0.00000E+00  9.000E+00
      21    -1     0     0   512   502  0.000000000E+00  0.000000000E+00 -5.324776952E+02  5.324776952E+02  0.000000000E+00  0.00000E+00  9.000E+00
      25     1     1     2     0     0  1.209609959E+01  3.958117517E+01  6.047331095E+01  1.448965368E+02  1.250000000E+02  0.00000E+00  9.000E+00
      25     1     1     2     0     0  1.679552980E+01 -1.031737500E-01 -1.397281154E+02  1.882313648E+02  1.250000000E+02  0.00000E+00  9.000E+00
      21     1     1     2   512   501 -2.889162939E+01 -3.947800142E+01 -3.244526469E+02  3.281200374E+02  6.607249480E-06  0.00000E+00  9.000E+00
#rwgt            1           1   5.7082709977101451E-002           2      319257           0
</event>
<event>
      5   9999  3.79277E-02  1.28225E+01 -1.00000E+00  1.84051E-01
      21    -1     0     0   502   501  0.000000000E+00  0.000000000E+00  1.249436527E+02  1.249436527E+02  0.000000000E+00  0.00000E+00  9.000E+00
      21    -1     0     0   511   502  0.000000000E+00  0.000000000E+00 -1.487556025E+03  1.487556025E+03  0.000000000E+00  0.00000E+00  9.000E+00
      25     1     1     2     0     0  1.735772536E+02 -1.152014427E+02 -8.203191314E+02  8.555401292E+02  1.250000000E+02  0.00000E+00  9.000E+00
      25     1     1     2     0     0 -1.609143054E+02  1.172179844E+02 -2.154830608E+01  2.360567708E+02  1.250000000E+02  0.00000E+00  9.000E+00
      21     1     1     2   511   501 -1.266294821E+01 -2.016541721E+00 -5.207449350E+02  5.209027779E+02  0.000000000E+00  0.00000E+00  9.000E+00
#rwgt            1           1   4.1643256848869908E-002           2      319363           0
</event>
<event>
      5   9999  3.79277E-02  1.73776E+02 -1.00000E+00  1.13916E-01
      -3    -1     0     0     0   501  0.000000000E+00  0.000000000E+00  2.226284070E+02  2.226284070E+02  0.000000000E+00  0.00000E+00  9.000E+00
      21    -1     0     0   501   502  0.000000000E+00  0.000000000E+00 -4.720652509E+02  4.720652509E+02  0.000000000E+00  0.00000E+00  9.000E+00
      25     1     1     2     0     0  2.877785250E+01 -1.042964136E+02 -1.925255021E+02  2.537655919E+02  1.250000000E+02  0.00000E+00  9.000E+00
      25     1     1     2     0     0 -1.561697031E+02 -1.389649705E+01 -1.436931466E+02  2.466876754E+02  1.250000000E+02  0.00000E+00  9.000E+00
      -3     1     1     2     0   502  1.273918506E+02  1.181929106E+02  8.678180483E+01  1.942403907E+02  1.907348633E-06  0.00000E+00  9.000E+00
#rwgt            1           1   2.7391318146461948E-002           2      319560           0
</event>
<event>
      5   9999  3.79277E-02  6.03357E+01 -1.00000E+00  1.34574E-01
      21    -1     0     0   502   511  0.000000000E+00  0.000000000E+00  1.276567208E+03  1.276567208E+03  0.000000000E+00  0.00000E+00  9.000E+00
      21    -1     0     0   501   502  0.000000000E+00  0.000000000E+00 -6.057881007E+01  6.057881007E+01  0.000000000E+00  0.00000E+00  9.000E+00
      25     1     1     2     0     0  4.148013298E+01  1.554706014E+02  4.364410501E+02  4.816611875E+02  1.250000000E+02  0.00000E+00  9.000E+00
      25     1     1     2     0     0 -9.188995372E+01 -1.223156541E+02  2.324136953E+02  3.050344384E+02  1.250000000E+02  0.00000E+00  9.000E+00
      21     1     1     2   501   511  5.040982075E+01 -3.315494730E+01  5.471336526E+02  5.504503922E+02  7.629394531E-06  0.00000E+00  9.000E+00
#rwgt            1           1   3.8565352102045238E-002           2      319666           0
</event>
<event>
      5   9999  3.79277E-02  4.16892E+01 -1.00000E+00  1.43735E-01
      21    -1     0     0   502   501  0.000000000E+00  0.000000000E+00  8.351271146E+01  8.351271146E+01  0.000000000E+00  0.00000E+00  9.000E+00
      21    -1     0     0   512   502  0.000000000E+00  0.000000000E+00 -9.096321980E+02  9.096321980E+02  0.000000000E+00  0.00000E+00  9.000E+00
      25     1     1     2     0     0 -1.831787311E+02 -1.232548827E+02 -4.368542783E+02  5.051859797E+02  1.250000000E+02  0.00000E+00  9.000E+00
      25     1     1     2     0     0  1.527093894E+02  1.517084470E+02 -3.028933077E+02  3.920522495E+02  1.250000000E+02  0.00000E+00  9.000E+00
      21     1     1     2   512   501  3.046934165E+01 -2.845356431E+01 -8.637190053E+01  9.590668018E+01  0.000000000E+00  0.00000E+00  9.000E+00
#rwgt            1           1   2.9974188075280600E-002           2      319762           0
</event>
<event>
      5   9999  3.79277E-02  9.65755E+01 -1.00000E+00  1.24512E-01
      21    -1     0     0   511   501  0.000000000E+00  0.000000000E+00  1.547462701E+03  1.547462701E+03  0.000000000E+00  0.00000E+00  9.000E+00
      21    -1     0     0   501   502  0.000000000E+00  0.000000000E+00 -1.139812722E+03  1.139812722E+03  0.000000000E+00  0.00000E+00  9.000E+00
      25     1     1     2     0     0 -2.055997705E+02  2.882235959E+02 -5.615564927E+02  6.755107707E+02  1.250000000E+02  0.00000E+00  9.000E+00
      25     1     1     2     0     0  1.117132596E+02 -2.655928933E+02 -4.722073063E+02  5.671191915E+02  1.250000000E+02  0.00000E+00  9.000E+00
      21     1     1     2   511   502  9.388651084E+01 -2.263070266E+01  1.441413778E+03  1.444645460E+03  0.000000000E+00  0.00000E+00  9.000E+00
#rwgt            1           1   5.0947075747613577E-002           2      319941           0
</event>
<event>
      5   9999  3.79277E-02  9.81808E+01 -1.00000E+00  1.24188E-01
      21    -1     0     0   502   512  0.000000000E+00  0.000000000E+00  9.831933828E+01  9.831933828E+01  0.000000000E+00  0.00000E+00  9.000E+00
      21    -1     0     0   501   502  0.000000000E+00  0.000000000E+00 -1.008741230E+03  1.008741230E+03  0.000000000E+00  0.00000E+00  9.000E+00
      25     1     1     2     0     0 -5.356575078E+00  2.504780798E+02 -3.857916390E+02  4.766845394E+02  1.250000000E+02  0.00000E+00  9.000E+00
      25     1     1     2     0     0  6.495981119E+01 -1.724592833E+02 -4.648323049E+02  5.154183283E+02  1.250000000E+02  0.00000E+00  9.000E+00
      21     1     1     2   501   512 -5.960323611E+01 -7.801879646E+01 -5.979794774E+01  1.149577005E+02  2.132480600E-06  0.00000E+00  9.000E+00
#rwgt            1           1   4.2551473693785383E-002           2      320192           0
</event>
<event>
      5   9999  3.79277E-02  7.22112E+01 -1.00000E+00  1.30540E-01
      21    -1     0     0   511   501  0.000000000E+00  0.000000000E+00  2.417939442E+02  2.417939442E+02  0.000000000E+00  0.00000E+00  9.000E+00
      21    -1     0     0   501   502  0.000000000E+00  0.000000000E+00 -1.960722326E+02  1.960722326E+02  0.000000000E+00  0.00000E+00  9.000E+00
      25     1     1     2     0     0 -7.315170309E+00 -1.012872995E+02  9.933322614E+01  1.892213481E+02  1.250000000E+02  0.00000E+00  9.000E+00
      25     1     1     2     0     0  7.506015244E+01  7.628577255E+01 -6.221268110E+01  1.759231743E+02  1.250000000E+02  0.00000E+00  9.000E+00
      21     1     1     2   511   502 -6.774498213E+01  2.500152692E+01  8.601166479E+00  7.272165439E+01  5.462855929E-07  0.00000E+00  9.000E+00
#rwgt            1           1   4.9431258845133254E-002           2      320289           0
</event>
<event>
      5   9999  3.79277E-02  1.37637E+02 -1.00000E+00  1.17894E-01
      21    -1     0     0   502   501  0.000000000E+00  0.000000000E+00  1.329561692E+02  1.329561692E+02  0.000000000E+00  0.00000E+00  9.000E+00
       2    -1     0     0   501     0  0.000000000E+00  0.000000000E+00 -1.275109830E+03  1.275109830E+03  0.000000000E+00  0.00000E+00  9.000E+00
      25     1     1     2     0     0  6.320949258E+01  1.143130987E+02 -2.991141896E+02  3.495099754E+02  1.250000000E+02  0.00000E+00  9.000E+00
      25     1     1     2     0     0  7.253313710E+01 -9.155877054E+01  3.089537612E+01  1.738493276E+02  1.250000000E+02  0.00000E+00  9.000E+00
       2     1     1     2   502     0 -1.357426297E+02 -2.275432812E+01 -8.739348477E+02  8.847066966E+02  1.078959322E-05  0.00000E+00  9.000E+00
#rwgt            1           1   4.2465268231895406E-002           2      320399           0
</event>
<event>
      5   9999  3.79277E-02  5.69381E+01 -1.00000E+00  1.35930E-01
      -3    -1     0     0     0   501  0.000000000E+00  0.000000000E+00  7.148067098E+01  7.148067098E+01  0.000000000E+00  0.00000E+00  9.000E+00
      21    -1     0     0   501   502  0.000000000E+00  0.000000000E+00 -7.543408243E+02  7.543408243E+02  0.000000000E+00  0.00000E+00  9.000E+00
      25     1     1     2     0     0  3.476845301E+01 -1.475442939E+02 -4.587565299E+02  4.990598338E+02  1.250000000E+02  0.00000E+00  9.000E+00
      25     1     1     2     0     0 -6.093158901E+01  9.697313710E+01 -2.064729208E+02  2.671563491E+02  1.250000000E+02  0.00000E+00  9.000E+00
      -3     1     1     2     0   502  2.616313600E+01  5.057115683E+01 -1.763070268E+01  5.960531239E+01  2.384185791E-07  0.00000E+00  9.000E+00
#rwgt            1           1   3.7532541026915528E-002           2      320463           0
</event>
<event>
      5   9999  3.79277E-02  1.06225E+01 -1.00000E+00  1.92773E-01
      21    -1     0     0   502   511  0.000000000E+00  0.000000000E+00  3.375696277E+02  3.375696277E+02  0.000000000E+00  0.00000E+00  9.000E+00
      21    -1     0     0   501   502  0.000000000E+00  0.000000000E+00 -3.438851294E+02  3.438851294E+02  0.000000000E+00  0.00000E+00  9.000E+00
      25     1     1     2     0     0  1.320839906E+02  1.998491674E+01 -1.249075758E+02  2.215230912E+02  1.250000000E+02  0.00000E+00  9.000E+00
      25     1     1     2     0     0 -1.406244150E+02 -1.366831634E+01 -1.183859407E+02  2.227156931E+02  1.250000000E+02  0.00000E+00  9.000E+00
      21     1     1     2   501   511  8.540424486E+00 -6.316600396E+00  2.369780148E+02  2.372159728E+02  0.000000000E+00  0.00000E+00  9.000E+00
#rwgt            1           1   4.0398147635651617E-002           2      320596           0
</event>
<event>
      5   9999  3.79277E-02  5.13630E+01 -1.00000E+00  1.38412E-01
      21    -1     0     0   502   512  0.000000000E+00  0.000000000E+00  1.227897628E+02  1.227897628E+02  0.000000000E+00  0.00000E+00  9.000E+00
      21    -1     0     0   501   502  0.000000000E+00  0.000000000E+00 -6.016704621E+02  6.016704621E+02  0.000000000E+00  0.00000E+00  9.000E+00
      25     1     1     2     0     0  8.866624954E+01  1.916024932E+02 -2.074489845E+02  3.212993937E+02  1.250000000E+02  0.00000E+00  9.000E+00
      25     1     1     2     0     0 -3.839248793E+01 -1.810805359E+02 -2.717933790E+02  3.517965101E+02  1.250000000E+02  0.00000E+00  9.000E+00
      21     1     1     2   501   512 -5.027376160E+01 -1.052195728E+01  3.616641633E-01  5.136432120E+01  9.011199255E-07  0.00000E+00  9.000E+00
#rwgt            1           1   3.5149490527964400E-002           2      320856           0
</event>
<event>
      5   9999  3.79277E-02  1.06006E+01 -1.00000E+00  1.92874E-01
      21    -1     0     0   511   501  0.000000000E+00  0.000000000E+00  1.209597986E+02  1.209597986E+02  0.000000000E+00  0.00000E+00  9.000E+00
      21    -1     0     0   501   502  0.000000000E+00  0.000000000E+00 -4.125624761E+02  4.125624761E+02  0.000000000E+00  0.00000E+00  9.000E+00
      25     1     1     2     0     0 -1.120760132E+02 -1.077734191E+02 -2.565341069E+02  3.249782925E+02  1.250000000E+02  0.00000E+00  9.000E+00
      25     1     1     2     0     0  1.136765084E+02  9.729433058E+01 -3.351217237E+01  1.978297273E+02  1.250000000E+02  0.00000E+00  9.000E+00
      21     1     1     2   511   502 -1.600495173E+00  1.047908852E+01 -1.556398260E+00  1.071425483E+01  2.138718977E-07  0.00000E+00  9.000E+00
#rwgt            1           1   3.6788637713866604E-002           2      321062           0
</event>
<event>
      5   9999  3.79277E-02  5.70048E+00 -1.00000E+00  2.28982E-01
      21    -1     0     0   502   501  0.000000000E+00  0.000000000E+00  3.210414817E+02  3.210414817E+02  0.000000000E+00  0.00000E+00  9.000E+00
      21    -1     0     0   512   502  0.000000000E+00  0.000000000E+00 -1.614144267E+02  1.614144267E+02  0.000000000E+00  0.00000E+00  9.000E+00
      25     1     1     2     0     0  1.693325338E+02 -6.278198866E+01  4.021860093E+01  2.232882015E+02  1.250000000E+02  0.00000E+00  9.000E+00
      25     1     1     2     0     0 -1.734091564E+02  6.676653167E+01  1.185834100E+02  2.534078342E+02  1.250000000E+02  0.00000E+00  9.000E+00
      21     1     1     2   512   501  4.076622670E+00 -3.984543005E+00  8.250440173E-01  5.759872653E+00  7.742870484E-08  0.00000E+00  9.000E+00
#rwgt            1           1   3.4725130770843111E-002           2      321472           0
</event>
<event>
      5   9999  3.79277E-02  1.41807E+02 -1.00000E+00  1.17369E-01
      21    -1     0     0   511   501  0.000000000E+00  0.000000000E+00  1.456869179E+02  1.456869179E+02  0.000000000E+00  0.00000E+00  9.000E+00
      21    -1     0     0   501   502  0.000000000E+00  0.000000000E+00 -7.556820771E+02  7.556820771E+02  0.000000000E+00  0.00000E+00  9.000E+00
      25     1     1     2     0     0 -1.481949209E+02 -8.580148298E+01 -5.792894256E+02  6.168669773E+02  1.250000000E+02  0.00000E+00  9.000E+00
      25     1     1     2     0     0  8.772311042E+00  5.990730531E+01  2.276509920E+00  1.389101190E+02  1.250000000E+02  0.00000E+00  9.000E+00
      21     1     1     2   511   502  1.394226099E+02  2.589417767E+01 -3.298224347E+01  1.455918987E+02  1.581489940E-06  0.00000E+00  9.000E+00
#rwgt            1           1   3.7471050759856031E-002           2      321868           0
</event>
<event>
      5   9999  3.79277E-02  1.33316E+02 -1.00000E+00  1.18460E-01
      21    -1     0     0   502   501  0.000000000E+00  0.000000000E+00  7.064096702E+02  7.064096702E+02  0.000000000E+00  0.00000E+00  9.000E+00
      21    -1     0     0   512   502  0.000000000E+00  0.000000000E+00 -1.723769088E+02  1.723769088E+02  0.000000000E+00  0.00000E+00  9.000E+00
      25     1     1     2     0     0 -1.595970747E+02 -5.691551383E+01  5.923432047E+01  2.187334147E+02  1.250000000E+02  0.00000E+00  9.000E+00
      25     1     1     2     0     0  1.238617849E+02 -7.152133878E+01  4.903280725E+02  5.258361554E+02  1.250000000E+02  0.00000E+00  9.000E+00
      21     1     1     2   512   501  3.573528979E+01  1.284368526E+02 -1.552963157E+01  1.342170090E+02  2.633419279E-06  0.00000E+00  9.000E+00
#rwgt            1           1   2.7979673325191492E-002           2      321918           0
</event>
<event>
      5   9999  3.79277E-02  1.82299E+02 -1.00000E+00  1.13133E-01
      21    -1     0     0   511   501  0.000000000E+00  0.000000000E+00  1.966966626E+02  1.966966626E+02  0.000000000E+00  0.00000E+00  9.000E+00
      21    -1     0     0   501   502  0.000000000E+00  0.000000000E+00 -5.447092943E+02  5.447092943E+02  0.000000000E+00  0.00000E+00  9.000E+00
      25     1     1     2     0     0 -6.185541150E+01 -1.334468024E+01  3.311775561E+01  1.439651283E+02  1.250000000E+02  0.00000E+00  9.000E+00
      25     1     1     2     0     0  8.121933763E+01  1.946125662E+02 -3.242187333E+02  4.064645357E+02  1.250000000E+02  0.00000E+00  9.000E+00
      21     1     1     2   511   502 -1.936392613E+01 -1.812678860E+02 -5.691165404E+01  1.909762930E+02  2.697398305E-06  0.00000E+00  9.000E+00
#rwgt            2          11   2.3009483534013556E-003           2      322008           0
</event>
<event>
      5   9999 -3.79277E-02  3.37934E+01 -1.00000E+00  1.49533E-01
      21    -1     0     0   502   501  0.000000000E+00  0.000000000E+00  4.302997467E+02  4.302997467E+02  0.000000000E+00  0.00000E+00  9.000E+00
      21    -1     0     0   512   502  0.000000000E+00  0.000000000E+00 -2.645044961E+02  2.645044961E+02  0.000000000E+00  0.00000E+00  9.000E+00
      25     1     1     2     0     0  1.771802416E+02 -2.843108535E+01  2.829342963E+01  2.205145863E+02  1.250000000E+02  0.00000E+00  9.000E+00
      25     1     1     2     0     0 -1.597106090E+02  5.735863551E+01  2.671659653E+02  3.402942031E+02  1.250000000E+02  0.00000E+00  9.000E+00
      21     1     1     2   512   501 -1.746963263E+01 -2.892755017E+01 -1.296641442E+02  1.339954534E+02  1.907348633E-06  0.00000E+00  9.000E+00
#rwgt            1           1 -0.18161259609981886                2      322073           0
</event>
<event>
      5   9999  3.79277E-02  1.52045E+01 -1.00000E+00  1.76831E-01
      21    -1     0     0   511   501  0.000000000E+00  0.000000000E+00  4.516802892E+01  4.516802892E+01  0.000000000E+00  0.00000E+00  9.000E+00
      21    -1     0     0   501   502  0.000000000E+00  0.000000000E+00 -1.221994894E+03  1.221994894E+03  0.000000000E+00  0.00000E+00  9.000E+00
      25     1     1     2     0     0 -6.021362280E+01  1.495230434E+02 -6.161327762E+02  6.490203532E+02  1.250000000E+02  0.00000E+00  9.000E+00
      25     1     1     2     0     0  7.477002647E+01 -1.539147609E+02 -5.640755422E+02  6.025666169E+02  1.250000000E+02  0.00000E+00  9.000E+00
      21     1     1     2   511   502 -1.455640367E+01  4.391717481E+00  3.381453627E+00  1.557595258E+01  7.456538679E-07  0.00000E+00  9.000E+00
#rwgt            1           1   4.4245454908258743E-002           2      322299           0
</event>
<event>
      5   9999  3.79277E-02  1.37407E+01 -1.00000E+00  1.81048E-01
      21    -1     0     0   502   512  0.000000000E+00  0.000000000E+00  1.000140185E+02  1.000140185E+02  0.000000000E+00  0.00000E+00  9.000E+00
      21    -1     0     0   501   502  0.000000000E+00  0.000000000E+00 -5.294159319E+02  5.294159319E+02  0.000000000E+00  0.00000E+00  9.000E+00
      25     1     1     2     0     0 -2.718004143E+01  1.677721326E+02 -9.706402667E+01  2.322340810E+02  1.250000000E+02  0.00000E+00  9.000E+00
      25     1     1     2     0     0  3.408397441E+01 -1.558917689E+02 -3.195861742E+02  3.784498430E+02  1.250000000E+02  0.00000E+00  9.000E+00
      21     1     1     2   501   512 -6.903932981E+00 -1.188036364E+01 -1.275171255E+01  1.874602634E+01  2.384185791E-07  0.00000E+00  9.000E+00
#rwgt            1           1   4.0751128341612680E-002           2      322508           0
</event>
<event>
      5   9999  3.79277E-02  2.69535E+01 -1.00000E+00  1.56342E-01
      21    -1     0     0   502   511  0.000000000E+00  0.000000000E+00  9.567497331E+02  9.567497331E+02  0.000000000E+00  0.00000E+00  9.000E+00
      21    -1     0     0   501   502  0.000000000E+00  0.000000000E+00 -1.937250893E+02  1.937250893E+02  0.000000000E+00  0.00000E+00  9.000E+00
      25     1     1     2     0     0 -9.504435082E+01  2.152992637E+02  6.652288210E+02  7.166181590E+02  1.250000000E+02  0.00000E+00  9.000E+00
      25     1     1     2     0     0  7.736492797E+01 -2.356445520E+02 -5.122072186E+01  2.824221120E+02  1.250000000E+02  0.00000E+00  9.000E+00
      21     1     1     2   501   511  1.767942285E+01  2.034528833E+01  1.490165447E+02  1.514345513E+02  3.303624740E-06  0.00000E+00  9.000E+00
#rwgt            1           1  0.16574575731864244                2      322762           0
</event>
<event>
      5   9999  3.79277E-02  6.03080E+01 -1.00000E+00  1.34585E-01
      21    -1     0     0   502   512  0.000000000E+00  0.000000000E+00  9.644397372E+02  9.644397372E+02  0.000000000E+00  0.00000E+00  9.000E+00
      21    -1     0     0   501   502  0.000000000E+00  0.000000000E+00 -4.922025824E+01  4.922025824E+01  0.000000000E+00  0.00000E+00  9.000E+00
      25     1     1     2     0     0 -3.584317549E+01  1.701493207E+00  6.315767013E+02  6.448269209E+02  1.250000000E+02  0.00000E+00  9.000E+00
      25     1     1     2     0     0 -2.285212222E+01  1.215213032E+01  6.742911190E+01  1.443661279E+02  1.250000000E+02  0.00000E+00  9.000E+00
      21     1     1     2   501   512  5.869529771E+01 -1.385362353E+01  2.162136658E+02  2.244669467E+02  2.697398305E-06  0.00000E+00  9.000E+00
#rwgt            1           1   4.9128708746593697E-002           2      322960           0
</event>
<event>
      5   9999  3.79277E-02  8.61849E+01 -1.00000E+00  1.26803E-01
      21    -1     0     0   502   511  0.000000000E+00  0.000000000E+00  4.893221166E+02  4.893221166E+02  0.000000000E+00  0.00000E+00  9.000E+00
      21    -1     0     0   501   502  0.000000000E+00  0.000000000E+00 -1.252372221E+02  1.252372221E+02  0.000000000E+00  0.00000E+00  9.000E+00
      25     1     1     2     0     0 -1.467239595E+02  6.853854693E+01  5.077121549E+01  2.107799066E+02  1.250000000E+02  0.00000E+00  9.000E+00
      25     1     1     2     0     0  1.002307725E+02  4.030127689E+00  2.494934918E+02  2.965374380E+02  1.250000000E+02  0.00000E+00  9.000E+00
      21     1     1     2   501   511  4.649318707E+01 -7.256867462E+01  6.382018726E+01  1.072419940E+02  0.000000000E+00  0.00000E+00  9.000E+00
#rwgt            2          11   2.6718973143157617E-003           2      323091           0
</event>
<event>
      5   9999  3.79277E-02  1.97253E+01 -1.00000E+00  1.66866E-01
      21    -1     0     0   502   512  0.000000000E+00  0.000000000E+00  1.219245963E+02  1.219245963E+02  0.000000000E+00  0.00000E+00  9.000E+00
      21    -1     0     0   501   502  0.000000000E+00  0.000000000E+00 -7.274276701E+02  7.274276701E+02  0.000000000E+00  0.00000E+00  9.000E+00
      25     1     1     2     0     0 -9.252822686E+01  5.818117853E+01 -4.089140811E+02  4.413414189E+02  1.250000000E+02  0.00000E+00  9.000E+00
      25     1     1     2     0     0  8.092761700E+01 -7.413469639E+01 -2.781518246E+02  3.240966984E+02  1.250000000E+02  0.00000E+00  9.000E+00
      21     1     1     2   501   512  1.160060986E+01  1.595351786E+01  8.156283182E+01  8.391414908E+01  1.907348633E-06  0.00000E+00  9.000E+00
#rwgt            1           1   2.3150703588702748E-002           2      323141           0
</event>
<event>
      5   9999  3.79277E-02  1.32366E+02 -1.00000E+00  1.18588E-01
      21    -1     0     0   502   511  0.000000000E+00  0.000000000E+00  2.128163416E+02  2.128163416E+02  0.000000000E+00  0.00000E+00  9.000E+00
      21    -1     0     0   501   502  0.000000000E+00  0.000000000E+00 -6.958670547E+02  6.958670547E+02  0.000000000E+00  0.00000E+00  9.000E+00
      25     1     1     2     0     0  9.442317740E+01  2.568671098E+01 -8.539553619E+01  1.802579850E+02  1.250000000E+02  0.00000E+00  9.000E+00
      25     1     1     2     0     0 -1.192718371E+02  1.043259246E+02 -5.139940722E+02  5.521997609E+02  1.250000000E+02  0.00000E+00  9.000E+00
      21     1     1     2   501   511  2.484865973E+01 -1.300126355E+02  1.163388954E+02  1.762256504E+02  1.907348633E-06  0.00000E+00  9.000E+00
#rwgt            1           1   3.1957379455153000E-002           2      323384           0
</event>
<event>
      5   9999  3.79277E-02  5.95402E+01 -1.00000E+00  1.34882E-01
      21    -1     0     0   512   501  0.000000000E+00  0.000000000E+00  1.059727417E+03  1.059727417E+03  0.000000000E+00  0.00000E+00  9.000E+00
      21    -1     0     0   501   502  0.000000000E+00  0.000000000E+00 -1.362837603E+02  1.362837603E+02  0.000000000E+00  0.00000E+00  9.000E+00
      25     1     1     2     0     0 -1.276597685E+02 -7.489888173E+01  8.994104285E+02  9.200385741E+02  1.250000000E+02  0.00000E+00  9.000E+00
      25     1     1     2     0     0  1.136474992E+02  1.703097773E+01 -5.367371604E+01  1.780777248E+02  1.250000000E+02  0.00000E+00  9.000E+00
      21     1     1     2   512   502  1.401226936E+01  5.786790400E+01  7.770694383E+01  9.789487793E+01  0.000000000E+00  0.00000E+00  9.000E+00
#rwgt            1           1   4.1509349855870882E-002           2      323633           0
</event>
<event>
      5   9999  3.79277E-02  8.52357E+01 -1.00000E+00  1.27031E-01
      21    -1     0     0   502   501  0.000000000E+00  0.000000000E+00  5.051086388E+01  5.051086388E+01  0.000000000E+00  0.00000E+00  9.000E+00
      21    -1     0     0   501   511  0.000000000E+00  0.000000000E+00 -1.657276423E+03  1.657276423E+03  0.000000000E+00  0.00000E+00  9.000E+00
      25     1     1     2     0     0  3.841043510E+01  7.014893402E+01 -1.271294781E+03  1.279926425E+03  1.250000000E+02  0.00000E+00  9.000E+00
      25     1     1     2     0     0 -9.855705383E+00  1.016139659E+01 -5.975319881E+01  1.392689257E+02  1.250000000E+02  0.00000E+00  9.000E+00
      21     1     1     2   502   511 -2.855472971E+01 -8.031033061E+01 -2.757175798E+02  2.885919361E+02  3.814697266E-06  0.00000E+00  9.000E+00
#rwgt            1           1   5.1785131522687829E-002           2      323889           0
</event>
<event>
      5   9999  3.79277E-02  6.95847E+01 -1.00000E+00  1.31352E-01
      21    -1     0     0   502   512  0.000000000E+00  0.000000000E+00  8.633453955E+01  8.633453955E+01  0.000000000E+00  0.00000E+00  9.000E+00
      21    -1     0     0   501   502  0.000000000E+00  0.000000000E+00 -6.296171492E+02  6.296171492E+02  0.000000000E+00  0.00000E+00  9.000E+00
      25     1     1     2     0     0 -8.672661885E+01 -6.928547959E+01 -1.070095320E+02  1.984893550E+02  1.250000000E+02  0.00000E+00  9.000E+00
      25     1     1     2     0     0  8.635630485E+01  1.388692123E+02 -3.560567183E+02  4.112705389E+02  1.250000000E+02  0.00000E+00  9.000E+00
      21     1     1     2   501   512  3.703139960E-01 -6.958373271E+01 -8.021635940E+01  1.061917949E+02  1.651812370E-06  0.00000E+00  9.000E+00
#rwgt            1           1   3.2618730854609909E-002           2      323976           0
</event>
<event>
      5   9999  3.79277E-02  2.34989E+01 -1.00000E+00  1.60792E-01
      21    -1     0     0   502   501  0.000000000E+00  0.000000000E+00  3.089040450E+02  3.089040450E+02  0.000000000E+00  0.00000E+00  9.000E+00
      21    -1     0     0   501   511  0.000000000E+00  0.000000000E+00 -4.372193578E+02  4.372193578E+02  0.000000000E+00  0.00000E+00  9.000E+00
      25     1     1     2     0     0 -2.570184580E+02  9.254440920E+01 -1.398372378E+02  3.313644648E+02  1.250000000E+02  0.00000E+00  9.000E+00
      25     1     1     2     0     0  2.791770637E+02 -1.003672239E+02  8.882875458E+01  3.339595188E+02  1.250000000E+02  0.00000E+00  9.000E+00
      21     1     1     2   502   511 -2.215860570E+01  7.822814745E+00 -7.730682958E+01  8.079941916E+01  1.348699152E-06  0.00000E+00  9.000E+00
#rwgt            1           1   4.0367629986894846E-002           2      324128           0
</event>
<event>
      5   9999 -3.79277E-02  8.14526E+01 -1.00000E+00  1.27972E-01
      21    -1     0     0   502   501  0.000000000E+00  0.000000000E+00  2.115445334E+03  2.115445334E+03  0.000000000E+00  0.00000E+00  9.000E+00
      21    -1     0     0   501   512  0.000000000E+00  0.000000000E+00 -4.878588137E+01  4.878588137E+01  0.000000000E+00  0.00000E+00  9.000E+00
      25     1     1     2     0     0 -8.068775436E+01 -1.575562896E+02  7.363102778E+02  7.675365290E+02  1.250000000E+02  0.00000E+00  9.000E+00
      25     1     1     2     0     0  5.676888196E+01  7.969479782E+01  1.300179553E+03  1.309834278E+03  1.250000000E+02  0.00000E+00  9.000E+00
      21     1     1     2   502   512  2.391887240E+01  7.786149180E+01  3.016962147E+01  8.686040768E+01  2.336015456E-06  0.00000E+00  9.000E+00
#rwgt            1           1  -1.0345053696023607E-002           2      324439           0
</event>
<event>
      5   9999  3.79277E-02  8.03018E+00 -1.00000E+00  2.07457E-01
      -5    -1     0     0     0   501  0.000000000E+00  0.000000000E+00  2.391210053E+02  2.391210053E+02  0.000000000E+00  0.00000E+00  9.000E+00
      21    -1     0     0   501   502  0.000000000E+00  0.000000000E+00 -1.858428058E+03  1.858428058E+03  0.000000000E+00  0.00000E+00  9.000E+00
      25     1     1     2     0     0 -9.752838767E+01  6.865264734E+01 -3.183666528E+02  3.622254795E+02  1.250000000E+02  0.00000E+00  9.000E+00
      25     1     1     2     0     0  9.267820733E+01 -6.225267774E+01 -1.513430228E+03  1.522682075E+03  1.250000000E+02  0.00000E+00  9.000E+00
      -5     1     1     2     0   502  4.850180335E+00 -6.399969601E+00  2.124898286E+02  2.126415085E+02  7.629394531E-06  0.00000E+00  9.000E+00
#rwgt            1           1   2.8908061451184835E-002           2      324515           0
</event>
<event>
      5   9999  3.79277E-02  3.37937E+01 -1.00000E+00  1.49533E-01
      21    -1     0     0   502   501  0.000000000E+00  0.000000000E+00  5.852380410E+02  5.852380410E+02  0.000000000E+00  0.00000E+00  9.000E+00
      21    -1     0     0   511   502  0.000000000E+00  0.000000000E+00 -1.699301636E+02  1.699301636E+02  0.000000000E+00  0.00000E+00  9.000E+00
      25     1     1     2     0     0 -1.536324607E+02 -2.057982887E+02  3.053187181E+02  4.180913635E+02  1.250000000E+02  0.00000E+00  9.000E+00
      25     1     1     2     0     0  1.202659061E+02  2.111541026E+02  1.245094001E+02  3.002957441E+02  1.250000000E+02  0.00000E+00  9.000E+00
      21     1     1     2   511   501  3.336655452E+01 -5.355813900E+00 -1.452024084E+01  3.678109701E+01  3.371747881E-07  0.00000E+00  9.000E+00
#rwgt            1           1   2.7474371961231484E-002           2      324820           0
</event>
<event>
      5   9999 -3.79277E-02  3.09216E+01 -1.00000E+00  1.52133E-01
      21    -1     0     0   512   501  0.000000000E+00  0.000000000E+00  3.924100434E+02  3.924100434E+02  0.000000000E+00  0.00000E+00  9.000E+00
      21    -1     0     0   501   502  0.000000000E+00  0.000000000E+00 -2.004989752E+02  2.004989752E+02  0.000000000E+00  0.00000E+00  9.000E+00
      25     1     1     2     0     0 -8.609649273E+01  1.417862918E+01  1.864025393E+01  1.535776633E+02  1.250000000E+02  0.00000E+00  9.000E+00
      25     1     1     2     0     0  6.051122367E+01 -3.154353320E+01 -9.376612850E+01  1.705100863E+02  1.250000000E+02  0.00000E+00  9.000E+00
      21     1     1     2   512   502  2.558526906E+01  1.736490401E+01  2.670369427E+02  2.688212690E+02  3.814697266E-06  0.00000E+00  9.000E+00
#rwgt            1           1  -2.3492972625872671E-002           2      325067           0
</event>
<event>
      5   9999  3.79277E-02  9.60963E+01 -1.00000E+00  1.24611E-01
      21    -1     0     0   502   501  0.000000000E+00  0.000000000E+00  6.336141388E+02  6.336141388E+02  0.000000000E+00  0.00000E+00  9.000E+00
      21    -1     0     0   501   511  0.000000000E+00  0.000000000E+00 -3.319132278E+02  3.319132278E+02  0.000000000E+00  0.00000E+00  9.000E+00
      25     1     1     2     0     0  2.146263698E+02 -1.611307079E+02  2.288926015E+02  3.742250749E+02  1.250000000E+02  0.00000E+00  9.000E+00
      25     1     1     2     0     0 -1.209688493E+02  1.826425341E+02  2.715080010E+02  3.705851486E+02  1.250000000E+02  0.00000E+00  9.000E+00
      21     1     1     2   502   511 -9.365752052E+01 -2.151182619E+01 -1.986996916E+02  2.207171431E+02  2.697398305E-06  0.00000E+00  9.000E+00
#rwgt            1           1   3.5380875348776646E-002           2      325190           0
</event>
<event>
      5   9999  3.79277E-02  1.51286E+01 -1.00000E+00  1.77035E-01
      21    -1     0     0   512   501  0.000000000E+00  0.000000000E+00  9.753304200E+01  9.753304200E+01  0.000000000E+00  0.00000E+00  9.000E+00
      21    -1     0     0   501   502  0.000000000E+00  0.000000000E+00 -6.770033875E+02  6.770033875E+02  0.000000000E+00  0.00000E+00  9.000E+00
      25     1     1     2     0     0 -1.954480115E+02 -6.199150669E+01 -2.864204547E+02  3.737707171E+02  1.250000000E+02  0.00000E+00  9.000E+00
      25     1     1     2     0     0  2.025168134E+02  4.861585795E+01 -2.983583822E+02  3.847327457E+02  1.250000000E+02  0.00000E+00  9.000E+00
      21     1     1     2   512   502 -7.068801884E+00  1.337564874E+01  5.308491435E+00  1.603296668E+01  4.298152060E-07  0.00000E+00  9.000E+00
#rwgt            1           1   3.8810404522851616E-002           2      325264           0
</event>
<event>
      5   9999  3.79277E-02  3.22208E+01 -1.00000E+00  1.50916E-01
      21    -1     0     0   502   501  0.000000000E+00  0.000000000E+00  1.593304275E+02  1.593304275E+02  0.000000000E+00  0.00000E+00  9.000E+00
      21    -1     0     0   511   502  0.000000000E+00  0.000000000E+00 -1.199179217E+03  1.199179217E+03  0.000000000E+00  0.00000E+00  9.000E+00
      25     1     1     2     0     0  1.150043569E+02  1.601148458E+02 -1.421037359E+02  2.732786815E+02  1.250000000E+02  0.00000E+00  9.000E+00
      25     1     1     2     0     0 -1.431409827E+02 -1.444142469E+02 -5.900029778E+01  2.458675472E+02  1.250000000E+02  0.00000E+00  9.000E+00
      21     1     1     2   511   501  2.813662579E+01 -1.570059891E+01 -8.387447555E+02  8.393634156E+02  1.078959322E-05  0.00000E+00  9.000E+00
#rwgt            1           1   4.3073083225378631E-002           2      325723           0
</event>
<event>
      5   9999  3.79277E-02  1.18030E+02 -1.00000E+00  1.20674E-01
      21    -1     0     0   502   501  0.000000000E+00  0.000000000E+00  9.207526805E+01  9.207526805E+01  0.000000000E+00  0.00000E+00  9.000E+00
      21    -1     0     0   501   512  0.000000000E+00  0.000000000E+00 -5.951581976E+02  5.951581976E+02  0.000000000E+00  0.00000E+00  9.000E+00
      25     1     1     2     0     0 -8.815487491E+01 -7.249510351E+01 -1.546376943E+02  2.292697942E+02  1.250000000E+02  0.00000E+00  9.000E+00
      25     1     1     2     0     0  4.923653959E+01 -3.893412611E+01 -7.187605271E+01  1.572617880E+02  1.250000000E+02  0.00000E+00  9.000E+00
      21     1     1     2   502   512  3.891833532E+01  1.114292296E+02 -2.765691825E+02  3.007018835E+02  0.000000000E+00  0.00000E+00  9.000E+00
#rwgt            2          11   1.1334263451095745E-003           2      325871           0
</event>
<event>
      5   9999  3.79277E-02  1.86403E+01 -1.00000E+00  1.68932E-01
      -5    -1     0     0     0   501  0.000000000E+00  0.000000000E+00  4.102252743E+02  4.102252743E+02  0.000000000E+00  0.00000E+00  9.000E+00
      21    -1     0     0   501   502  0.000000000E+00  0.000000000E+00 -1.333220250E+03  1.333220250E+03  0.000000000E+00  0.00000E+00  9.000E+00
      25     1     1     2     0     0  5.726475668E+02  1.852764948E+02 -3.201839895E+02  6.931056214E+02  1.250000000E+02  0.00000E+00  9.000E+00
      25     1     1     2     0     0 -5.773749581E+02 -2.033073425E+02 -7.075816327E+02  9.439239825E+02  1.250000000E+02  0.00000E+00  9.000E+00
      -5     1     1     2     0   502  4.727391242E+00  1.803084765E+01  1.047706467E+02  1.064159203E+02  1.907348633E-06  0.00000E+00  9.000E+00
#rwgt            1           1   3.2143317312291322E-002           2      325996           0
</event>
<event>
      5   9999  3.79277E-02  4.76244E+01 -1.00000E+00  1.40293E-01
      21    -1     0     0   502   501  0.000000000E+00  0.000000000E+00  3.042993392E+02  3.042993392E+02  0.000000000E+00  0.00000E+00  9.000E+00
      -2    -1     0     0     0   502  0.000000000E+00  0.000000000E+00 -5.432168310E+02  5.432168310E+02  0.000000000E+00  0.00000E+00  9.000E+00
      25     1     1     2     0     0  6.683696087E+01  2.553158543E+02  5.371389108E+01  2.969234698E+02  1.250000000E+02  0.00000E+00  9.000E+00
      25     1     1     2     0     0 -7.464705458E+01 -2.083362532E+02 -5.703984711E-02  2.541676227E+02  1.250000000E+02  0.00000E+00  9.000E+00
      -2     1     1     2     0   501  7.810093711E+00 -4.697960107E+01 -2.925743430E+02  2.964250777E+02  3.814697266E-06  0.00000E+00  9.000E+00
#rwgt            1           1   3.7197807420890114E-002           2      326176           0
</event>
<event>
      5   9999  3.79277E-02  8.69902E+01 -1.00000E+00  1.26613E-01
      21    -1     0     0   511   501  0.000000000E+00  0.000000000E+00  1.485982395E+02  1.485982395E+02  0.000000000E+00  0.00000E+00  9.000E+00
      21    -1     0     0   501   502  0.000000000E+00  0.000000000E+00 -4.019172894E+02  4.019172894E+02  0.000000000E+00  0.00000E+00  9.000E+00
      25     1     1     2     0     0 -9.101210451E+00  8.239704641E+01 -3.761981827E+01  1.546362054E+02  1.250000000E+02  0.00000E+00  9.000E+00
      25     1     1     2     0     0 -2.771008524E+01 -1.612146783E+02 -2.289363697E+02  3.078877761E+02  1.250000000E+02  0.00000E+00  9.000E+00
      21     1     1     2   511   502  3.681129569E+01  7.881763192E+01  1.323713807E+01  8.799154742E+01  2.223820461E-06  0.00000E+00  9.000E+00
#rwgt            1           1   3.0748061454159498E-002           2      326287           0
</event>
<event>
      5   9999  3.79277E-02  8.76078E+01 -1.00000E+00  1.26469E-01
      21    -1     0     0   512   501  0.000000000E+00  0.000000000E+00  1.597749794E+02  1.597749794E+02  0.000000000E+00  0.00000E+00  9.000E+00
      21    -1     0     0   501   502  0.000000000E+00  0.000000000E+00 -2.540188018E+03  2.540188018E+03  0.000000000E+00  0.00000E+00  9.000E+00
      25     1     1     2     0     0 -4.804868042E+02 -1.110252519E+02 -9.081855207E+02  1.040970756E+03  1.250000000E+02  0.00000E+00  9.000E+00
      25     1     1     2     0     0  5.390546386E+02  1.761784515E+02 -1.459083488E+03  1.570403889E+03  1.250000000E+02  0.00000E+00  9.000E+00
      21     1     1     2   512   502 -5.856783438E+01 -6.515319958E+01 -1.314403036E+01  8.858835236E+01  2.506231790E-06  0.00000E+00  9.000E+00
#rwgt            1           1   3.5958066869311911E-002           2      326355           0
</event>
<event>
      5   9999  3.79277E-02  4.82033E+01 -1.00000E+00  1.39988E-01
      21    -1     0     0   502   501  0.000000000E+00  0.000000000E+00  1.893557757E+03  1.893557757E+03  0.000000000E+00  0.00000E+00  9.000E+00
      21    -1     0     0   511   502  0.000000000E+00  0.000000000E+00 -4.585735645E+01  4.585735645E+01  0.000000000E+00  0.00000E+00  9.000E+00
      25     1     1     2     0     0 -1.966211520E+02 -8.517501233E+01  1.389401466E+03  1.411373832E+03  1.250000000E+02  0.00000E+00  9.000E+00
      25     1     1     2     0     0  1.558138158E+02  5.951725621E+01  3.230209323E+02  3.844317517E+02  1.250000000E+02  0.00000E+00  9.000E+00
      21     1     1     2   511   501  4.080733615E+01  2.565775612E+01  1.352780025E+02  1.436095299E+02  1.907348633E-06  0.00000E+00  9.000E+00
#rwgt            1           1   3.5800786014348406E-002           2      326561           0
</event>
<event>
      5   9999  3.79277E-02  2.22973E+01 -1.00000E+00  1.62565E-01
      21    -1     0     0   502   512  0.000000000E+00  0.000000000E+00  3.461962933E+02  3.461962933E+02  0.000000000E+00  0.00000E+00  9.000E+00
      21    -1     0     0   501   502  0.000000000E+00  0.000000000E+00 -1.206643720E+03  1.206643720E+03  0.000000000E+00  0.00000E+00  9.000E+00
      25     1     1     2     0     0 -6.335160526E+01 -7.843949461E-01 -1.000475470E+03  1.010242648E+03  1.250000000E+02  0.00000E+00  9.000E+00
      25     1     1     2     0     0  8.464782616E+01 -5.821639113E+00 -1.724832988E+02  2.292915924E+02  1.250000000E+02  0.00000E+00  9.000E+00
      21     1     1     2   501   512 -2.129622090E+01  6.606034059E+00  3.125113420E+02  3.133057733E+02  8.529922400E-06  0.00000E+00  9.000E+00
#rwgt            1           1   4.5968177021637038E-002           2      326856           0
</event>
<event>
      5   9999  3.79277E-02  1.31775E+02 -1.00000E+00  1.18668E-01
      21    -1     0     0   502   511  0.000000000E+00  0.000000000E+00  3.637226579E+02  3.637226579E+02  0.000000000E+00  0.00000E+00  9.000E+00
      21    -1     0     0   501   502  0.000000000E+00  0.000000000E+00 -3.842491085E+02  3.842491085E+02  0.000000000E+00  0.00000E+00  9.000E+00
      25     1     1     2     0     0 -1.347129613E+01 -1.155014574E+02  2.223276513E+02  2.803152636E+02  1.250000000E+02  0.00000E+00  9.000E+00
      25     1     1     2     0     0 -9.888344286E+00 -1.418631126E+01 -2.989093102E+02  3.244546294E+02  1.250000000E+02  0.00000E+00  9.000E+00
      21     1     1     2   501   511  2.335964042E+01  1.296877687E+02  5.605520837E+01  1.432018734E+02  1.651812370E-06  0.00000E+00  9.000E+00
#rwgt            1           1   5.3020307060936245E-002           2      327087           0
</event>
<event>
      5   9999  3.79277E-02  3.73413E+01 -1.00000E+00  1.46717E-01
      21    -1     0     0   502   501  0.000000000E+00  0.000000000E+00  1.143342201E+02  1.143342201E+02  0.000000000E+00  0.00000E+00  9.000E+00
       1    -1     0     0   501     0  0.000000000E+00  0.000000000E+00 -2.845370681E+03  2.845370681E+03  0.000000000E+00  0.00000E+00  9.000E+00
      25     1     1     2     0     0  5.800919891E+01  9.735152451E+01 -2.557120067E+02  3.063592937E+02  1.250000000E+02  0.00000E+00  9.000E+00
      25     1     1     2     0     0 -2.621081291E+01 -1.169278424E+02  4.521746781E+00  1.732182820E+02  1.250000000E+02  0.00000E+00  9.000E+00
       1     1     1     2   502     0 -3.179838600E+01  1.957631789E+01 -2.479846201E+03  2.480127325E+03  4.315837288E-05  0.00000E+00  9.000E+00
#rwgt            1           1   4.4707735370562753E-002           2      327135           0
</event>
<event>
      5   9999  3.79277E-02  1.10511E+02 -1.00000E+00  1.21907E-01
      21    -1     0     0   502   501  0.000000000E+00  0.000000000E+00  6.644799461E+02  6.644799461E+02  0.000000000E+00  0.00000E+00  9.000E+00
      21    -1     0     0   511   502  0.000000000E+00  0.000000000E+00 -1.921541208E+02  1.921541208E+02  0.000000000E+00  0.00000E+00  9.000E+00
      25     1     1     2     0     0  1.749314458E+02 -1.428093159E+02  1.569332128E+02  3.020737405E+02  1.250000000E+02  0.00000E+00  9.000E+00
      25     1     1     2     0     0 -1.463811845E+02  2.495690460E+02  3.127528467E+02  4.440174580E+02  1.250000000E+02  0.00000E+00  9.000E+00
      21     1     1     2   511   501 -2.855026129E+01 -1.067597301E+02  2.639765833E+00  1.105428684E+02  5.870376707E-07  0.00000E+00  9.000E+00
#rwgt            1           1   3.8627766099834614E-002           2      327287           0
</event>
<event>
      5   9999  3.79277E-02  8.57009E+01 -1.00000E+00  1.26919E-01
      21    -1     0     0   502   501  0.000000000E+00  0.000000000E+00  7.254160194E+02  7.254160194E+02  0.000000000E+00  0.00000E+00  9.000E+00
      21    -1     0     0   501   512  0.000000000E+00  0.000000000E+00 -5.175685103E+02  5.175685103E+02  0.000000000E+00  0.00000E+00  9.000E+00
      25     1     1     2     0     0  1.318433175E+02  7.408709757E+00  2.953969183E+02  3.468744567E+02  1.250000000E+02  0.00000E+00  9.000E+00
      25     1     1     2     0     0 -1.151465779E+02 -9.146738263E+01  3.771014526E+02  4.236219093E+02  1.250000000E+02  0.00000E+00  9.000E+00
      21     1     1     2   502   512 -1.669673960E+01  8.405867287E+01 -4.646508618E+02  4.724881638E+02  5.394796609E-06  0.00000E+00  9.000E+00
#rwgt            1           1  0.14662806076960966                2      327321           0
</event>
<event>
      5   9999  3.79277E-02  1.39011E+02 -1.00000E+00  1.17718E-01
      21    -1     0     0   502   501  0.000000000E+00  0.000000000E+00  1.386360388E+03  1.386360388E+03  0.000000000E+00  0.00000E+00  9.000E+00
      21    -1     0     0   501   511  0.000000000E+00  0.000000000E+00 -3.693041946E+02  3.693041946E+02  0.000000000E+00  0.00000E+00  9.000E+00
      25     1     1     2     0     0  1.573121553E+02 -1.892525741E+02  3.188102237E+02  4.216972963E+02  1.250000000E+02  0.00000E+00  9.000E+00
      25     1     1     2     0     0 -6.383787653E+01  2.921443368E+02  9.732642333E+02  1.025812778E+03  1.250000000E+02  0.00000E+00  9.000E+00
      21     1     1     2   502   511 -9.347427879E+01 -1.028917627E+02 -2.750182636E+02  3.081545082E+02  9.344061824E-06  0.00000E+00  9.000E+00
#rwgt            1           1   2.3555508631390401E-002           2      327391           0
</event>
<event>
      5   9999  3.79277E-02  4.12544E+01 -1.00000E+00  1.44013E-01
      21    -1     0     0   502   512  0.000000000E+00  0.000000000E+00  2.452061779E+02  2.452061779E+02  0.000000000E+00  0.00000E+00  9.000E+00
      21    -1     0     0   501   502  0.000000000E+00  0.000000000E+00 -2.343397015E+02  2.343397015E+02  0.000000000E+00  0.00000E+00  9.000E+00
      25     1     1     2     0     0  9.400081220E+01 -5.495258960E+00 -1.444002840E+02  2.129384714E+02  1.250000000E+02  0.00000E+00  9.000E+00
      25     1     1     2     0     0 -1.068577697E+02  4.469505631E+01  9.982218472E+01  1.974986065E+02  1.250000000E+02  0.00000E+00  9.000E+00
      21     1     1     2   501   512  1.285695749E+01 -3.919979735E+01  5.544457574E+01  6.910880152E+01  9.536743164E-07  0.00000E+00  9.000E+00
#rwgt            1           1   4.7125255599668084E-002           2      327480           0
</event>
<event>
      5   9999  3.79277E-02  9.34024E+01 -1.00000E+00  1.25176E-01
       5    -1     0     0   502     0  0.000000000E+00  0.000000000E+00  2.636242686E+02  2.636242686E+02  0.000000000E+00  0.00000E+00  9.000E+00
      21    -1     0     0   501   502  0.000000000E+00  0.000000000E+00 -6.057552245E+02  6.057552245E+02  0.000000000E+00  0.00000E+00  9.000E+00
      25     1     1     2     0     0 -7.856275128E+01 -1.580868996E+01 -5.470010489E+02  5.667955258E+02  1.250000000E+02  0.00000E+00  9.000E+00
      25     1     1     2     0     0 -2.704906765E+00 -3.023017578E+01  1.299405974E+02  1.828407474E+02  1.250000000E+02  0.00000E+00  9.000E+00
       5     1     1     2   501     0  8.126765805E+01  4.603886574E+01  7.492949556E+01  1.197432199E+02  2.132480600E-06  0.00000E+00  9.000E+00
#rwgt            2          21   8.8334295728287549E-006           2      327673           0
</event>
<event>
      5   9999  3.79277E-02  2.66138E+01 -1.00000E+00  1.56743E-01
      21    -1     0     0   502   501  0.000000000E+00  0.000000000E+00  4.502589178E+02  4.502589178E+02  0.000000000E+00  0.00000E+00  9.000E+00
      21    -1     0     0   501   511  0.000000000E+00  0.000000000E+00 -2.291044455E+02  2.291044455E+02  0.000000000E+00  0.00000E+00  9.000E+00
      25     1     1     2     0     0  3.805972155E+01  1.325574146E+02  2.179736552E+02  2.866313398E+02  1.250000000E+02  0.00000E+00  9.000E+00
      25     1     1     2     0     0 -1.572895488E+01 -1.470359868E+02  1.491145706E+02  2.443913595E+02  1.250000000E+02  0.00000E+00  9.000E+00
      21     1     1     2   502   511 -2.233076667E+01  1.447857228E+01 -1.459337535E+02  1.483406640E+02  1.907348633E-06  0.00000E+00  9.000E+00
#rwgt            1           1   3.1059413013514857E-002           2      327737           0
</event>
<event>
      5   9999  3.79277E-02  6.97445E+01 -1.00000E+00  1.31301E-01
      21    -1     0     0   512   501  0.000000000E+00  0.000000000E+00  5.524525370E+02  5.524525370E+02  0.000000000E+00  0.00000E+00  9.000E+00
      21    -1     0     0   501   502  0.000000000E+00  0.000000000E+00 -4.844576925E+02  4.844576925E+02  0.000000000E+00  0.00000E+00  9.000E+00
      25     1     1     2     0     0 -5.928086756E+01 -1.095127916E+01 -3.923107369E+02  4.161332311E+02  1.250000000E+02  0.00000E+00  9.000E+00
      25     1     1     2     0     0  6.259067162E-01  4.868575222E+01 -1.982696566E+01  1.356053199E+02  1.250000000E+02  0.00000E+00  9.000E+00
      21     1     1     2   512   502  5.865496085E+01 -3.773447306E+01  4.801325470E+02  4.851716785E+02  0.000000000E+00  0.00000E+00  9.000E+00
#rwgt            2          11   5.7183280286493450E-003           2      327916           0
</event>
<event>
      5   9999  3.79277E-02  1.68974E+01 -1.00000E+00  1.72645E-01
      21    -1     0     0   502   511  0.000000000E+00  0.000000000E+00  8.393286613E+02  8.393286613E+02  0.000000000E+00  0.00000E+00  9.000E+00
      21    -1     0     0   501   502  0.000000000E+00  0.000000000E+00 -9.544956235E+01  9.544956235E+01  0.000000000E+00  0.00000E+00  9.000E+00
      25     1     1     2     0     0  1.674038110E+02  8.816056662E+00  1.974841472E+02  2.876225776E+02  1.250000000E+02  0.00000E+00  9.000E+00
      25     1     1     2     0     0 -1.735870760E+02  6.909370866E+00  1.779873883E+02  2.783607780E+02  1.250000000E+02  0.00000E+00  9.000E+00
      21     1     1     2   501   511  6.183264995E+00 -1.572542753E+01  3.684075635E+02  3.687948680E+02  5.394796609E-06  0.00000E+00  9.000E+00
#rwgt            1           1   3.0591382779187208E-002           2      328041           0
</event>
<event>
      5   9999  3.79277E-02  4.60562E+01 -1.00000E+00  1.41142E-01
      21    -1     0     0   502   501  0.000000000E+00  0.000000000E+00  2.902313915E+03  2.902313915E+03  0.000000000E+00  0.00000E+00  9.000E+00
      21    -1     0     0   501   512  0.000000000E+00  0.000000000E+00 -2.874152018E+01  2.874152018E+01  0.000000000E+00  0.00000E+00  9.000E+00
      25     1     1     2     0     0 -1.084938147E+02 -1.667138816E+02  6.550348005E+02  6.958879335E+02  1.250000000E+02  0.00000E+00  9.000E+00
      25     1     1     2     0     0  9.833413533E+01  1.217922487E+02  2.069585837E+03  2.079257918E+03  1.250000000E+02  0.00000E+00  9.000E+00
      21     1     1     2   502   512  1.015967941E+01  4.492163284E+01  1.489517574E+02  1.559095834E+02  0.000000000E+00  0.00000E+00  9.000E+00
#rwgt            1           1   2.0646795225788581E-002           2      328303           0
</event>
<event>
      5   9999  3.79277E-02  9.74219E+01 -1.00000E+00  1.24340E-01
      21    -1     0     0   511   501  0.000000000E+00  0.000000000E+00  1.815486547E+03  1.815486547E+03  0.000000000E+00  0.00000E+00  9.000E+00
      21    -1     0     0   501   502  0.000000000E+00  0.000000000E+00 -5.216477756E+01  5.216477756E+01  0.000000000E+00  0.00000E+00  9.000E+00
      25     1     1     2     0     0  1.644850101E+02 -1.987488668E+02  7.684837199E+02  8.202125690E+02  1.250000000E+02  0.00000E+00  9.000E+00
      25     1     1     2     0     0 -1.269515564E+02  1.088473954E+02  4.796302956E+02  5.231010166E+02  1.250000000E+02  0.00000E+00  9.000E+00
      21     1     1     2   511   502 -3.753345375E+01  8.990147137E+01  5.152077536E+02  5.243377385E+02  0.000000000E+00  0.00000E+00  9.000E+00
#rwgt            1           1   4.4055724618711732E-002           2      328380           0
</event>
<event>
      5   9999  3.79277E-02  4.76817E+01 -1.00000E+00  1.40262E-01
      21    -1     0     0   502   501  0.000000000E+00  0.000000000E+00  5.318580686E+02  5.318580686E+02  0.000000000E+00  0.00000E+00  9.000E+00
      21    -1     0     0   501   512  0.000000000E+00  0.000000000E+00 -4.382250085E+02  4.382250085E+02  0.000000000E+00  0.00000E+00  9.000E+00
      25     1     1     2     0     0  1.603132123E+02 -1.007364522E+02 -8.322710434E+01  2.416607327E+02  1.250000000E+02  0.00000E+00  9.000E+00
      25     1     1     2     0     0 -2.014354275E+02  1.248716643E+02  4.103668847E+02  4.900970762E+02  1.250000000E+02  0.00000E+00  9.000E+00
      21     1     1     2   502   512  4.112221528E+01 -2.413521210E+01 -2.335067203E+02  2.383252682E+02  4.672030912E-06  0.00000E+00  9.000E+00
#rwgt            1           1   4.3875807373880832E-002           2      328420           0
</event>
<event>
      5   9999  3.79277E-02  4.95583E+01 -1.00000E+00  1.39296E-01
      21    -1     0     0   502   501  0.000000000E+00  0.000000000E+00  2.379116202E+01  2.379116202E+01  0.000000000E+00  0.00000E+00  9.000E+00
       2    -1     0     0   501     0  0.000000000E+00  0.000000000E+00 -2.635758807E+03  2.635758807E+03  0.000000000E+00  0.00000E+00  9.000E+00
      25     1     1     2     0     0  2.563474189E+01  9.734375202E+01 -3.172055660E+02  3.554958750E+02  1.250000000E+02  0.00000E+00  9.000E+00
      25     1     1     2     0     0  4.123287997E+00 -5.771447150E+01 -1.149990545E+03  1.158210350E+03  1.250000000E+02  0.00000E+00  9.000E+00
       2     1     1     2   502     0 -2.975802989E+01 -3.962928052E+01 -1.144771534E+03  1.145843744E+03  1.525878906E-05  0.00000E+00  9.000E+00
#rwgt            1           1   5.0816004049326305E-002           2      328600           0
</event>
<event>
      5   9999  3.79277E-02  6.68201E+01 -1.00000E+00  1.32251E-01
       2    -1     0     0   502     0  0.000000000E+00  0.000000000E+00  2.981868497E+03  2.981868497E+03  0.000000000E+00  0.00000E+00  9.000E+00
      21    -1     0     0   501   502  0.000000000E+00  0.000000000E+00 -3.100097692E+01  3.100097692E+01  0.000000000E+00  0.00000E+00  9.000E+00
      25     1     1     2     0     0 -7.268760373E+01 -2.200326772E+02  7.840553175E+02  8.270825882E+02  1.250000000E+02  0.00000E+00  9.000E+00
      25     1     1     2     0     0  9.220498043E+01  1.561265611E+02  1.705430604E+03  1.719591756E+03  1.250000000E+02  0.00000E+00  9.000E+00
       2     1     1     2   501     0 -1.951737670E+01  6.390611610E+01  4.613815987E+02  4.661951300E+02  7.629394531E-06  0.00000E+00  9.000E+00
#rwgt            1           1   5.2523445185514689E-002           2      328685           0
</event>
<event>
      5   9999  3.79277E-02  1.44638E+01 -1.00000E+00  1.78886E-01
      21    -1     0     0   502   501  0.000000000E+00  0.000000000E+00  1.000012618E+02  1.000012618E+02  0.000000000E+00  0.00000E+00  9.000E+00
       2    -1     0     0   501     0  0.000000000E+00  0.000000000E+00 -4.600125448E+02  4.600125448E+02  0.000000000E+00  0.00000E+00  9.000E+00
      25     1     1     2     0     0 -1.453256940E+02  2.801482456E+01 -1.939170481E+02  2.741043766E+02  1.250000000E+02  0.00000E+00  9.000E+00
      25     1     1     2     0     0  1.324790553E+02 -2.136905912E+01 -8.253539262E+01  2.011080004E+02  1.250000000E+02  0.00000E+00  9.000E+00
       2     1     1     2   502     0  1.284663865E+01 -6.645765438E+00 -8.355884236E+01  8.480142959E+01  1.348699152E-06  0.00000E+00  9.000E+00
#rwgt            1           1   4.1996840752731468E-002           2      328870           0
</event>
<event>
      5   9999 -3.79277E-02  1.07646E+01 -1.00000E+00  1.92129E-01
      21    -1     0     0   502   501  0.000000000E+00  0.000000000E+00  3.265355437E+02  3.265355437E+02  0.000000000E+00  0.00000E+00  9.000E+00
      21    -1     0     0   511   502  0.000000000E+00  0.000000000E+00 -3.064884529E+02  3.064884529E+02  0.000000000E+00  0.00000E+00  9.000E+00
      25     1     1     2     0     0  1.842631902E+02  1.992222500E+02  1.313578700E+01  2.990651720E+02  1.250000000E+02  0.00000E+00  9.000E+00
      25     1     1     2     0     0 -1.771986794E+02 -1.911000624E+02  4.665752177E+01  2.927806861E+02  1.250000000E+02  0.00000E+00  9.000E+00
      21     1     1     2   511   501 -7.064510860E+00 -8.122187675E+00 -3.974621796E+01  4.117813848E+01  4.768371582E-07  0.00000E+00  9.000E+00
#rwgt            1           1  -4.8469851646881064E-002           2      329051           0
</event>
<event>
      5   9999  3.79277E-02  1.72695E+01 -1.00000E+00  1.71807E-01
       2    -1     0     0   502     0  0.000000000E+00  0.000000000E+00  1.345213310E+03  1.345213310E+03  0.000000000E+00  0.00000E+00  9.000E+00
      21    -1     0     0   501   502  0.000000000E+00  0.000000000E+00 -1.811711189E+02  1.811711189E+02  0.000000000E+00  0.00000E+00  9.000E+00
      25     1     1     2     0     0  1.534062032E+02 -1.924504455E+01 -6.800325473E+01  2.101268131E+02  1.250000000E+02  0.00000E+00  9.000E+00
      25     1     1     2     0     0 -1.477816718E+02  3.557293496E+01  1.883101399E+02  2.723794504E+02  1.250000000E+02  0.00000E+00  9.000E+00
       2     1     1     2   501     0 -5.624531460E+00 -1.632789041E+01  1.043735306E+03  1.043878165E+03  2.157918644E-05  0.00000E+00  9.000E+00
#rwgt            1           1   4.0327868937593173E-002           2      329364           0
</event>
<event>
      5   9999  3.79277E-02  4.27108E+01 -1.00000E+00  1.43096E-01
      21    -1     0     0   502   511  0.000000000E+00  0.000000000E+00  2.124230118E+03  2.124230118E+03  0.000000000E+00  0.00000E+00  9.000E+00
      21    -1     0     0   501   502  0.000000000E+00  0.000000000E+00 -3.552648566E+01  3.552648566E+01  0.000000000E+00  0.00000E+00  9.000E+00
      25     1     1     2     0     0 -3.205346629E+00  4.511287867E+01  1.446278770E+02  1.964374427E+02  1.250000000E+02  0.00000E+00  9.000E+00
      25     1     1     2     0     0  4.080202551E+01 -2.484715844E+01  4.714392525E+02  4.900634198E+02  1.250000000E+02  0.00000E+00  9.000E+00
      21     1     1     2   501   511 -3.759667888E+01 -2.026572023E+01  1.472636503E+03  1.473255741E+03  2.157918644E-05  0.00000E+00  9.000E+00
#rwgt            1           1  0.10268262228341486                2      329669           0
</event>
<event>
      5   9999  3.79277E-02  5.40657E+01 -1.00000E+00  1.37166E-01
      21    -1     0     0   502   512  0.000000000E+00  0.000000000E+00  1.387052270E+02  1.387052270E+02  0.000000000E+00  0.00000E+00  9.000E+00
      21    -1     0     0   501   502  0.000000000E+00  0.000000000E+00 -6.179505894E+02  6.179505894E+02  0.000000000E+00  0.00000E+00  9.000E+00
      25     1     1     2     0     0 -5.140531232E+01 -1.378649647E+02 -1.669180098E+02  2.552173126E+02  1.250000000E+02  0.00000E+00  9.000E+00
      25     1     1     2     0     0  4.455804541E+00  1.646762923E+02 -3.690743659E+02  4.230591247E+02  1.250000000E+02  0.00000E+00  9.000E+00
      21     1     1     2   501   512  4.694950778E+01 -2.681132757E+01  5.674701322E+01  7.837937915E+01  9.536743164E-07  0.00000E+00  9.000E+00
#rwgt            1           1   2.8081155019294105E-002           2      329949           0
</event>
<event>
      5   9999  3.79277E-02  2.63563E+01 -1.00000E+00  1.57051E-01
      21    -1     0     0   502   511  0.000000000E+00  0.000000000E+00  5.954598092E+02  5.954598092E+02  0.000000000E+00  0.00000E+00  9.000E+00
      21    -1     0     0   501   502  0.000000000E+00  0.000000000E+00 -2.552993006E+02  2.552993006E+02  0.000000000E+00  0.00000E+00  9.000E+00
      25     1     1     2     0     0 -1.630526977E+02 -3.912818246E+01 -2.647601159E+01  2.108155025E+02  1.250000000E+02  0.00000E+00  9.000E+00
      25     1     1     2     0     0  1.650199414E+02  6.541100492E+01 -4.974197785E+01  2.227317781E+02  1.250000000E+02  0.00000E+00  9.000E+00
      21     1     1     2   501   511 -1.967243700E+00 -2.628282246E+01  4.163784980E+02  4.172118292E+02  0.000000000E+00  0.00000E+00  9.000E+00
#rwgt            1           1   4.0902016190478216E-002           2      330015           0
</event>
<event>
      5   9999  3.79277E-02  1.03812E+01 -1.00000E+00  1.93898E-01
      21    -1     0     0   502   501  0.000000000E+00  0.000000000E+00  5.715352110E+01  5.715352110E+01  0.000000000E+00  0.00000E+00  9.000E+00
      21    -1     0     0   512   502  0.000000000E+00  0.000000000E+00 -9.539215833E+02  9.539215833E+02  0.000000000E+00  0.00000E+00  9.000E+00
      25     1     1     2     0     0 -2.616698568E+01  1.699547252E+02 -2.652961077E+02  3.399652108E+02  1.250000000E+02  0.00000E+00  9.000E+00
      25     1     1     2     0     0  3.310669739E+01 -1.622340476E+02 -5.307845752E+02  5.698887654E+02  1.250000000E+02  0.00000E+00  9.000E+00
      21     1     1     2   512   501 -6.939711704E+00 -7.720677670E+00 -1.006873793E+02  1.012211283E+02  1.348699152E-06  0.00000E+00  9.000E+00
#rwgt            1           1   2.3850796120527276E-002           2      330190           0
</event>
<event>
      5   9999  3.92168E-02  2.20689E+01 -1.00000E+00  1.62917E-01
      21    -1     0     0   511   501  0.000000000E+00  0.000000000E+00  4.576061336E+02  4.576061336E+02  0.000000000E+00  0.00000E+00  9.000E+00
      21    -1     0     0   501   502  0.000000000E+00  0.000000000E+00 -1.832837143E+02  1.832837143E+02  0.000000000E+00  0.00000E+00  9.000E+00
      25     1     1     2     0     0  1.561470433E+02  1.007955859E+02  5.213112475E+01  2.299658745E+02  1.250000000E+02  0.00000E+00  9.000E+00
      25     1     1     2     0     0 -1.758621135E+02 -1.107128890E+02  6.346979773E+01  2.506755711E+02  1.250000000E+02  0.00000E+00  9.000E+00
      21     1     1     2   511   502  1.971507017E+01  9.917303050E+00  1.587214968E+02  1.602484022E+02  1.907348633E-06  0.00000E+00  9.000E+00
#rwgt            1           1  0.30627488551155313                2      330454           0
</event>
<event>
      5   9999  3.79277E-02  6.37679E+01 -1.00000E+00  1.33305E-01
      21    -1     0     0   502   512  0.000000000E+00  0.000000000E+00  2.672265018E+02  2.672265018E+02  0.000000000E+00  0.00000E+00  9.000E+00
      21    -1     0     0   501   502  0.000000000E+00  0.000000000E+00 -6.709937086E+02  6.709937086E+02  0.000000000E+00  0.00000E+00  9.000E+00
      25     1     1     2     0     0  2.017185869E+02  2.995017066E+02 -3.309817384E+02  5.055349362E+02  1.250000000E+02  0.00000E+00  9.000E+00
      25     1     1     2     0     0 -2.146090460E+02 -2.370502321E+02 -1.079042894E+02  3.598863582E+02  1.250000000E+02  0.00000E+00  9.000E+00
      21     1     1     2   501   512  1.289045908E+01 -6.245147448E+01  3.511882096E+01  7.279891610E+01  1.066240300E-06  0.00000E+00  9.000E+00
#rwgt            1           1   3.9975960804937150E-002           2      330645           0
</event>
<event>
      5   9999  3.79277E-02  2.46314E+01 -1.00000E+00  1.59236E-01
       2    -1     0     0   502     0  0.000000000E+00  0.000000000E+00  1.879138922E+03  1.879138922E+03  0.000000000E+00  0.00000E+00  9.000E+00
      21    -1     0     0   501   502  0.000000000E+00  0.000000000E+00 -1.437480644E+02  1.437480644E+02  0.000000000E+00  0.00000E+00  9.000E+00
      25     1     1     2     0     0  1.550510376E+01 -6.299965328E+01  1.967802122E+02  2.419851576E+02  1.250000000E+02  0.00000E+00  9.000E+00
      25     1     1     2     0     0 -3.307112437E+01  4.573296436E+01 -8.220466092E+01  1.598993733E+02  1.250000000E+02  0.00000E+00  9.000E+00
       2     1     1     2   501     0  1.756602061E+01  1.726668892E+01  1.620815306E+03  1.621002455E+03  2.157918644E-05  0.00000E+00  9.000E+00
#rwgt            1           1   4.6313676171726999E-002           2      330989           0
</event>
<event>
      5   9999  3.79277E-02  8.89126E+01 -1.00000E+00  1.26168E-01
      -2    -1     0     0     0   501  0.000000000E+00  0.000000000E+00  4.501089251E+01  4.501089251E+01  0.000000000E+00  0.00000E+00  9.000E+00
      21    -1     0     0   501   502  0.000000000E+00  0.000000000E+00 -1.850315031E+03  1.850315031E+03  0.000000000E+00  0.00000E+00  9.000E+00
      25     1     1     2     0     0  6.039555866E+01  2.522821014E+00 -6.888551307E+02  7.027093135E+02  1.250000000E+02  0.00000E+00  9.000E+00
      25     1     1     2     0     0 -1.011968633E+02  7.647532673E+01 -1.083119873E+03  1.097662489E+03  1.250000000E+02  0.00000E+00  9.000E+00
      -2     1     1     2     0   502  4.080130462E+01 -7.899814775E+01 -3.332913437E+01  9.495412052E+01  2.286830675E-06  0.00000E+00  9.000E+00
#rwgt            1           1  0.17427973103380393                2      331090           0
</event>
<event>
      5   9999  3.79277E-02  1.39123E+01 -1.00000E+00  1.80520E-01
      -4    -1     0     0     0   501  0.000000000E+00  0.000000000E+00  1.422424424E+02  1.422424424E+02  0.000000000E+00  0.00000E+00  9.000E+00
      21    -1     0     0   501   502  0.000000000E+00  0.000000000E+00 -1.537520168E+03  1.537520168E+03  0.000000000E+00  0.00000E+00  9.000E+00
      25     1     1     2     0     0  2.105890109E+02  2.530801913E+01 -1.141873312E+03  1.168112960E+03  1.250000000E+02  0.00000E+00  9.000E+00
      25     1     1     2     0     0 -2.116509530E+02 -1.143631405E+01 -3.423567082E+02  4.216159755E+02  1.250000000E+02  0.00000E+00  9.000E+00
      -4     1     1     2     0   502  1.061942051E+00 -1.387170508E+01  8.895229437E+01  9.003367479E+01  3.438521648E-06  0.00000E+00  9.000E+00
#rwgt            1           1   4.3340269692705907E-002           2      331137           0
</event>
<event>
      5   9999  3.79277E-02  8.93946E+01 -1.00000E+00  1.26058E-01
      21    -1     0     0   502   501  0.000000000E+00  0.000000000E+00  7.417596969E+02  7.417596969E+02  0.000000000E+00  0.00000E+00  9.000E+00
       3    -1     0     0   501     0  0.000000000E+00  0.000000000E+00 -5.019078172E+02  5.019078172E+02  0.000000000E+00  0.00000E+00  9.000E+00
      25     1     1     2     0     0  6.887814447E+01  3.251006027E+02  4.233392551E+02  5.525176247E+02  1.250000000E+02  0.00000E+00  9.000E+00
      25     1     1     2     0     0 -1.198771513E+02 -2.516806229E+02  1.539231556E+02  3.420979468E+02  1.250000000E+02  0.00000E+00  9.000E+00
       3     1     1     2   502     0  5.099900687E+01 -7.341997975E+01 -3.374105311E+02  3.490519426E+02  5.394796609E-06  0.00000E+00  9.000E+00
#rwgt            1           1  0.11440905769743295                2      331366           0
</event>
<event>
      5   9999  3.79277E-02  4.21132E+01 -1.00000E+00  1.43467E-01
      21    -1     0     0   502   501  0.000000000E+00  0.000000000E+00  6.574481597E+02  6.574481597E+02  0.000000000E+00  0.00000E+00  9.000E+00
      21    -1     0     0   511   502  0.000000000E+00  0.000000000E+00 -5.604343060E+02  5.604343060E+02  0.000000000E+00  0.00000E+00  9.000E+00
      25     1     1     2     0     0  3.101698872E+01  3.474740702E+01  1.326588528E+01  1.340537937E+02  1.250000000E+02  0.00000E+00  9.000E+00
      25     1     1     2     0     0  1.107639014E+01 -3.603989196E+01  5.755772290E+02  5.901997177E+02  1.250000000E+02  0.00000E+00  9.000E+00
      21     1     1     2   511   501 -4.209337886E+01  1.292484941E+00 -4.918292606E+02  4.936289544E+02  0.000000000E+00  0.00000E+00  9.000E+00
#rwgt            1           1   5.1849296247150296E-002           2      331436           0
</event>
<event>
      5   9999  3.79277E-02  3.39088E+01 -1.00000E+00  1.49435E-01
      21    -1     0     0   502   501  0.000000000E+00  0.000000000E+00  4.385397923E+02  4.385397923E+02  0.000000000E+00  0.00000E+00  9.000E+00
      21    -1     0     0   512   502  0.000000000E+00  0.000000000E+00 -1.857522030E+02  1.857522030E+02  0.000000000E+00  0.00000E+00  9.000E+00
      25     1     1     2     0     0  4.973851226E+01 -1.227847871E+02  1.925690891E+01  1.831552677E+02  1.250000000E+02  0.00000E+00  9.000E+00
      25     1     1     2     0     0 -4.638904736E+01  8.904182206E+01  3.146899213E+02  3.531786183E+02  1.250000000E+02  0.00000E+00  9.000E+00
      21     1     1     2   512   501 -3.349464901E+00  3.374296508E+01 -8.115924089E+01  8.795810929E+01  9.536743164E-07  0.00000E+00  9.000E+00
#rwgt            1           1   4.5653000834650272E-002           2      331559           0
</event>
<event>
      5   9999  3.79277E-02  4.51800E+01 -1.00000E+00  1.41635E-01
      21    -1     0     0   502   501  0.000000000E+00  0.000000000E+00  2.466782583E+02  2.466782583E+02  0.000000000E+00  0.00000E+00  9.000E+00
      -1    -1     0     0     0   502  0.000000000E+00  0.000000000E+00 -1.942856275E+02  1.942856275E+02  0.000000000E+00  0.00000E+00  9.000E+00
      25     1     1     2     0     0 -1.183236883E+02 -4.966684124E+01 -2.253097137E+01  1.805545209E+02  1.250000000E+02  0.00000E+00  9.000E+00
      25     1     1     2     0     0  1.503859610E+02  1.783535075E+01  3.367344242E+01  1.992308654E+02  1.250000000E+02  0.00000E+00  9.000E+00
      -1     1     1     2     0   501 -3.206227265E+01  3.183149049E+01  4.125015981E+01  6.117849948E+01  1.066240300E-06  0.00000E+00  9.000E+00
#rwgt            1           1   4.1970983588963950E-002           2      331678           0
</event>
<event>
      5   9999  3.79277E-02  3.44911E+01 -1.00000E+00  1.48948E-01
      21    -1     0     0   502   501  0.000000000E+00  0.000000000E+00  6.433404419E+01  6.433404419E+01  0.000000000E+00  0.00000E+00  9.000E+00
      21    -1     0     0   511   502  0.000000000E+00  0.000000000E+00 -1.658764371E+03  1.658764371E+03  0.000000000E+00  0.00000E+00  9.000E+00
      25     1     1     2     0     0 -7.789651318E+00  1.523307058E+02 -7.419648218E+02  7.677252890E+02  1.250000000E+02  0.00000E+00  9.000E+00
      25     1     1     2     0     0 -2.639912061E+01 -1.568876430E+02 -1.495121352E+02  2.515740938E+02  1.250000000E+02  0.00000E+00  9.000E+00
      21     1     1     2   511   501  3.418877193E+01  4.556937204E+00 -7.029533704E+02  7.037990329E+02  7.629394531E-06  0.00000E+00  9.000E+00
#rwgt            1           1   3.6466194164307880E-002           2      331823           0
</event>
<event>
      5   9999  3.79277E-02  2.34408E+01 -1.00000E+00  1.60875E-01
      -1    -1     0     0     0   501  0.000000000E+00  0.000000000E+00  1.348066415E+02  1.348066415E+02  0.000000000E+00  0.00000E+00  9.000E+00
      21    -1     0     0   501   502  0.000000000E+00  0.000000000E+00 -5.472608764E+02  5.472608764E+02  0.000000000E+00  0.00000E+00  9.000E+00
      25     1     1     2     0     0 -8.500250246E+01  1.311149991E+02 -2.115946486E+01  2.012195104E+02  1.250000000E+02  0.00000E+00  9.000E+00
      25     1     1     2     0     0  1.077419545E+02 -1.254238349E+02 -4.040836588E+02  4.541454287E+02  1.250000000E+02  0.00000E+00  9.000E+00
      -1     1     1     2     0   502 -2.273945209E+01 -5.691164274E+00  1.278888879E+01  2.670257869E+01  6.529361695E-07  0.00000E+00  9.000E+00
#rwgt            1           1   5.8880733233652720E-002           2      331959           0
</event>
<event>
      5   9999  3.79277E-02  5.65181E+01 -1.00000E+00  1.36106E-01
      21    -1     0     0   502   501  0.000000000E+00  0.000000000E+00  4.921133073E+01  4.921133073E+01  0.000000000E+00  0.00000E+00  9.000E+00
      21    -1     0     0   511   502  0.000000000E+00  0.000000000E+00 -1.117266377E+03  1.117266377E+03  0.000000000E+00  0.00000E+00  9.000E+00
      25     1     1     2     0     0  8.580981690E+01  9.707984562E+01 -1.825143395E+02  2.563675198E+02  1.250000000E+02  0.00000E+00  9.000E+00
      25     1     1     2     0     0 -5.941312137E+01 -4.710476663E+01 -7.329606854E+02  7.473989191E+02  1.250000000E+02  0.00000E+00  9.000E+00
      21     1     1     2   511   501 -2.639669553E+01 -4.997507899E+01 -1.525800218E+02  1.627112692E+02  1.907348633E-06  0.00000E+00  9.000E+00
#rwgt            1           1   3.6783663458891634E-002           2      332096           0
</event>
<event>
      5   9999  3.79277E-02  3.43486E+01 -1.00000E+00  1.49066E-01
      21    -1     0     0   502   512  0.000000000E+00  0.000000000E+00  1.946486437E+02  1.946486437E+02  0.000000000E+00  0.00000E+00  9.000E+00
      21    -1     0     0   501   502  0.000000000E+00  0.000000000E+00 -2.793844768E+02  2.793844768E+02  0.000000000E+00  0.00000E+00  9.000E+00
      25     1     1     2     0     0  3.237384227E+01 -1.143710520E+02 -1.600289703E+02  2.352935923E+02  1.250000000E+02  0.00000E+00  9.000E+00
      25     1     1     2     0     0 -1.655316038E+01  1.448592298E+02  6.702549663E+01  2.034099820E+02  1.250000000E+02  0.00000E+00  9.000E+00
      21     1     1     2   501   512 -1.582068189E+01 -3.048817772E+01  8.267640603E+00  3.532954623E+01  4.298152060E-07  0.00000E+00  9.000E+00
#rwgt            1           1   4.5012090999163930E-002           2      332153           0
</event>
<event>
      5   9999  3.79277E-02  5.56192E+01 -1.00000E+00  1.36487E-01
      21    -1     0     0   502   501  0.000000000E+00  0.000000000E+00  3.221680901E+02  3.221680901E+02  0.000000000E+00  0.00000E+00  9.000E+00
      21    -1     0     0   511   502  0.000000000E+00  0.000000000E+00 -1.731413913E+02  1.731413913E+02  0.000000000E+00  0.00000E+00  9.000E+00
      25     1     1     2     0     0  2.359303048E+01 -6.581574236E+01  8.511051456E-01  1.432273277E+02  1.250000000E+02  0.00000E+00  9.000E+00
      25     1     1     2     0     0  2.406211032E+01  3.713672663E+01  2.226414926E+02  2.591377160E+02  1.250000000E+02  0.00000E+00  9.000E+00
      21     1     1     2   511   501 -4.765514080E+01  2.867901573E+01 -7.446589894E+01  9.294443767E+01  1.907348633E-06  0.00000E+00  9.000E+00
#rwgt            2          11   9.7830634010832732E-004           2      332247           0
</event>
<event>
      5   9999  3.79277E-02  3.57140E+01 -1.00000E+00  1.47960E-01
      21    -1     0     0   512   501  0.000000000E+00  0.000000000E+00  4.251189798E+02  4.251189798E+02  0.000000000E+00  0.00000E+00  9.000E+00
      21    -1     0     0   501   502  0.000000000E+00  0.000000000E+00 -1.177025075E+02  1.177025075E+02  0.000000000E+00  0.00000E+00  9.000E+00
      25     1     1     2     0     0  2.259191125E+01 -4.340526913E+01 -5.109026156E+01  1.436301732E+02  1.250000000E+02  0.00000E+00  9.000E+00
      25     1     1     2     0     0 -5.489699129E+01  2.817794672E+01  2.964873669E+02  3.276239232E+02  1.250000000E+02  0.00000E+00  9.000E+00
      21     1     1     2   512   502  3.230508004E+01  1.522732241E+01  6.201936702E+01  7.156739083E+01  6.743495762E-07  0.00000E+00  9.000E+00
#rwgt            1           1   4.1272122337911943E-002           2      332372           0
</event>
<event>
      5   9999 -3.79277E-02  1.10447E+01 -1.00000E+00  1.90897E-01
      21    -1     0     0   502   501  0.000000000E+00  0.000000000E+00  1.173712840E+02  1.173712840E+02  0.000000000E+00  0.00000E+00  9.000E+00
      21    -1     0     0   501   511  0.000000000E+00  0.000000000E+00 -5.795166912E+02  5.795166912E+02  0.000000000E+00  0.00000E+00  9.000E+00
      25     1     1     2     0     0 -9.421123609E+01 -1.020673076E+02 -1.365431424E+02  2.314357838E+02  1.250000000E+02  0.00000E+00  9.000E+00
      25     1     1     2     0     0  8.583015013E+01  1.092605982E+02 -5.527229247E+01  1.948966888E+02  1.250000000E+02  0.00000E+00  9.000E+00
      21     1     1     2   502   511  8.381085963E+00 -7.193290646E+00 -2.703299724E+02  2.705555027E+02  3.814697266E-06  0.00000E+00  9.000E+00
#rwgt            1           1  -1.3019778102309643E-002           2      332493           0
</event>
<event>
      5   9999  3.79277E-02  2.58313E+01 -1.00000E+00  1.57694E-01
      21    -1     0     0   502   501  0.000000000E+00  0.000000000E+00  2.726275937E+02  2.726275937E+02  0.000000000E+00  0.00000E+00  9.000E+00
      21    -1     0     0   512   502  0.000000000E+00  0.000000000E+00 -5.349098376E+02  5.349098376E+02  0.000000000E+00  0.00000E+00  9.000E+00
      25     1     1     2     0     0 -1.998214108E+02  8.653658731E+01 -2.903434136E+02  3.838508499E+02  1.250000000E+02  0.00000E+00  9.000E+00
      25     1     1     2     0     0  1.743146821E+02 -8.245429545E+01  1.659121003E+02  2.834363143E+02  1.250000000E+02  0.00000E+00  9.000E+00
      21     1     1     2   512   501  2.550672874E+01 -4.082291858E+00 -1.378509307E+02  1.402502670E+02  1.907348633E-06  0.00000E+00  9.000E+00
#rwgt            1           1   4.0623233802160333E-002           2      332810           0
</event>
<event>
      5   9999  3.79277E-02  1.47011E+01 -1.00000E+00  1.78211E-01
      21    -1     0     0   502   501  0.000000000E+00  0.000000000E+00  7.102756898E+01  7.102756898E+01  0.000000000E+00  0.00000E+00  9.000E+00
      21    -1     0     0   501   511  0.000000000E+00  0.000000000E+00 -5.735896153E+02  5.735896153E+02  0.000000000E+00  0.00000E+00  9.000E+00
      25     1     1     2     0     0 -2.226762512E+01  8.557432827E+01 -1.092050832E+02  1.880679744E+02  1.250000000E+02  0.00000E+00  9.000E+00
      25     1     1     2     0     0  7.567271448E+00 -8.572172962E+01 -1.521530944E+02  2.148977493E+02  1.250000000E+02  0.00000E+00  9.000E+00
      21     1     1     2   502   511  1.470035367E+01  1.474013464E-01 -2.412038687E+02  2.416514606E+02  2.697398305E-06  0.00000E+00  9.000E+00
#rwgt            1           1   3.5441108190176741E-002           2      332992           0
</event>
<event>
      5   9999  3.79277E-02  8.56369E+01 -1.00000E+00  1.26934E-01
      21    -1     0     0   512   501  0.000000000E+00  0.000000000E+00  5.504771548E+02  5.504771548E+02  0.000000000E+00  0.00000E+00  9.000E+00
      21    -1     0     0   501   502  0.000000000E+00  0.000000000E+00 -1.114467833E+02  1.114467833E+02  0.000000000E+00  0.00000E+00  9.000E+00
      25     1     1     2     0     0  1.415271351E+02 -1.278131784E+02  1.613222583E+02  2.793134611E+02  1.250000000E+02  0.00000E+00  9.000E+00
      25     1     1     2     0     0 -8.445961331E+01  6.396199800E+01  1.198210024E+02  2.029941775E+02  1.250000000E+02  0.00000E+00  9.000E+00
      21     1     1     2   512   502 -5.706752180E+01  6.385118036E+01  1.578871109E+02  1.796162996E+02  1.907348633E-06  0.00000E+00  9.000E+00
#rwgt            1           1   2.5332760107040411E-002           2      333170           0
</event>
<event>
      5   9999  3.79277E-02  4.56155E+01 -1.00000E+00  1.41388E-01
      21    -1     0     0   502   511  0.000000000E+00  0.000000000E+00  1.225386146E+03  1.225386146E+03  0.000000000E+00  0.00000E+00  9.000E+00
      21    -1     0     0   501   502  0.000000000E+00  0.000000000E+00 -5.366410046E+02  5.366410046E+02  0.000000000E+00  0.00000E+00  9.000E+00
      25     1     1     2     0     0  3.311132113E+01 -6.431543396E+02  2.864178759E+02  7.158240452E+02  1.250000000E+02  0.00000E+00  9.000E+00
      25     1     1     2     0     0 -5.183930121E+01  6.015605854E+02 -2.436970821E+01  6.170748202E+02  1.250000000E+02  0.00000E+00  9.000E+00
      21     1     1     2   501   511  1.872798008E+01  4.159375415E+01  4.266969734E+02  4.291282847E+02  0.000000000E+00  0.00000E+00  9.000E+00
#rwgt            1           1   1.3678926290011077E-002           2      333256           0
</event>
<event>
      5   9999  3.79277E-02  3.27446E+01 -1.00000E+00  1.50445E-01
      21    -1     0     0   502   501  0.000000000E+00  0.000000000E+00  6.294224790E+02  6.294224790E+02  0.000000000E+00  0.00000E+00  9.000E+00
      21    -1     0     0   501   512  0.000000000E+00  0.000000000E+00 -1.316544650E+02  1.316544650E+02  0.000000000E+00  0.00000E+00  9.000E+00
      25     1     1     2     0     0  1.623760857E+02  9.761911536E+01  3.226040112E+02  3.944538413E+02  1.250000000E+02  0.00000E+00  9.000E+00
      25     1     1     2     0     0 -1.397665758E+02 -1.213048889E+02  2.184133620E+02  3.123763251E+02  1.250000000E+02  0.00000E+00  9.000E+00
      21     1     1     2   502   512 -2.260950991E+01  2.368577349E+01 -4.324935919E+01  5.424677755E+01  8.259061849E-07  0.00000E+00  9.000E+00
#rwgt            1           1   3.8402849711154458E-002           2      333430           0
</event>
<event>
      5   9999 -3.79277E-02  5.77334E+01 -1.00000E+00  1.35603E-01
      21    -1     0     0   502   501  0.000000000E+00  0.000000000E+00  3.209280867E+01  3.209280867E+01  0.000000000E+00  0.00000E+00  9.000E+00
      21    -1     0     0   501   511  0.000000000E+00  0.000000000E+00 -2.265648586E+03  2.265648586E+03  0.000000000E+00  0.00000E+00  9.000E+00
      25     1     1     2     0     0 -9.173331279E+01  1.351819497E+02 -1.050933235E+03  1.070875728E+03  1.250000000E+02  0.00000E+00  9.000E+00
      25     1     1     2     0     0  7.699561057E+01 -1.910026442E+02 -6.894715671E+02  7.303467505E+02  1.250000000E+02  0.00000E+00  9.000E+00
      21     1     1     2   502   511  1.473770222E+01  5.582069451E+01 -4.931509755E+02  4.965189165E+02  9.344061824E-06  0.00000E+00  9.000E+00
#rwgt            1           1 -0.19433813705207609                2      333715           0
</event>
<event>
      5   9999  3.79277E-02  5.14384E+00 -1.00000E+00  2.36384E-01
      21    -1     0     0   502   501  0.000000000E+00  0.000000000E+00  4.024189602E+02  4.024189602E+02  0.000000000E+00  0.00000E+00  9.000E+00
      21    -1     0     0   501   512  0.000000000E+00  0.000000000E+00 -1.563054122E+02  1.563054122E+02  0.000000000E+00  0.00000E+00  9.000E+00
      25     1     1     2     0     0  5.369161100E+01  1.285323912E+02 -2.903135761E+01  1.893968965E+02  1.250000000E+02  0.00000E+00  9.000E+00
      25     1     1     2     0     0 -4.900005278E+01 -1.264232723E+02  2.955050791E+02  3.483275768E+02  1.250000000E+02  0.00000E+00  9.000E+00
      21     1     1     2   502   512 -4.691558220E+00 -2.109118829E+00 -2.036017353E+01  2.099989922E+01  4.129530925E-07  0.00000E+00  9.000E+00
#rwgt            1           1   2.7308746362305642E-002           2      333822           0
</event>
<event>
      5   9999  3.79277E-02  1.13919E+01 -1.00000E+00  1.89434E-01
      21    -1     0     0   502   511  0.000000000E+00  0.000000000E+00  5.704415273E+01  5.704415273E+01  0.000000000E+00  0.00000E+00  9.000E+00
      21    -1     0     0   501   502  0.000000000E+00  0.000000000E+00 -9.463500915E+02  9.463500915E+02  0.000000000E+00  0.00000E+00  9.000E+00
      25     1     1     2     0     0  9.584261060E+01  5.123185492E+01 -5.714436717E+02  5.949650232E+02  1.250000000E+02  0.00000E+00  9.000E+00
      25     1     1     2     0     0 -1.065939107E+02 -4.746560122E+01 -3.416504331E+02  3.820540060E+02  1.250000000E+02  0.00000E+00  9.000E+00
      21     1     1     2   501   511  1.075130009E+01 -3.766253700E+00  2.378816602E+01  2.637521494E+01  8.920806376E-07  0.00000E+00  9.000E+00
#rwgt            1           1   4.1125897538322173E-002           2      334208           0
</event>
<event>
      5   9999  3.79277E-02  3.77560E+01 -1.00000E+00  1.46413E-01
      21    -1     0     0   502   501  0.000000000E+00  0.000000000E+00  2.324096933E+02  2.324096933E+02  0.000000000E+00  0.00000E+00  9.000E+00
      21    -1     0     0   512   502  0.000000000E+00  0.000000000E+00 -1.705759960E+02  1.705759960E+02  0.000000000E+00  0.00000E+00  9.000E+00
      25     1     1     2     0     0  2.432010890E+01 -1.253334228E+02 -3.061331662E+00  1.787017245E+02  1.250000000E+02  0.00000E+00  9.000E+00
      25     1     1     2     0     0 -1.982455677E+01  8.784604974E+01  9.048910419E+01  1.786707012E+02  1.250000000E+02  0.00000E+00  9.000E+00
      21     1     1     2   512   501 -4.495552131E+00  3.748737307E+01 -2.559407518E+01  4.561326356E+01  6.743495762E-07  0.00000E+00  9.000E+00
#rwgt            1           1  0.10949230286303274                2      334442           0
</event>
<event>
      5   9999  3.79277E-02  2.34519E+02 -1.00000E+00  1.09187E-01
      21    -1     0     0   511   501  0.000000000E+00  0.000000000E+00  2.045679694E+02  2.045679694E+02  0.000000000E+00  0.00000E+00  9.000E+00
      21    -1     0     0   501   502  0.000000000E+00  0.000000000E+00 -6.260166604E+02  6.260166604E+02  0.000000000E+00  0.00000E+00  9.000E+00
      25     1     1     2     0     0 -2.291403149E+02  1.162541075E+01 -3.539592238E+02  4.399460946E+02  1.250000000E+02  0.00000E+00  9.000E+00
      25     1     1     2     0     0 -3.660849572E+00 -3.995829363E+01  3.320425623E+01  1.354163568E+02  1.250000000E+02  0.00000E+00  9.000E+00
      21     1     1     2   511   502  2.328011644E+02  2.833288288E+01 -1.006937233E+02  2.552221784E+02  2.336015456E-06  0.00000E+00  9.000E+00
#rwgt            1           1   3.9166544591540002E-002           2      334677           0
</event>
<event>
      5   9999  3.79277E-02  4.80180E+01 -1.00000E+00  1.40085E-01
      21    -1     0     0   502   501  0.000000000E+00  0.000000000E+00  1.123778399E+02  1.123778399E+02  0.000000000E+00  0.00000E+00  9.000E+00
      21    -1     0     0   501   512  0.000000000E+00  0.000000000E+00 -1.239230628E+03  1.239230628E+03  0.000000000E+00  0.00000E+00  9.000E+00
      25     1     1     2     0     0 -6.709885449E+01 -6.843561093E+01 -3.060859853E+02  3.442373011E+02  1.250000000E+02  0.00000E+00  9.000E+00
      25     1     1     2     0     0  7.364889114E+01  2.086649607E+01  3.464321247E+01  1.506144814E+02  1.250000000E+02  0.00000E+00  9.000E+00
      21     1     1     2   502   512 -6.550036647E+00  4.756911485E+01 -8.554100153E+02  8.567566853E+02  0.000000000E+00  0.00000E+00  9.000E+00
#rwgt            1           1   3.3984993049365128E-002           2      334723           0
</event>
<event>
      5   9999  3.79277E-02  2.84128E+01 -1.00000E+00  1.54698E-01
      21    -1     0     0   502   501  0.000000000E+00  0.000000000E+00  2.453840652E+03  2.453840652E+03  0.000000000E+00  0.00000E+00  9.000E+00
      21    -1     0     0   511   502  0.000000000E+00  0.000000000E+00 -3.163017757E+01  3.163017757E+01  0.000000000E+00  0.00000E+00  9.000E+00
      25     1     1     2     0     0 -1.888728446E+02  7.184810042E+01  1.744764048E+03  1.760869582E+03  1.250000000E+02  0.00000E+00  9.000E+00
      25     1     1     2     0     0  1.604911667E+02 -7.051763143E+01  6.513900359E+02  6.860496555E+02  1.250000000E+02  0.00000E+00  9.000E+00
      21     1     1     2   511   501  2.838167782E+01 -1.330468996E+00  2.605639076E+01  3.855159249E+01  5.840038640E-07  0.00000E+00  9.000E+00
#rwgt            1           1   6.8131833531351549E-002           2      334872           0
</event>
<event>
      5   9999  3.79277E-02  4.08612E+01 -1.00000E+00  1.44269E-01
      21    -1     0     0   502   512  0.000000000E+00  0.000000000E+00  1.260960605E+02  1.260960605E+02  0.000000000E+00  0.00000E+00  9.000E+00
      21    -1     0     0   501   502  0.000000000E+00  0.000000000E+00 -5.081112156E+02  5.081112156E+02  0.000000000E+00  0.00000E+00  9.000E+00
      25     1     1     2     0     0 -1.072945679E+02  8.327719592E+01 -3.754304013E+02  4.183541584E+02  1.250000000E+02  0.00000E+00  9.000E+00
      25     1     1     2     0     0  7.721958211E+01 -5.561621703E+01 -4.107354406E+01  1.623824605E+02  1.250000000E+02  0.00000E+00  9.000E+00
      21     1     1     2   501   512  3.007498583E+01 -2.766097889E+01  3.448879021E+01  5.347065715E+01  6.743495762E-07  0.00000E+00  9.000E+00
#rwgt            2          11   1.0780123240590729E-003           2      335381           0
</event>
<event>
      5   9999  3.79277E-02  1.70506E+01 -1.00000E+00  1.72297E-01
      21    -1     0     0   511   501  0.000000000E+00  0.000000000E+00  1.153484950E+02  1.153484950E+02  0.000000000E+00  0.00000E+00  9.000E+00
      21    -1     0     0   501   502  0.000000000E+00  0.000000000E+00 -3.739841332E+02  3.739841332E+02  0.000000000E+00  0.00000E+00  9.000E+00
      25     1     1     2     0     0  1.087457147E+02  5.631038263E+01 -2.793017488E+01  1.772049218E+02  1.250000000E+02  0.00000E+00  9.000E+00
      25     1     1     2     0     0 -1.087065298E+02 -7.336090372E+01 -2.327536509E+02  2.949545623E+02  1.250000000E+02  0.00000E+00  9.000E+00
      21     1     1     2   511   502 -3.918489501E-02  1.705052109E+01  2.048187522E+00  1.717314406E+01  3.513641990E-07  0.00000E+00  9.000E+00
#rwgt            1           1   4.0762332825238515E-002           2      335416           0
</event>
<event>
      5   9999  3.79277E-02  3.14805E+01 -1.00000E+00  1.51601E-01
      21    -1     0     0   502   501  0.000000000E+00  0.000000000E+00  7.947794938E+02  7.947794938E+02  0.000000000E+00  0.00000E+00  9.000E+00
      21    -1     0     0   501   512  0.000000000E+00  0.000000000E+00 -7.380087883E+01  7.380087883E+01  0.000000000E+00  0.00000E+00  9.000E+00
      25     1     1     2     0     0  6.445183201E+01 -1.275344767E+02  2.422367727E+02  3.077705890E+02  1.250000000E+02  0.00000E+00  9.000E+00
      25     1     1     2     0     0 -9.427216478E+01  1.174464500E+02  4.897900553E+02  5.274468769E+02  1.250000000E+02  0.00000E+00  9.000E+00
      21     1     1     2   502   512  2.982033277E+01  1.008802676E+01 -1.104821311E+01  3.336290670E+01  9.830249847E-07  0.00000E+00  9.000E+00
#rwgt            1           1   2.3089627466516230E-002           2      335711           0
</event>
<event>
      5   9999  3.79277E-02  5.60423E+01 -1.00000E+00  1.36306E-01
      21    -1     0     0   502   501  0.000000000E+00  0.000000000E+00  1.765970756E+02  1.765970756E+02  0.000000000E+00  0.00000E+00  9.000E+00
      21    -1     0     0   511   502  0.000000000E+00  0.000000000E+00 -1.930765114E+03  1.930765114E+03  0.000000000E+00  0.00000E+00  9.000E+00
      25     1     1     2     0     0  7.746892249E+00  1.751711797E+02 -3.728934977E+02  4.306036660E+02  1.250000000E+02  0.00000E+00  9.000E+00
      25     1     1     2     0     0 -5.774539477E+01 -1.498553444E+02  7.686553985E+01  2.175418720E+02  1.250000000E+02  0.00000E+00  9.000E+00
      21     1     1     2   511   501  4.999850252E+01 -2.531583533E+01 -1.458140080E+03  1.459216651E+03  0.000000000E+00  0.00000E+00  9.000E+00
#rwgt            1           1   4.4263627646341348E-002           2      335871           0
</event>
<event>
      5   9999  3.79277E-02  7.60331E+01 -1.00000E+00  1.29428E-01
      21    -1     0     0   502   501  0.000000000E+00  0.000000000E+00  1.107577293E+03  1.107577293E+03  0.000000000E+00  0.00000E+00  9.000E+00
      21    -1     0     0   501   512  0.000000000E+00  0.000000000E+00 -6.902374410E+02  6.902374410E+02  0.000000000E+00  0.00000E+00  9.000E+00
      25     1     1     2     0     0 -9.219471247E+01  1.120822168E+02  6.128195887E+02  6.420553999E+02  1.250000000E+02  0.00000E+00  9.000E+00
      25     1     1     2     0     0  2.395011856E+01 -1.456039776E+02  4.583740541E+02  4.974996482E+02  1.250000000E+02  0.00000E+00  9.000E+00
      21     1     1     2   502   512  6.824459391E+01  3.352176083E+01 -6.538537913E+02  6.582596854E+02  7.629394531E-06  0.00000E+00  9.000E+00
#rwgt            1           1   3.8020389558727927E-002           2      335907           0
</event>
<event>
      5   9999  3.79277E-02  6.82065E+01 -1.00000E+00  1.31794E-01
      21    -1     0     0   502   501  0.000000000E+00  0.000000000E+00  5.384083913E+01  5.384083913E+01  0.000000000E+00  0.00000E+00  9.000E+00
       2    -1     0     0   501     0  0.000000000E+00  0.000000000E+00 -2.257780983E+03  2.257780983E+03  0.000000000E+00  0.00000E+00  9.000E+00
      25     1     1     2     0     0 -5.001412415E+01 -1.595540417E+02 -2.954600474E+02  3.617741622E+02  1.250000000E+02  0.00000E+00  9.000E+00
      25     1     1     2     0     0  9.595598435E+01  1.091410244E+02 -4.419256545E+02  4.817080010E+02  1.250000000E+02  0.00000E+00  9.000E+00
       2     1     1     2   502     0 -4.594186020E+01  5.041301727E+01 -1.466554442E+03  1.468139659E+03  3.051757812E-05  0.00000E+00  9.000E+00
#rwgt            1           1  0.20971435120395751                2      335992           0
</event>
<event>
      5   9999  3.79277E-02  6.77298E+01 -1.00000E+00  1.31950E-01
      21    -1     0     0   511   501  0.000000000E+00  0.000000000E+00  7.689298328E+01  7.689298328E+01  0.000000000E+00  0.00000E+00  9.000E+00
      21    -1     0     0   501   502  0.000000000E+00  0.000000000E+00 -8.434946562E+02  8.434946562E+02  0.000000000E+00  0.00000E+00  9.000E+00
      25     1     1     2     0     0  1.612380475E+02 -1.200796048E+02 -4.690596578E+02  5.254129633E+02  1.250000000E+02  0.00000E+00  9.000E+00
      25     1     1     2     0     0 -9.817047032E+01  9.538526642E+01 -2.540349097E+02  3.144750000E+02  1.250000000E+02  0.00000E+00  9.000E+00
      21     1     1     2   511   502 -6.306757719E+01  2.469433833E+01 -4.350710542E+01  8.049967615E+01  1.651812370E-06  0.00000E+00  9.000E+00
#rwgt            1           1   4.3817329431436562E-002           2      336130           0
</event>
<event>
      5   9999  3.79277E-02  1.33451E+01 -1.00000E+00  1.82304E-01
      21    -1     0     0   512   501  0.000000000E+00  0.000000000E+00  2.053454021E+02  2.053454021E+02  0.000000000E+00  0.00000E+00  9.000E+00
      21    -1     0     0   501   502  0.000000000E+00  0.000000000E+00 -2.911397192E+02  2.911397192E+02  0.000000000E+00  0.00000E+00  9.000E+00
      25     1     1     2     0     0  1.191845940E+02 -1.206904238E+02 -1.636200882E+02  2.667727106E+02  1.250000000E+02  0.00000E+00  9.000E+00
      25     1     1     2     0     0 -1.063092557E+02  1.171806709E+02  7.842800642E+01  2.163536912E+02  1.250000000E+02  0.00000E+00  9.000E+00
      21     1     1     2   512   502 -1.287533828E+01  3.509752819E+00 -6.022352523E-01  1.335871955E+01  2.248792093E-07  0.00000E+00  9.000E+00
#rwgt            1           1   3.5728178260789639E-002           2      336226           0
</event>
<event>
      5   9999  3.79277E-02  1.30331E+01 -1.00000E+00  1.83334E-01
      21    -1     0     0   502   501  0.000000000E+00  0.000000000E+00  3.448637173E+02  3.448637173E+02  0.000000000E+00  0.00000E+00  9.000E+00
      21    -1     0     0   511   502  0.000000000E+00  0.000000000E+00 -3.143248464E+02  3.143248464E+02  0.000000000E+00  0.00000E+00  9.000E+00
      25     1     1     2     0     0 -1.060020002E+02  1.095820401E+02 -9.886975896E+01  2.205558360E+02  1.250000000E+02  0.00000E+00  9.000E+00
      25     1     1     2     0     0  9.304603696E+01 -1.109978188E+02  2.514155142E+02  3.159317039E+02  1.250000000E+02  0.00000E+00  9.000E+00
      21     1     1     2   511   501  1.295596325E+01  1.415778669E+00 -1.220068844E+02  1.227010238E+02  1.348699152E-06  0.00000E+00  9.000E+00
#rwgt            1           1   6.6682534398098195E-002           2      336454           0
</event>
<event>
      5   9999  3.79277E-02  4.61298E+01 -1.00000E+00  1.41102E-01
      21    -1     0     0   512   501  0.000000000E+00  0.000000000E+00  4.643247450E+02  4.643247450E+02  0.000000000E+00  0.00000E+00  9.000E+00
      21    -1     0     0   501   502  0.000000000E+00  0.000000000E+00 -2.932308463E+02  2.932308463E+02  0.000000000E+00  0.00000E+00  9.000E+00
      25     1     1     2     0     0 -7.790379153E+01 -1.965647944E+02  2.798602561E+02  3.723620309E+02  1.250000000E+02  0.00000E+00  9.000E+00
      25     1     1     2     0     0  9.008046828E+01  1.520711095E+02 -1.924364545E+02  2.896496196E+02  1.250000000E+02  0.00000E+00  9.000E+00
      21     1     1     2   512   502 -1.217667674E+01  4.449368491E+01  8.367009722E+01  9.554394079E+01  1.348699152E-06  0.00000E+00  9.000E+00
#rwgt            1           1   6.0282810463486526E-002           2      336700           0
</event>
<event>
      5   9999  3.79277E-02  4.55988E+01 -1.00000E+00  1.41398E-01
      21    -1     0     0   502   501  0.000000000E+00  0.000000000E+00  5.142569498E+02  5.142569498E+02  0.000000000E+00  0.00000E+00  9.000E+00
      21    -1     0     0   501   511  0.000000000E+00  0.000000000E+00 -9.096985866E+01  9.096985866E+01  0.000000000E+00  0.00000E+00  9.000E+00
      25     1     1     2     0     0 -1.096068536E+02 -2.433439222E+01  3.705854493E+02  4.068960558E+02  1.250000000E+02  0.00000E+00  9.000E+00
      25     1     1     2     0     0  6.401137149E+01  2.378385347E+01  5.496998911E+01  1.526755615E+02  1.250000000E+02  0.00000E+00  9.000E+00
      21     1     1     2   502   511  4.559548211E+01  5.505387492E-01 -2.268347291E+00  4.565519117E+01  9.807635946E-07  0.00000E+00  9.000E+00
#rwgt            1           1   4.0129693190034038E-002           2      336955           0
</event>
<event>
      5   9999  3.79277E-02  4.44570E+01 -1.00000E+00  1.42051E-01
      21    -1     0     0   502   512  0.000000000E+00  0.000000000E+00  4.612699555E+02  4.612699555E+02  0.000000000E+00  0.00000E+00  9.000E+00
      21    -1     0     0   501   502  0.000000000E+00  0.000000000E+00 -1.271143422E+02  1.271143422E+02  0.000000000E+00  0.00000E+00  9.000E+00
      25     1     1     2     0     0  7.737232098E+01 -4.205085435E+01  2.998575184E+02  3.365921594E+02  1.250000000E+02  0.00000E+00  9.000E+00
      25     1     1     2     0     0 -6.741098034E+01 -1.275821860E+00 -5.479104367E+01  1.522265629E+02  1.250000000E+02  0.00000E+00  9.000E+00
      21     1     1     2   501   512 -9.961340641E+00  4.332667621E+01  8.908913859E+01  9.956557534E+01  1.348699152E-06  0.00000E+00  9.000E+00
#rwgt            1           1   3.0829874433903663E-002           2      337106           0
</event>
<event>
      5   9999  3.79277E-02  2.10255E+01 -1.00000E+00  1.64597E-01
      21    -1     0     0   502   501  0.000000000E+00  0.000000000E+00  9.361815229E+01  9.361815229E+01  0.000000000E+00  0.00000E+00  9.000E+00
      21    -1     0     0   511   502  0.000000000E+00  0.000000000E+00 -3.543808983E+02  3.543808983E+02  0.000000000E+00  0.00000E+00  9.000E+00
      25     1     1     2     0     0  3.051834034E+01 -9.930652351E+01 -1.542781192E+02  2.240979535E+02  1.250000000E+02  0.00000E+00  9.000E+00
      25     1     1     2     0     0 -4.727550054E+01  8.660726443E+01 -5.532128490E+01  1.685859892E+02  1.250000000E+02  0.00000E+00  9.000E+00
      21     1     1     2   511   501  1.675716020E+01  1.269925908E+01 -5.116334188E+01  5.531510781E+01  6.743495762E-07  0.00000E+00  9.000E+00
#rwgt            1           1   5.1262024240198191E-002           2      337223           0
</event>
<event>
      5   9999  3.79277E-02  7.66267E+01 -1.00000E+00  1.29262E-01
      21    -1     0     0   502   501  0.000000000E+00  0.000000000E+00  1.866271734E+03  1.866271734E+03  0.000000000E+00  0.00000E+00  9.000E+00
      21    -1     0     0   501   512  0.000000000E+00  0.000000000E+00 -9.589652583E+02  9.589652583E+02  0.000000000E+00  0.00000E+00  9.000E+00
      25     1     1     2     0     0 -7.987851824E+01  1.759254466E+02  8.082939390E+02  8.404132509E+02  1.250000000E+02  0.00000E+00  9.000E+00
      25     1     1     2     0     0  1.118278197E+02 -1.062771086E+02  1.030871457E+03  1.049819626E+03  1.250000000E+02  0.00000E+00  9.000E+00
      21     1     1     2   502   512 -3.194930148E+01 -6.964833803E+01 -9.318589205E+02  9.350041158E+02  1.078959322E-05  0.00000E+00  9.000E+00
#rwgt            1           1  0.16204521839653083                2      337455           0
</event>
<event>
      5   9999  3.79277E-02  1.53034E+02 -1.00000E+00  1.16050E-01
      21    -1     0     0   502   511  0.000000000E+00  0.000000000E+00  1.527041320E+02  1.527041320E+02  0.000000000E+00  0.00000E+00  9.000E+00
      21    -1     0     0   501   502  0.000000000E+00  0.000000000E+00 -9.562736367E+02  9.562736367E+02  0.000000000E+00  0.00000E+00  9.000E+00
      25     1     1     2     0     0 -1.027316222E+02  1.301384041E+02 -5.914322603E+02  6.268228689E+02  1.250000000E+02  0.00000E+00  9.000E+00
      25     1     1     2     0     0 -5.022497273E+01 -1.349928162E+02 -2.594254941E+02  3.219816692E+02  1.250000000E+02  0.00000E+00  9.000E+00
      21     1     1     2   501   511  1.529565949E+02  4.854412034E+00  4.728824966E+01  1.601732306E+02  1.507891493E-06  0.00000E+00  9.000E+00
#rwgt            1           1   4.0621961808487948E-002           2      337526           0
</event>
<event>
      5   9999  3.79277E-02  9.04870E+01 -1.00000E+00  1.25813E-01
      21    -1     0     0   502   501  0.000000000E+00  0.000000000E+00  5.641186371E+02  5.641186371E+02  0.000000000E+00  0.00000E+00  9.000E+00
      21    -1     0     0   501   512  0.000000000E+00  0.000000000E+00 -2.988720826E+02  2.988720826E+02  0.000000000E+00  0.00000E+00  9.000E+00
      25     1     1     2     0     0 -1.158436913E+02  4.668410848E+01  2.364642390E+02  2.951940093E+02  1.250000000E+02  0.00000E+00  9.000E+00
      25     1     1     2     0     0  2.060666647E+02 -3.977703397E+01  2.372569724E+02  3.405312815E+02  1.250000000E+02  0.00000E+00  9.000E+00
      21     1     1     2   502   512 -9.022297336E+01 -6.907074509E+00 -2.084746569E+02  2.272654289E+02  4.672030912E-06  0.00000E+00  9.000E+00
#rwgt            1           1   2.7878528570120895E-002           2      337566           0
</event>
<event>
      5   9999  3.79277E-02  1.18243E+01 -1.00000E+00  1.87704E-01
      21    -1     0     0   502   501  0.000000000E+00  0.000000000E+00  4.774997287E+02  4.774997287E+02  0.000000000E+00  0.00000E+00  9.000E+00
      21    -1     0     0   511   502  0.000000000E+00  0.000000000E+00 -8.575571550E+01  8.575571550E+01  0.000000000E+00  0.00000E+00  9.000E+00
      25     1     1     2     0     0  1.711429089E+01 -1.443734806E+02  2.052225120E+02  2.808520612E+02  1.250000000E+02  0.00000E+00  9.000E+00
      25     1     1     2     0     0 -8.821421101E+00  1.528020942E+02  1.846024340E+02  2.704244000E+02  1.250000000E+02  0.00000E+00  9.000E+00
      21     1     1     2   511   501 -8.292869791E+00 -8.428613587E+00  1.919067209E+00  1.197898307E+01  1.281846354E-07  0.00000E+00  9.000E+00
#rwgt            1           1   3.6181743307601127E-002           2      337622           0
</event>
<event>
      5   9999  3.79277E-02  8.06919E+01 -1.00000E+00  1.28169E-01
       2    -1     0     0   502     0  0.000000000E+00  0.000000000E+00  1.297704067E+03  1.297704067E+03  0.000000000E+00  0.00000E+00  9.000E+00
      21    -1     0     0   501   502  0.000000000E+00  0.000000000E+00 -6.901412846E+01  6.901412846E+01  0.000000000E+00  0.00000E+00  9.000E+00
      25     1     1     2     0     0  7.226247438E+01  4.071332811E+01  7.261681324E+02  7.415015825E+02  1.250000000E+02  0.00000E+00  9.000E+00
      25     1     1     2     0     0 -5.982175172E+01 -1.204404822E+02  8.925727698E+01  2.041480179E+02  1.250000000E+02  0.00000E+00  9.000E+00
       2     1     1     2   501     0 -1.244072266E+01  7.972715408E+01  4.132645288E+02  4.210685947E+02  0.000000000E+00  0.00000E+00  9.000E+00
#rwgt            1           1   4.4173577284941520E-002           2      337956           0
</event>
<event>
      5   9999 -3.79277E-02  2.73608E+01 -1.00000E+00  1.55870E-01
      21    -1     0     0   502   501  0.000000000E+00  0.000000000E+00  6.589722556E+01  6.589722556E+01  0.000000000E+00  0.00000E+00  9.000E+00
      21    -1     0     0   501   511  0.000000000E+00  0.000000000E+00 -4.157276428E+02  4.157276428E+02  0.000000000E+00  0.00000E+00  9.000E+00
      25     1     1     2     0     0  8.461279556E+00 -6.151499552E+01 -2.276954387E+02  2.670690935E+02  1.250000000E+02  0.00000E+00  9.000E+00
      25     1     1     2     0     0 -7.931714621E+00  3.415935072E+01 -5.304359542E+01  1.402440600E+02  1.250000000E+02  0.00000E+00  9.000E+00
      21     1     1     2   502   511 -5.295649346E-01  2.735564480E+01 -6.909138313E+01  7.431171485E+01  9.536743164E-07  0.00000E+00  9.000E+00
#rwgt            1           1  -5.0769559561820457E-002           2      338095           0
</event>
<event>
      5   9999  3.79277E-02  9.62175E+00 -1.00000E+00  1.97713E-01
      21    -1     0     0   502   512  0.000000000E+00  0.000000000E+00  1.144204535E+02  1.144204535E+02  0.000000000E+00  0.00000E+00  9.000E+00
      21    -1     0     0   501   502  0.000000000E+00  0.000000000E+00 -5.444496012E+02  5.444496012E+02  0.000000000E+00  0.00000E+00  9.000E+00
      25     1     1     2     0     0 -9.641605126E+01 -3.186063278E+01 -2.099981039E+02  2.646419439E+02  1.250000000E+02  0.00000E+00  9.000E+00
      25     1     1     2     0     0  9.075237370E+01  3.963886441E+01 -2.860557955E+02  3.275059558E+02  1.250000000E+02  0.00000E+00  9.000E+00
      21     1     1     2   501   512  5.663677562E+00 -7.778231627E+00  6.602475175E+01  6.672215504E+01  1.907348633E-06  0.00000E+00  9.000E+00
#rwgt            1           1   3.5891792858182364E-002           2      338196           0
</event>
<event>
      5   9999  3.79277E-02  6.14959E+01 -1.00000E+00  1.34134E-01
      21    -1     0     0   502   501  0.000000000E+00  0.000000000E+00  5.955689226E+02  5.955689226E+02  0.000000000E+00  0.00000E+00  9.000E+00
      21    -1     0     0   501   511  0.000000000E+00  0.000000000E+00 -5.783947813E+01  5.783947813E+01  0.000000000E+00  0.00000E+00  9.000E+00
      25     1     1     2     0     0  3.755065480E+01  5.046499632E+01  1.830577869E+02  2.304168415E+02  1.250000000E+02  0.00000E+00  9.000E+00
      25     1     1     2     0     0  1.731709505E+01 -7.823682218E+01  3.190901961E+02  3.519437957E+02  1.250000000E+02  0.00000E+00  9.000E+00
      21     1     1     2   502   511 -5.486774985E+01  2.777182586E+01  3.558146150E+01  7.104776343E+01  1.261592536E-06  0.00000E+00  9.000E+00
#rwgt            1           1   6.9377964963800304E-002           2      338430           0
</event>
<event>
      5   9999  3.79277E-02  4.89631E+01 -1.00000E+00  1.39597E-01
      21    -1     0     0   502   501  0.000000000E+00  0.000000000E+00  3.644900263E+01  3.644900263E+01  0.000000000E+00  0.00000E+00  9.000E+00
      21    -1     0     0   501   512  0.000000000E+00  0.000000000E+00 -1.450986651E+03  1.450986651E+03  0.000000000E+00  0.00000E+00  9.000E+00
      25     1     1     2     0     0 -1.490767838E+02  7.079153788E+01 -4.707115161E+02  5.142272462E+02  1.250000000E+02  0.00000E+00  9.000E+00
      25     1     1     2     0     0  1.015452321E+02 -8.254472153E+01 -6.260190679E+02  6.516517004E+02  1.250000000E+02  0.00000E+00  9.000E+00
      21     1     1     2   502   512  4.753155171E+01  1.175318365E+01 -3.178070644E+02  3.215567072E+02  3.814697266E-06  0.00000E+00  9.000E+00
#rwgt            1           1   3.8159136273588051E-002           2      338536           0
</event>
<event>
      5   9999  3.79277E-02  8.94026E+00 -1.00000E+00  2.01554E-01
      21    -1     0     0   502   511  0.000000000E+00  0.000000000E+00  6.030271453E+02  6.030271453E+02  0.000000000E+00  0.00000E+00  9.000E+00
      21    -1     0     0   501   502  0.000000000E+00  0.000000000E+00 -1.591379673E+02  1.591379673E+02  0.000000000E+00  0.00000E+00  9.000E+00
      25     1     1     2     0     0  2.008894482E+02 -6.072659629E+01  1.897307380E+01  2.450087089E+02  1.250000000E+02  0.00000E+00  9.000E+00
      25     1     1     2     0     0 -1.983982857E+02  5.214042232E+01  2.676702139E+02  3.596565679E+02  1.250000000E+02  0.00000E+00  9.000E+00
      21     1     1     2   501   511 -2.491162538E+00  8.586173966E+00  1.572458903E+02  1.574998358E+02  2.697398305E-06  0.00000E+00  9.000E+00
#rwgt            1           1   5.0215522708091376E-002           2      338710           0
</event>
<event>
      5   9999  3.79277E-02  5.08419E+01 -1.00000E+00  1.38663E-01
       2    -1     0     0   502     0  0.000000000E+00  0.000000000E+00  2.105734574E+03  2.105734574E+03  0.000000000E+00  0.00000E+00  9.000E+00
      21    -1     0     0   501   502  0.000000000E+00  0.000000000E+00 -1.149676697E+02  1.149676697E+02  0.000000000E+00  0.00000E+00  9.000E+00
      25     1     1     2     0     0 -2.343491393E+02 -5.111285534E+01  1.769967282E+02  3.232412178E+02  1.250000000E+02  0.00000E+00  9.000E+00
      25     1     1     2     0     0  1.868619223E+02  3.295061156E+01  2.701346783E+02  3.529884774E+02  1.250000000E+02  0.00000E+00  9.000E+00
       2     1     1     2   501     0  4.748721698E+01  1.816224379E+01  1.543635498E+03  1.544472548E+03  3.051757812E-05  0.00000E+00  9.000E+00
#rwgt            1           1   4.8197561860737252E-002           2      338995           0
</event>
<event>
      5   9999  3.79277E-02  2.16041E+01 -1.00000E+00  1.63651E-01
      21    -1     0     0   502   501  0.000000000E+00  0.000000000E+00  9.892029044E+02  9.892029044E+02  0.000000000E+00  0.00000E+00  9.000E+00
      21    -1     0     0   511   502  0.000000000E+00  0.000000000E+00 -3.644339245E+02  3.644339245E+02  0.000000000E+00  0.00000E+00  9.000E+00
      25     1     1     2     0     0  1.768976907E+02 -5.203846800E+01  4.115935380E+02  4.680117901E+02  1.250000000E+02  0.00000E+00  9.000E+00
      25     1     1     2     0     0 -1.617408921E+02  6.743357869E+01  5.279325701E+02  5.701273562E+02  1.250000000E+02  0.00000E+00  9.000E+00
      21     1     1     2   511   501 -1.515679862E+01 -1.539511068E+01 -3.147571282E+02  3.154976826E+02  7.629394531E-06  0.00000E+00  9.000E+00
#rwgt            1           1   3.8440150148571800E-002           2      339164           0
</event>
<event>
      5   9999  3.79277E-02  3.76975E+01 -1.00000E+00  1.46455E-01
      21    -1     0     0   502   512  0.000000000E+00  0.000000000E+00  6.860299715E+02  6.860299715E+02  0.000000000E+00  0.00000E+00  9.000E+00
      21    -1     0     0   501   502  0.000000000E+00  0.000000000E+00 -1.154144337E+02  1.154144337E+02  0.000000000E+00  0.00000E+00  9.000E+00
      25     1     1     2     0     0 -8.460153309E+01  1.118902821E+02  9.655526400E+00  1.881358121E+02  1.250000000E+02  0.00000E+00  9.000E+00
      25     1     1     2     0     0  1.169557872E+02 -9.254328551E+01  3.637828458E+02  4.125601468E+02  1.250000000E+02  0.00000E+00  9.000E+00
      21     1     1     2   501   512 -3.235425414E+01 -1.934699656E+01  1.971771656E+02  2.007484462E+02  2.697398305E-06  0.00000E+00  9.000E+00
#rwgt            1           1   6.1132418758148441E-002           2      339368           0
</event>
<event>
      5   9999  3.79277E-02  7.04156E+01 -1.00000E+00  1.31091E-01
      21    -1     0     0   502   501  0.000000000E+00  0.000000000E+00  5.130981761E+02  5.130981761E+02  0.000000000E+00  0.00000E+00  9.000E+00
      21    -1     0     0   501   511  0.000000000E+00  0.000000000E+00 -3.681495634E+02  3.681495634E+02  0.000000000E+00  0.00000E+00  9.000E+00
      25     1     1     2     0     0 -4.174367510E+01 -1.029038407E+02  3.624690933E+02  3.991748720E+02  1.250000000E+02  0.00000E+00  9.000E+00
      25     1     1     2     0     0  7.792148917E+01  4.249259484E+01  8.236598198E+01  1.740302677E+02  1.250000000E+02  0.00000E+00  9.000E+00
      21     1     1     2   502   511 -3.617781406E+01  6.041124582E+01 -2.998864626E+02  3.080425998E+02  3.814697266E-06  0.00000E+00  9.000E+00
#rwgt            1           1   3.9546724567865933E-002           2      339643           0
</event>
<event>
      5   9999  3.79277E-02  5.67728E+01 -1.00000E+00  1.35999E-01
      21    -1     0     0   502   501  0.000000000E+00  0.000000000E+00  4.060590864E+02  4.060590864E+02  0.000000000E+00  0.00000E+00  9.000E+00
      21    -1     0     0   512   502  0.000000000E+00  0.000000000E+00 -3.830552611E+02  3.830552611E+02  0.000000000E+00  0.00000E+00  9.000E+00
      25     1     1     2     0     0 -1.675529391E+01 -2.692107109E+02  1.331912784E+02  3.257607456E+02  1.250000000E+02  0.00000E+00  9.000E+00
      25     1     1     2     0     0  6.159095719E+01  2.343838015E+02  6.404918207E+01  2.801008928E+02  1.250000000E+02  0.00000E+00  9.000E+00
      21     1     1     2   512   501 -4.483566328E+01  3.482690940E+01 -1.742366352E+02  1.832527091E+02  2.697398305E-06  0.00000E+00  9.000E+00
#rwgt            1           1   3.8729027360467599E-002           2      339782           0
</event>
<event>
      5   9999  3.79277E-02  8.83294E+01 -1.00000E+00  1.26301E-01
      21    -1     0     0   511   501  0.000000000E+00  0.000000000E+00  2.536367351E+02  2.536367351E+02  0.000000000E+00  0.00000E+00  9.000E+00
      21    -1     0     0   501   502  0.000000000E+00  0.000000000E+00 -2.646686830E+02  2.646686830E+02  0.000000000E+00  0.00000E+00  9.000E+00
      25     1     1     2     0     0 -3.134951476E+01  9.635678409E+01  6.326830936E+01  1.729025763E+02  1.250000000E+02  0.00000E+00  9.000E+00
      25     1     1     2     0     0  3.218698749E+01 -1.846821811E+02 -1.092532325E+02  2.504092231E+02  1.250000000E+02  0.00000E+00  9.000E+00
      21     1     1     2   511   502 -8.374727288E-01  8.832539703E+01  3.495297526E+01  9.499361873E+01  2.431401974E-06  0.00000E+00  9.000E+00
#rwgt            1           1   3.3825898924218077E-002           2      339904           0
</event>
<event>
      5   9999  3.79277E-02  8.30818E+01 -1.00000E+00  1.27560E-01
      21    -1     0     0   502   512  0.000000000E+00  0.000000000E+00  1.430213598E+03  1.430213598E+03  0.000000000E+00  0.00000E+00  9.000E+00
      21    -1     0     0   501   502  0.000000000E+00  0.000000000E+00 -6.651893315E+01  6.651893315E+01  0.000000000E+00  0.00000E+00  9.000E+00
      25     1     1     2     0     0  9.963078463E+01 -3.642210661E+00  1.157961195E+02  1.974165653E+02  1.250000000E+02  0.00000E+00  9.000E+00
      25     1     1     2     0     0 -1.360995003E+02 -7.100777782E+01  3.896479336E+02  4.370534186E+02  1.250000000E+02  0.00000E+00  9.000E+00
      21     1     1     2   501   512  3.646871570E+01  7.464998848E+01  8.582506115E+02  8.622625471E+02  1.078959322E-05  0.00000E+00  9.000E+00
#rwgt            1           1  0.18904259918049510                2      339994           0
</event>
<event>
      5   9999  3.79277E-02  3.13625E+01 -1.00000E+00  1.51712E-01
      21    -1     0     0   502   501  0.000000000E+00  0.000000000E+00  2.951273931E+02  2.951273931E+02  0.000000000E+00  0.00000E+00  9.000E+00
      21    -1     0     0   501   511  0.000000000E+00  0.000000000E+00 -1.830963131E+02  1.830963131E+02  0.000000000E+00  0.00000E+00  9.000E+00
      25     1     1     2     0     0  8.049149042E+01 -1.330781998E+02  7.956272674E+00  1.996922372E+02  1.250000000E+02  0.00000E+00  9.000E+00
      25     1     1     2     0     0 -8.332098658E+01  1.643128236E+02  1.070389137E+02  2.470291883E+02  1.250000000E+02  0.00000E+00  9.000E+00
      21     1     1     2   502   511  2.829496157E+00 -3.123462375E+01 -2.964106422E+00  3.150228081E+01  1.397852826E-07  0.00000E+00  9.000E+00
#rwgt            1           1   4.3957258422758917E-002           2      340067           0
</event>
<event>
      5   9999  3.79277E-02  3.44521E+01 -1.00000E+00  1.48980E-01
      21    -1     0     0   502   501  0.000000000E+00  0.000000000E+00  3.379126727E+02  3.379126727E+02  0.000000000E+00  0.00000E+00  9.000E+00
      -3    -1     0     0     0   502  0.000000000E+00  0.000000000E+00 -4.254958631E+02  4.254958631E+02  0.000000000E+00  0.00000E+00  9.000E+00
      25     1     1     2     0     0  1.442091605E+01 -2.337785236E+02  2.994268709E+01  2.671739609E+02  1.250000000E+02  0.00000E+00  9.000E+00
      25     1     1     2     0     0 -4.802783163E+01  2.261940862E+02  9.607918263E+01  2.798689811E+02  1.250000000E+02  0.00000E+00  9.000E+00
      -3     1     1     2     0   501  3.360691558E+01  7.584437321E+00 -2.136050601E+02  2.163655938E+02  2.697398305E-06  0.00000E+00  9.000E+00
#rwgt            1           1   6.3529843404970726E-002           2      340186           0
</event>
<event>
      5   9999  3.79277E-02  6.28316E+01 -1.00000E+00  1.33642E-01
       2    -1     0     0   502     0  0.000000000E+00  0.000000000E+00  9.152302439E+02  9.152302439E+02  0.000000000E+00  0.00000E+00  9.000E+00
      21    -1     0     0   501   502  0.000000000E+00  0.000000000E+00 -3.530832146E+02  3.530832146E+02  0.000000000E+00  0.00000E+00  9.000E+00
      25     1     1     2     0     0 -1.237499741E+02  9.577391863E+01 -2.732070213E+02  3.387532673E+02  1.250000000E+02  0.00000E+00  9.000E+00
      25     1     1     2     0     0  1.598611417E+02 -4.435610310E+01  1.911136964E+02  2.822631635E+02  1.250000000E+02  0.00000E+00  9.000E+00
       2     1     1     2   501     0 -3.611116760E+01 -5.141781553E+01  6.442403542E+02  6.472970277E+02  7.629394531E-06  0.00000E+00  9.000E+00
#rwgt            1           1   4.0178219568389573E-002           2      340368           0
</event>
<event>
      5   9999  3.79277E-02  1.61053E+02 -1.00000E+00  1.15183E-01
      21    -1     0     0   502   501  0.000000000E+00  0.000000000E+00  2.926989759E+02  2.926989759E+02  0.000000000E+00  0.00000E+00  9.000E+00
      21    -1     0     0   501   511  0.000000000E+00  0.000000000E+00 -3.541656001E+02  3.541656001E+02  0.000000000E+00  0.00000E+00  9.000E+00
      25     1     1     2     0     0  8.766594951E+00  5.340835973E+01 -2.155709207E+01  1.379094424E+02  1.250000000E+02  0.00000E+00  9.000E+00
      25     1     1     2     0     0 -8.241954951E+01  8.981577379E+01  1.704625748E+02  2.440130013E+02  1.250000000E+02  0.00000E+00  9.000E+00
      21     1     1     2   502   511  7.365295456E+01 -1.432241335E+02 -2.103721070E+02  2.649421324E+02  2.697398305E-06  0.00000E+00  9.000E+00
#rwgt            1           1   3.9848734496070119E-002           2      340525           0
</event>
<event>
      5   9999  3.79277E-02  5.90627E+00 -1.00000E+00  2.26539E-01
      21    -1     0     0   512   501  0.000000000E+00  0.000000000E+00  3.619805310E+01  3.619805310E+01  0.000000000E+00  0.00000E+00  9.000E+00
      21    -1     0     0   501   502  0.000000000E+00  0.000000000E+00 -1.370032810E+03  1.370032810E+03  0.000000000E+00  0.00000E+00  9.000E+00
      25     1     1     2     0     0 -1.147979419E+02  1.075856091E+02 -9.165591706E+02  9.383277381E+02  1.250000000E+02  0.00000E+00  9.000E+00
      25     1     1     2     0     0  1.195372364E+02 -1.111102514E+02 -4.087333229E+02  4.575178336E+02  1.250000000E+02  0.00000E+00  9.000E+00
      21     1     1     2   512   502 -4.739294462E+00  3.524642326E+00 -8.542263844E+00  1.038529186E+01  1.192092896E-07  0.00000E+00  9.000E+00
#rwgt            1           1   3.8244768959240519E-002           2      340573           0
</event>
<event>
      5   9999  3.79277E-02  6.79095E+01 -1.00000E+00  1.31891E-01
      21    -1     0     0   511   501  0.000000000E+00  0.000000000E+00  1.665954312E+02  1.665954312E+02  0.000000000E+00  0.00000E+00  9.000E+00
      21    -1     0     0   501   502  0.000000000E+00  0.000000000E+00 -3.752319695E+02  3.752319695E+02  0.000000000E+00  0.00000E+00  9.000E+00
      25     1     1     2     0     0 -9.432327230E+00 -2.948715069E+01  7.315975342E+01  1.481074285E+02  1.250000000E+02  0.00000E+00  9.000E+00
      25     1     1     2     0     0 -3.198754760E+01 -2.432823369E+01 -2.964688183E+02  3.242434678E+02  1.250000000E+02  0.00000E+00  9.000E+00
      21     1     1     2   511   502  4.141987483E+01  5.381538438E+01  1.467252667E+01  6.947650442E+01  9.233911863E-07  0.00000E+00  9.000E+00
#rwgt            1           1   4.3814497496056280E-002           2      340843           0
</event>
<event>
      5   9999  3.79277E-02  1.53145E+01 -1.00000E+00  1.76539E-01
      21    -1     0     0   512   501  0.000000000E+00  0.000000000E+00  2.725538291E+02  2.725538291E+02  0.000000000E+00  0.00000E+00  9.000E+00
      21    -1     0     0   501   502  0.000000000E+00  0.000000000E+00 -5.875553388E+02  5.875553388E+02  0.000000000E+00  0.00000E+00  9.000E+00
      25     1     1     2     0     0 -2.505720052E+01  2.311990146E+01  1.214284206E+02  1.775732369E+02  1.250000000E+02  0.00000E+00  9.000E+00
      25     1     1     2     0     0  1.483914104E+01 -1.171267914E+01 -5.518290047E+02  5.661251075E+02  1.250000000E+02  0.00000E+00  9.000E+00
      21     1     1     2   512   502  1.021805947E+01 -1.140722232E+01  1.153990744E+02  1.164108235E+02  1.907348633E-06  0.00000E+00  9.000E+00
#rwgt            1           1   4.9778369917862213E-002           2      340962           0
</event>
<event>
      5   9999  3.79277E-02  1.71629E+02 -1.00000E+00  1.14121E-01
      21    -1     0     0   502   501  0.000000000E+00  0.000000000E+00  1.864584417E+03  1.864584417E+03  0.000000000E+00  0.00000E+00  9.000E+00
      21    -1     0     0   511   502  0.000000000E+00  0.000000000E+00 -5.404014092E+01  5.404014092E+01  0.000000000E+00  0.00000E+00  9.000E+00
      25     1     1     2     0     0 -1.192836859E+02  1.333618134E+02  1.214913960E+03  1.234364169E+03  1.250000000E+02  0.00000E+00  9.000E+00
      25     1     1     2     0     0  3.028479581E+01  1.338875773E+01  1.119725350E+02  1.710534311E+02  1.250000000E+02  0.00000E+00  9.000E+00
      21     1     1     2   511   501  8.899889008E+01 -1.467505711E+02  4.836577810E+02  5.132069579E+02  7.629394531E-06  0.00000E+00  9.000E+00
#rwgt            1           1   4.8718360422978169E-002           2      341266           0
</event>
<event>
      5   9999  3.79277E-02  2.91410E+01 -1.00000E+00  1.53921E-01
      21    -1     0     0   512   501  0.000000000E+00  0.000000000E+00  5.719180302E+01  5.719180302E+01  0.000000000E+00  0.00000E+00  9.000E+00
      21    -1     0     0   501   502  0.000000000E+00  0.000000000E+00 -1.380619394E+03  1.380619394E+03  0.000000000E+00  0.00000E+00  9.000E+00
      25     1     1     2     0     0 -3.501466883E+01  1.495053433E+02 -8.342140071E+02  8.573889924E+02  1.250000000E+02  0.00000E+00  9.000E+00
      25     1     1     2     0     0  4.516443723E+01 -1.768216682E+02 -5.020183762E+02  5.485919967E+02  1.250000000E+02  0.00000E+00  9.000E+00
      21     1     1     2   512   502 -1.014976840E+01  2.731632492E+01  1.280479260E+01  3.183020765E+01  1.283923342E-06  0.00000E+00  9.000E+00
#rwgt            1           1   3.6951740838395260E-002           2      341359           0
</event>
<event>
      5   9999  3.79277E-02  1.00398E+02 -1.00000E+00  1.23750E-01
      21    -1     0     0   502   501  0.000000000E+00  0.000000000E+00  3.602413266E+02  3.602413266E+02  0.000000000E+00  0.00000E+00  9.000E+00
       2    -1     0     0   501     0  0.000000000E+00  0.000000000E+00 -3.003864308E+02  3.003864308E+02  0.000000000E+00  0.00000E+00  9.000E+00
      25     1     1     2     0     0 -1.319369693E+02  6.674844601E+01 -9.163033431E+01  2.142051285E+02  1.250000000E+02  0.00000E+00  9.000E+00
      25     1     1     2     0     0  1.917317565E+02 -1.473975258E+02  1.971524382E+02  3.361267335E+02  1.250000000E+02  0.00000E+00  9.000E+00
       2     1     1     2   502     0 -5.979478722E+01  8.064907978E+01 -4.566720806E+01  1.102958954E+02  2.236564522E-06  0.00000E+00  9.000E+00
#rwgt            1           1   4.3016935792872059E-002           2      341677           0
</event>
<event>
      5   9999  3.79277E-02  3.49044E+01 -1.00000E+00  1.48609E-01
      21    -1     0     0   502   511  0.000000000E+00  0.000000000E+00  9.342614118E+02  9.342614118E+02  0.000000000E+00  0.00000E+00  9.000E+00
      21    -1     0     0   501   502  0.000000000E+00  0.000000000E+00 -5.978101473E+02  5.978101473E+02  0.000000000E+00  0.00000E+00  9.000E+00
      25     1     1     2     0     0  1.484715462E+02  5.515112022E+01 -4.372331249E+02  4.815425750E+02  1.250000000E+02  0.00000E+00  9.000E+00
      25     1     1     2     0     0 -1.416914750E+02 -8.939065252E+01 -5.893666154E+01  2.171766399E+02  1.250000000E+02  0.00000E+00  9.000E+00
      21     1     1     2   501   511 -6.780071187E+00  3.423953229E+01  8.326210510E+02  8.333523441E+02  0.000000000E+00  0.00000E+00  9.000E+00
#rwgt            1           1   4.8198195396591315E-002           2      341746           0
</event>
<event>
      5   9999  3.79277E-02  1.07275E+01 -1.00000E+00  1.92296E-01
      21    -1     0     0   502   512  0.000000000E+00  0.000000000E+00  4.296956793E+01  4.296956793E+01  0.000000000E+00  0.00000E+00  9.000E+00
      21    -1     0     0   501   502  0.000000000E+00  0.000000000E+00 -1.933300124E+03  1.933300124E+03  0.000000000E+00  0.00000E+00  9.000E+00
      25     1     1     2     0     0 -1.869069483E+02  8.484786449E+01 -4.161548009E+02  4.805654854E+02  1.250000000E+02  0.00000E+00  9.000E+00
      25     1     1     2     0     0  1.789926000E+02 -9.208953451E+01 -1.450309916E+03  1.469538256E+03  1.250000000E+02  0.00000E+00  9.000E+00
      21     1     1     2   501   512  7.914348272E+00  7.241670025E+00 -2.386583919E+01  2.616595065E+01  4.768371582E-07  0.00000E+00  9.000E+00
#rwgt            1           1   1.0696220253593352E-002           2      342123           0
</event>
<event>
      5   9999  3.79277E-02  4.12049E+01 -1.00000E+00  1.44045E-01
      21    -1     0     0   502   501  0.000000000E+00  0.000000000E+00  2.159028061E+02  2.159028061E+02  0.000000000E+00  0.00000E+00  9.000E+00
      21    -1     0     0   501   511  0.000000000E+00  0.000000000E+00 -1.868358953E+03  1.868358953E+03  0.000000000E+00  0.00000E+00  9.000E+00
      25     1     1     2     0     0 -1.001882143E+02 -1.459963923E+01 -1.800670462E+02  2.414538649E+02  1.250000000E+02  0.00000E+00  9.000E+00
      25     1     1     2     0     0  7.335928100E+01 -1.667418996E+01  1.561778517E+02  2.137197559E+02  1.250000000E+02  0.00000E+00  9.000E+00
      21     1     1     2   502   511  2.682893331E+01  3.127382919E+01 -1.628566953E+03  1.629088138E+03  2.157918644E-05  0.00000E+00  9.000E+00
#rwgt            1           1   4.1343729979618306E-002           2      342507           0
</event>
<event>
      5   9999  3.79277E-02  4.56260E+01 -1.00000E+00  1.41383E-01
      21    -1     0     0   512   501  0.000000000E+00  0.000000000E+00  1.471906278E+02  1.471906278E+02  0.000000000E+00  0.00000E+00  9.000E+00
      21    -1     0     0   501   502  0.000000000E+00  0.000000000E+00 -3.322329801E+03  3.322329801E+03  0.000000000E+00  0.00000E+00  9.000E+00
      25     1     1     2     0     0 -1.314216006E+02  4.707806260E+02 -2.527270109E+03  2.577135084E+03  1.250000000E+02  0.00000E+00  9.000E+00
      25     1     1     2     0     0  8.680223375E+01 -4.803119010E+02 -6.726791134E+02  8.404500815E+02  1.250000000E+02  0.00000E+00  9.000E+00
      21     1     1     2   512   502  4.461936689E+01  9.531274944E+00  2.481004896E+01  5.193526387E+01  1.011524364E-06  0.00000E+00  9.000E+00
#rwgt            1           1   5.8688462324816226E-002           2      342619           0
</event>
<event>
      5   9999  3.79277E-02  2.95767E+01 -1.00000E+00  1.53470E-01
      21    -1     0     0   502   501  0.000000000E+00  0.000000000E+00  5.185028633E+02  5.185028633E+02  0.000000000E+00  0.00000E+00  9.000E+00
      21    -1     0     0   501   511  0.000000000E+00  0.000000000E+00 -2.050089694E+02  2.050089694E+02  0.000000000E+00  0.00000E+00  9.000E+00
      25     1     1     2     0     0 -1.046543594E+02  1.815285938E+02  3.400940283E+02  4.185619588E+02  1.250000000E+02  0.00000E+00  9.000E+00
      25     1     1     2     0     0  1.035401108E+02 -2.110842506E+02 -1.688466123E+00  2.662798647E+02  1.250000000E+02  0.00000E+00  9.000E+00
      21     1     1     2   502   511  1.114248554E+00  2.955565681E+01 -2.491166819E+01  3.867000920E+01  7.539457465E-07  0.00000E+00  9.000E+00
#rwgt            1           1   4.0279308155347027E-002           2      342921           0
</event>
<event>
      5   9999  3.79277E-02  5.27567E+01 -1.00000E+00  1.37759E-01
      21    -1     0     0   512   501  0.000000000E+00  0.000000000E+00  2.034864695E+02  2.034864695E+02  0.000000000E+00  0.00000E+00  9.000E+00
      21    -1     0     0   501   502  0.000000000E+00  0.000000000E+00 -4.150121283E+02  4.150121283E+02  0.000000000E+00  0.00000E+00  9.000E+00
      25     1     1     2     0     0 -1.130630474E+02  1.382806991E+02 -2.948966682E+02  3.667340308E+02  1.250000000E+02  0.00000E+00  9.000E+00
      25     1     1     2     0     0  9.972116689E+01 -8.723886452E+01  4.841508296E+01  1.884779851E+02  1.250000000E+02  0.00000E+00  9.000E+00
      21     1     1     2   512   502  1.334188047E+01 -5.104183457E+01  3.495592649E+01  6.328658189E+01  1.066240300E-06  0.00000E+00  9.000E+00
#rwgt            1           1   4.2066444550399408E-002           2      343110           0
</event>
<event>
      5   9999  3.79277E-02  1.10981E+01 -1.00000E+00  1.90668E-01
      21    -1     0     0   502   501  0.000000000E+00  0.000000000E+00  8.241798856E+01  8.241798856E+01  0.000000000E+00  0.00000E+00  9.000E+00
      21    -1     0     0   501   511  0.000000000E+00  0.000000000E+00 -8.728528111E+02  8.728528111E+02  0.000000000E+00  0.00000E+00  9.000E+00
      25     1     1     2     0     0  1.592503372E+02  7.798807347E+01 -5.590349407E+02  5.996564637E+02  1.250000000E+02  0.00000E+00  9.000E+00
      25     1     1     2     0     0 -1.481635672E+02 -7.848980888E+01 -1.149666031E+02  2.386533314E+02  1.250000000E+02  0.00000E+00  9.000E+00
      21     1     1     2   502   511 -1.108677008E+01  5.017354062E-01 -1.164332788E+02  1.169610047E+02  1.348699152E-06  0.00000E+00  9.000E+00
#rwgt            1           1   3.7908375092175303E-002           2      343327           0
</event>
<event>
      5   9999  3.79277E-02  6.12492E+01 -1.00000E+00  1.34227E-01
      21    -1     0     0   502   501  0.000000000E+00  0.000000000E+00  1.032388143E+03  1.032388143E+03  0.000000000E+00  0.00000E+00  9.000E+00
      21    -1     0     0   512   502  0.000000000E+00  0.000000000E+00 -1.105861384E+02  1.105861384E+02  0.000000000E+00  0.00000E+00  9.000E+00
      25     1     1     2     0     0 -1.266534493E+02  1.465375738E+02  1.534224244E+02  2.769075605E+02  1.250000000E+02  0.00000E+00  9.000E+00
      25     1     1     2     0     0  1.878027523E+02 -1.430400827E+02  7.583251158E+02  8.039977116E+02  1.250000000E+02  0.00000E+00  9.000E+00
      21     1     1     2   512   501 -6.114930298E+01 -3.497491148E+00  1.005446478E+01  6.206900967E+01  6.194296387E-07  0.00000E+00  9.000E+00
#rwgt            1           1   4.3028929653158209E-002           2      343542           0
</event>
<event>
      5   9999  3.79277E-02  1.28220E+01 -1.00000E+00  1.84053E-01
      21    -1     0     0   502   511  0.000000000E+00  0.000000000E+00  5.309164436E+01  5.309164436E+01  0.000000000E+00  0.00000E+00  9.000E+00
      21    -1     0     0   501   502  0.000000000E+00  0.000000000E+00 -6.600742365E+02  6.600742365E+02  0.000000000E+00  0.00000E+00  9.000E+00
      25     1     1     2     0     0  5.215247757E+01 -1.361477050E+00 -7.258970467E+01  1.536749809E+02  1.250000000E+02  0.00000E+00  9.000E+00
      25     1     1     2     0     0 -5.370324253E+01 -1.136634883E+01 -5.276072955E+02  5.449841194E+02  1.250000000E+02  0.00000E+00  9.000E+00
      21     1     1     2   501   511  1.550764963E+00  1.272782588E+01 -6.785592028E+00  1.450678058E+01  1.192092896E-07  0.00000E+00  9.000E+00
#rwgt            1           1   1.5563239552171343E-002           2      343695           0
</event>
<event>
      5   9999  3.79277E-02  9.98262E+01 -1.00000E+00  1.23862E-01
      21    -1     0     0   502   501  0.000000000E+00  0.000000000E+00  3.028987426E+02  3.028987426E+02  0.000000000E+00  0.00000E+00  9.000E+00
       2    -1     0     0   501     0  0.000000000E+00  0.000000000E+00 -2.009462139E+03  2.009462139E+03  0.000000000E+00  0.00000E+00  9.000E+00
      25     1     1     2     0     0 -1.768903559E+02  2.387381128E+02 -4.924878516E+01  3.260928201E+02  1.250000000E+02  0.00000E+00  9.000E+00
      25     1     1     2     0     0  2.249969719E+02 -3.262082624E+02 -1.021411832E+02  4.278940162E+02  1.250000000E+02  0.00000E+00  9.000E+00
       2     1     1     2   502     0 -4.810661597E+01  8.747014964E+01 -1.555173428E+03  1.558374045E+03  0.000000000E+00  0.00000E+00  9.000E+00
#rwgt            2          13   4.5451979964970622E-004           2      343891           0
</event>
<event>
      5   9999  3.79277E-02  4.48473E+01 -1.00000E+00  1.41825E-01
       2    -1     0     0   502     0  0.000000000E+00  0.000000000E+00  1.856923345E+02  1.856923345E+02  0.000000000E+00  0.00000E+00  9.000E+00
      21    -1     0     0   501   502  0.000000000E+00  0.000000000E+00 -2.183268232E+02  2.183268232E+02  0.000000000E+00  0.00000E+00  9.000E+00
      25     1     1     2     0     0 -3.098761906E+01 -3.741100851E+01 -1.214397784E+02  1.809210764E+02  1.250000000E+02  0.00000E+00  9.000E+00
      25     1     1     2     0     0  6.777899429E+01  6.305622228E+01  4.886135631E+01  1.630414407E+02  1.250000000E+02  0.00000E+00  9.000E+00
       2     1     1     2   501     0 -3.679137523E+01 -2.564521377E+01  3.994393340E+01  6.005664074E+01  0.000000000E+00  0.00000E+00  9.000E+00
#rwgt            1           1   4.1184883368348392E-002           2      343925           0
</event>
<event>
      5   9999  3.79277E-02  3.34870E+01 -1.00000E+00  1.49795E-01
      21    -1     0     0   511   501  0.000000000E+00  0.000000000E+00  5.779305873E+02  5.779305873E+02  0.000000000E+00  0.00000E+00  9.000E+00
      21    -1     0     0   501   502  0.000000000E+00  0.000000000E+00 -1.704123738E+02  1.704123738E+02  0.000000000E+00  0.00000E+00  9.000E+00
      25     1     1     2     0     0 -1.916524527E+02 -3.005422130E+01  6.679799101E-01  2.307799060E+02  1.250000000E+02  0.00000E+00  9.000E+00
      25     1     1     2     0     0  2.158854933E+02  5.316563877E+01  2.499095022E+02  3.570894715E+02  1.250000000E+02  0.00000E+00  9.000E+00
      21     1     1     2   511   502 -2.423304064E+01 -2.311141747E+01  1.569407313E+02  1.604735836E+02  1.907348633E-06  0.00000E+00  9.000E+00
#rwgt            1           1   4.0323047443800754E-002           2      344056           0
</event>
<event>
      5   9999  3.79277E-02  2.19062E+01 -1.00000E+00  1.63172E-01
      21    -1     0     0   502   501  0.000000000E+00  0.000000000E+00  7.912587373E+01  7.912587373E+01  0.000000000E+00  0.00000E+00  9.000E+00
      21    -1     0     0   501   512  0.000000000E+00  0.000000000E+00 -6.587600431E+02  6.587600431E+02  0.000000000E+00  0.00000E+00  9.000E+00
      25     1     1     2     0     0  5.139026948E+00  8.680728885E+01 -3.672562459E+02  3.975727168E+02  1.250000000E+02  0.00000E+00  9.000E+00
      25     1     1     2     0     0 -8.337614430E+00 -1.084786804E+02 -4.528868077E+01  1.717940759E+02  1.250000000E+02  0.00000E+00  9.000E+00
      21     1     1     2   502   512  3.198587482E+00  2.167139151E+01 -1.670892427E+02  1.685191241E+02  0.000000000E+00  0.00000E+00  9.000E+00
#rwgt            1           1   3.9187430600251767E-002           2      344189           0
</event>
<event>
      5   9999  3.79277E-02  2.79522E+01 -1.00000E+00  1.55204E-01
      21    -1     0     0   511   501  0.000000000E+00  0.000000000E+00  2.301810909E+02  2.301810909E+02  0.000000000E+00  0.00000E+00  9.000E+00
      21    -1     0     0   501   502  0.000000000E+00  0.000000000E+00 -4.770840532E+02  4.770840532E+02  0.000000000E+00  0.00000E+00  9.000E+00
      25     1     1     2     0     0  2.280304569E+02 -4.119827016E+01 -2.788260971E+02  3.834894772E+02  1.250000000E+02  0.00000E+00  9.000E+00
      25     1     1     2     0     0 -2.163776559E+02  6.660574402E+01 -2.554372138E+01  2.598713082E+02  1.250000000E+02  0.00000E+00  9.000E+00
      21     1     1     2   511   502 -1.165280100E+01 -2.540747386E+01  5.746685623E+01  6.390435873E+01  9.536743164E-07  0.00000E+00  9.000E+00
#rwgt            1           1  0.20066198434924326                2      344330           0
</event>
<event>
      5   9999  3.79277E-02  9.32467E+01 -1.00000E+00  1.25209E-01
      21    -1     0     0   502   501  0.000000000E+00  0.000000000E+00  4.071907743E+02  4.071907743E+02  0.000000000E+00  0.00000E+00  9.000E+00
      21    -1     0     0   501   512  0.000000000E+00  0.000000000E+00 -2.988417193E+02  2.988417193E+02  0.000000000E+00  0.00000E+00  9.000E+00
      25     1     1     2     0     0 -8.555972927E+01  1.425194787E+02  2.346445422E+02  3.135527551E+02  1.250000000E+02  0.00000E+00  9.000E+00
      25     1     1     2     0     0  1.707695548E+02 -1.803907234E+02 -1.011224344E+02  2.958949149E+02  1.250000000E+02  0.00000E+00  9.000E+00
      21     1     1     2   502   512 -8.520982550E+01  3.787124479E+01 -2.517305274E+01  9.658482349E+01  1.390207266E-06  0.00000E+00  9.000E+00
#rwgt            1           1   4.1085726411312223E-002           2      344539           0
</event>
<event>
      5   9999  3.79277E-02  4.24470E+01 -1.00000E+00  1.43259E-01
      21    -1     0     0   502   501  0.000000000E+00  0.000000000E+00  3.119450585E+02  3.119450585E+02  0.000000000E+00  0.00000E+00  9.000E+00
      21    -1     0     0   501   511  0.000000000E+00  0.000000000E+00 -1.824233384E+02  1.824233384E+02  0.000000000E+00  0.00000E+00  9.000E+00
      25     1     1     2     0     0  1.078137007E+02  6.159190398E+01  2.192294347E+02  2.812541586E+02  1.250000000E+02  0.00000E+00  9.000E+00
      25     1     1     2     0     0 -6.770433717E+01 -4.770004875E+01 -6.105026355E+01  1.618990630E+02  1.250000000E+02  0.00000E+00  9.000E+00
      21     1     1     2   502   511 -4.010936348E+01 -1.389185523E+01 -2.865745104E+01  5.121517530E+01  7.539457465E-07  0.00000E+00  9.000E+00
#rwgt            1           1   3.3741638961759836E-002           2      344586           0
</event>
<event>
      5   9999  3.79277E-02  8.69951E+01 -1.00000E+00  1.26612E-01
      21    -1     0     0   502   501  0.000000000E+00  0.000000000E+00  1.159952666E+03  1.159952666E+03  0.000000000E+00  0.00000E+00  9.000E+00
      21    -1     0     0   501   512  0.000000000E+00  0.000000000E+00 -2.262147784E+02  2.262147784E+02  0.000000000E+00  0.00000E+00  9.000E+00
      25     1     1     2     0     0  2.877656808E+02 -1.604901539E+02  6.375376736E+02  7.284541590E+02  1.250000000E+02  0.00000E+00  9.000E+00
      25     1     1     2     0     0 -2.036016564E+02  1.384771628E+02  4.222670863E+02  5.045434087E+02  1.250000000E+02  0.00000E+00  9.000E+00
      21     1     1     2   502   512 -8.416402435E+01  2.201299109E+01 -1.260668724E+02  1.531698765E+02  3.015782986E-06  0.00000E+00  9.000E+00
#rwgt            1           1   3.6009702099828116E-002           2      344741           0
</event>
<event>
      5   9999  3.79277E-02  4.76437E+01 -1.00000E+00  1.40282E-01
      21    -1     0     0   502   501  0.000000000E+00  0.000000000E+00  3.483505963E+02  3.483505963E+02  0.000000000E+00  0.00000E+00  9.000E+00
      21    -1     0     0   511   502  0.000000000E+00  0.000000000E+00 -2.333544425E+02  2.333544425E+02  0.000000000E+00  0.00000E+00  9.000E+00
      25     1     1     2     0     0 -1.720977645E+02 -1.001511163E+02  9.701983493E+01  2.543339046E+02  1.250000000E+02  0.00000E+00  9.000E+00
      25     1     1     2     0     0  2.154971996E+02  8.049373195E+01  5.439953408E+01  2.673996882E+02  1.250000000E+02  0.00000E+00  9.000E+00
      21     1     1     2   511   501 -4.339943512E+01  1.965738440E+01 -3.642321525E+01  5.997144604E+01  1.348699152E-06  0.00000E+00  9.000E+00
#rwgt            1           1   3.2239496058607015E-002           2      344805           0
</event>
<event>
      5   9999  3.79277E-02  3.48551E+01 -1.00000E+00  1.48649E-01
      21    -1     0     0   502   501  0.000000000E+00  0.000000000E+00  1.495459539E+03  1.495459539E+03  0.000000000E+00  0.00000E+00  9.000E+00
       2    -1     0     0   501     0  0.000000000E+00  0.000000000E+00 -1.045635228E+02  1.045635228E+02  0.000000000E+00  0.00000E+00  9.000E+00
      25     1     1     2     0     0 -1.644472960E+02 -2.284928795E+02  4.724964178E+02  5.640299406E+02  1.250000000E+02  0.00000E+00  9.000E+00
      25     1     1     2     0     0  1.851490543E+02  2.565341576E+02  9.367504391E+02  9.966023939E+02  1.250000000E+02  0.00000E+00  9.000E+00
       2     1     1     2   502     0 -2.070175834E+01 -2.804127806E+01 -1.835084039E+01  3.939072755E+01  5.840038640E-07  0.00000E+00  9.000E+00
#rwgt            1           1   4.2341120665381378E-002           2      344931           0
</event>
<event>
      5   9999  3.79277E-02  1.91493E+01 -1.00000E+00  1.67942E-01
      21    -1     0     0   511   501  0.000000000E+00  0.000000000E+00  6.357362397E+02  6.357362397E+02  0.000000000E+00  0.00000E+00  9.000E+00
      21    -1     0     0   501   502  0.000000000E+00  0.000000000E+00 -2.973412434E+02  2.973412434E+02  0.000000000E+00  0.00000E+00  9.000E+00
      25     1     1     2     0     0  1.496728578E+02  8.135264895E+01 -4.334138284E+01  2.156935171E+02  1.250000000E+02  0.00000E+00  9.000E+00
      25     1     1     2     0     0 -1.538289271E+02 -6.265975627E+01 -1.031873121E+02  2.320823243E+02  1.250000000E+02  0.00000E+00  9.000E+00
      21     1     1     2   511   502  4.156069264E+00 -1.869289268E+01  4.849236913E+02  4.853016418E+02  7.629394531E-06  0.00000E+00  9.000E+00
#rwgt            1           1   3.9625110818815992E-002           2      345112           0
</event>
<event>
      5   9999  3.79277E-02  4.83181E+01 -1.00000E+00  1.39929E-01
      21    -1     0     0   502   501  0.000000000E+00  0.000000000E+00  1.308862323E+03  1.308862323E+03  0.000000000E+00  0.00000E+00  9.000E+00
      21    -1     0     0   512   502  0.000000000E+00  0.000000000E+00 -1.438188174E+02  1.438188174E+02  0.000000000E+00  0.00000E+00  9.000E+00
      25     1     1     2     0     0  1.278901728E+02  8.734370606E+01  7.661462364E+02  7.915743015E+02  1.250000000E+02  0.00000E+00  9.000E+00
      25     1     1     2     0     0 -1.165146093E+02 -1.343036071E+02  5.021170727E+02  5.471377045E+02  1.250000000E+02  0.00000E+00  9.000E+00
      21     1     1     2   512   501 -1.137556344E+01  4.695990106E+01 -1.032198035E+02  1.139691344E+02  1.907348633E-06  0.00000E+00  9.000E+00
#rwgt            1           1  0.18963366539800289                2      345305           0
</event>
<event>
      5   9999  3.79277E-02  5.49239E+01 -1.00000E+00  1.36787E-01
      21    -1     0     0   502   501  0.000000000E+00  0.000000000E+00  2.840873532E+02  2.840873532E+02  0.000000000E+00  0.00000E+00  9.000E+00
       2    -1     0     0   501     0  0.000000000E+00  0.000000000E+00 -2.900066551E+03  2.900066551E+03  0.000000000E+00  0.00000E+00  9.000E+00
      25     1     1     2     0     0 -5.333256147E+01 -3.667824811E+02 -2.616929437E+02  4.706186857E+02  1.250000000E+02  0.00000E+00  9.000E+00
      25     1     1     2     0     0  2.513680547E-02  3.535556392E+02 -1.677326622E+01  3.753770546E+02  1.250000000E+02  0.00000E+00  9.000E+00
       2     1     1     2   502     0  5.330742466E+01  1.322684192E+01 -2.337512987E+03  2.338158163E+03  3.051757812E-05  0.00000E+00  9.000E+00
#rwgt            1           1   2.9343208104226838E-002           2      345452           0
</event>
<event>
      5   9999  3.79277E-02  1.81024E+02 -1.00000E+00  1.13247E-01
      21    -1     0     0   511   501  0.000000000E+00  0.000000000E+00  6.472150240E+02  6.472150240E+02  0.000000000E+00  0.00000E+00  9.000E+00
      21    -1     0     0   501   502  0.000000000E+00  0.000000000E+00 -2.878632071E+02  2.878632071E+02  0.000000000E+00  0.00000E+00  9.000E+00
      25     1     1     2     0     0  4.785591950E+01  3.810408142E+01 -2.151976905E+02  2.562755471E+02  1.250000000E+02  0.00000E+00  9.000E+00
      25     1     1     2     0     0  2.501093795E+01  1.276068678E+02  2.795533631E+02  3.326922641E+02  1.250000000E+02  0.00000E+00  9.000E+00
      21     1     1     2   511   502 -7.286685745E+01 -1.657109492E+02  2.949961443E+02  3.461104199E+02  3.814697266E-06  0.00000E+00  9.000E+00
#rwgt            1           1   3.9407835378418028E-002           2      345573           0
</event>
<event>
      5   9999  3.79277E-02  3.95654E+01 -1.00000E+00  1.45135E-01
      21    -1     0     0   512   501  0.000000000E+00  0.000000000E+00  3.157550436E+02  3.157550436E+02  0.000000000E+00  0.00000E+00  9.000E+00
      21    -1     0     0   501   502  0.000000000E+00  0.000000000E+00 -1.503805090E+02  1.503805090E+02  0.000000000E+00  0.00000E+00  9.000E+00
      25     1     1     2     0     0  8.257219207E+01  1.441053823E+02  1.004754968E+02  2.308784390E+02  1.250000000E+02  0.00000E+00  9.000E+00
      25     1     1     2     0     0 -8.437626456E+01 -1.045810942E+02  3.801206601E+01  1.874205871E+02  1.250000000E+02  0.00000E+00  9.000E+00
      21     1     1     2   512   502  1.804072488E+00 -3.952428807E+01  2.688697171E+01  4.783652655E+01  1.066240300E-06  0.00000E+00  9.000E+00
#rwgt            1           1   4.2039538811161986E-002           2      345711           0
</event>
<event>
      5   9999  3.79277E-02  4.64946E+01 -1.00000E+00  1.40901E-01
      21    -1     0     0   502   501  0.000000000E+00  0.000000000E+00  5.559272106E+02  5.559272106E+02  0.000000000E+00  0.00000E+00  9.000E+00
      -3    -1     0     0     0   502  0.000000000E+00  0.000000000E+00 -1.144629943E+02  1.144629943E+02  0.000000000E+00  0.00000E+00  9.000E+00
      25     1     1     2     0     0 -1.210356864E+02 -1.088990718E+02  1.018320546E+02  2.291362315E+02  1.250000000E+02  0.00000E+00  9.000E+00
      25     1     1     2     0     0  1.493401506E+02  7.201269745E+01  3.355278596E+02  3.945785774E+02  1.250000000E+02  0.00000E+00  9.000E+00
      -3     1     1     2     0   501 -2.830446418E+01  3.688637436E+01  4.104302177E+00  4.667539611E+01  5.960464478E-08  0.00000E+00  9.000E+00
#rwgt            1           1   2.4683933170200636E-002           2      345845           0
</event>
<event>
      5   9999  3.79277E-02  8.21532E+01 -1.00000E+00  1.27794E-01
      21    -1     0     0   502   501  0.000000000E+00  0.000000000E+00  1.276163100E+03  1.276163100E+03  0.000000000E+00  0.00000E+00  9.000E+00
      21    -1     0     0   511   502  0.000000000E+00  0.000000000E+00 -1.068364504E+02  1.068364504E+02  0.000000000E+00  0.00000E+00  9.000E+00
      25     1     1     2     0     0  1.129303406E+02 -1.573244767E+02  1.063336209E+03  1.088031776E+03  1.250000000E+02  0.00000E+00  9.000E+00
      25     1     1     2     0     0 -4.504170217E+01  1.110613774E+02  1.723514236E+01  1.740271089E+02  1.250000000E+02  0.00000E+00  9.000E+00
      21     1     1     2   511   501 -6.788863839E+01  4.626309926E+01  8.875529880E+01  1.209406658E+02  1.651812370E-06  0.00000E+00  9.000E+00
#rwgt            1           1   3.7229865852126731E-002           2      345927           0
</event>
<event>
      5   9999  3.79277E-02  1.36792E+02 -1.00000E+00  1.18003E-01
      21    -1     0     0   502   501  0.000000000E+00  0.000000000E+00  2.899927675E+02  2.899927675E+02  0.000000000E+00  0.00000E+00  9.000E+00
      -5    -1     0     0     0   502  0.000000000E+00  0.000000000E+00 -6.831158191E+02  6.831158191E+02  0.000000000E+00  0.00000E+00  9.000E+00
      25     1     1     2     0     0 -9.014411312E+01 -2.023480630E+01  1.702761416E+02  2.305523214E+02  1.250000000E+02  0.00000E+00  9.000E+00
      25     1     1     2     0     0  9.001814872E+01  1.570265921E+02 -7.044128658E+01  2.309709778E+02  1.250000000E+02  0.00000E+00  9.000E+00
      -5     1     1     2     0   501  1.259643948E-01 -1.367917858E+02 -4.929579066E+02  5.115852873E+02  0.000000000E+00  0.00000E+00  9.000E+00
#rwgt            1           1   3.5363257155489866E-002           2      346044           0
</event>
<event>
      5   9999  3.79277E-02  1.43911E+01 -1.00000E+00  1.79096E-01
      21    -1     0     0   502   501  0.000000000E+00  0.000000000E+00  7.486722668E+02  7.486722668E+02  0.000000000E+00  0.00000E+00  9.000E+00
      21    -1     0     0   501   511  0.000000000E+00  0.000000000E+00 -1.553459564E+02  1.553459564E+02  0.000000000E+00  0.00000E+00  9.000E+00
      25     1     1     2     0     0  1.685691585E+02  1.258039418E+02  4.451541126E+00  2.447182241E+02  1.250000000E+02  0.00000E+00  9.000E+00
      25     1     1     2     0     0 -1.810356013E+02 -1.186143340E+02  5.936652940E+02  6.441325411E+02  1.250000000E+02  0.00000E+00  9.000E+00
      21     1     1     2   502   511  1.246644280E+01 -7.189607771E+00 -4.790524752E+00  1.516745804E+01  3.264680848E-07  0.00000E+00  9.000E+00
#rwgt            1           1   4.7794603776102319E-002           2      346122           0
</event>
<event>
      5   9999  3.79277E-02  2.31499E+02 -1.00000E+00  1.09384E-01
       1    -1     0     0   502     0  0.000000000E+00  0.000000000E+00  8.980564982E+02  8.980564982E+02  0.000000000E+00  0.00000E+00  9.000E+00
      21    -1     0     0   501   502  0.000000000E+00  0.000000000E+00 -2.529307397E+02  2.529307397E+02  0.000000000E+00  0.00000E+00  9.000E+00
      25     1     1     2     0     0 -1.255598778E+02  6.926196260E+01  2.421524826E+02  3.079372131E+02  1.250000000E+02  0.00000E+00  9.000E+00
      25     1     1     2     0     0  3.378176795E+01  1.432668513E+02 -1.493818104E+02  2.441444733E+02  1.250000000E+02  0.00000E+00  9.000E+00
       1     1     1     2   501     0  9.177810985E+01 -2.125288139E+02  5.523550863E+02  5.989055515E+02  1.321449896E-05  0.00000E+00  9.000E+00
#rwgt            1           1   4.3374980038393594E-002           2      346357           0
</event>
<event>
      5   9999  3.79277E-02  8.77977E+00 -1.00000E+00  2.02526E-01
      21    -1     0     0   502   511  0.000000000E+00  0.000000000E+00  5.333597470E+01  5.333597470E+01  0.000000000E+00  0.00000E+00  9.000E+00
      21    -1     0     0   501   502  0.000000000E+00  0.000000000E+00 -1.297985182E+03  1.297985182E+03  0.000000000E+00  0.00000E+00  9.000E+00
      25     1     1     2     0     0 -1.504706366E+02 -3.690874967E+01 -9.579579384E+02  9.784232622E+02  1.250000000E+02  0.00000E+00  9.000E+00
      25     1     1     2     0     0  1.539880802E+02  4.495312871E+01 -2.966220424E+02  3.596425290E+02  1.250000000E+02  0.00000E+00  9.000E+00
      21     1     1     2   501   511 -3.517443647E+00 -8.044379046E+00  9.930773668E+00  1.325536532E+01  6.743495762E-07  0.00000E+00  9.000E+00
#rwgt            1           1   4.2558994253057647E-002           2      346426           0
</event>
<event>
      5   9999  3.82473E-02  5.08334E+01 -1.00000E+00  1.38667E-01
      21    -1     0     0   502   512  0.000000000E+00  0.000000000E+00  8.146315119E+02  8.146315119E+02  0.000000000E+00  0.00000E+00  9.000E+00
      21    -1     0     0   501   502  0.000000000E+00  0.000000000E+00 -1.291483999E+02  1.291483999E+02  0.000000000E+00  0.00000E+00  9.000E+00
      25     1     1     2     0     0 -2.073346421E+02  1.768859645E+02  4.718590792E+02  5.590637611E+02  1.250000000E+02  0.00000E+00  9.000E+00
      25     1     1     2     0     0  1.567493665E+02 -1.718699793E+02  1.515001452E+02  3.044453115E+02  1.250000000E+02  0.00000E+00  9.000E+00
      21     1     1     2   501   512  5.058527563E+01 -5.015985173E+00  6.212388762E+01  8.027083923E+01  1.507891493E-06  0.00000E+00  9.000E+00
#rwgt            1           1  0.30628606486932541                2      346734           0
</event>
<event>
      5   9999 -3.79277E-02  5.79999E+01 -1.00000E+00  1.35495E-01
      21    -1     0     0   502   501  0.000000000E+00  0.000000000E+00  3.846654252E+01  3.846654252E+01  0.000000000E+00  0.00000E+00  9.000E+00
      21    -1     0     0   501   511  0.000000000E+00  0.000000000E+00 -1.186497108E+03  1.186497108E+03  0.000000000E+00  0.00000E+00  9.000E+00
      25     1     1     2     0     0  1.326822122E+02 -6.723523309E+01 -4.497722991E+02  4.899441468E+02  1.250000000E+02  0.00000E+00  9.000E+00
      25     1     1     2     0     0 -7.724630178E+01  8.428945255E+01 -4.732134635E+02  5.026208164E+02  1.250000000E+02  0.00000E+00  9.000E+00
      21     1     1     2   502   511 -5.543591047E+01 -1.705421946E+01 -2.250448025E+02  2.323986870E+02  2.697398305E-06  0.00000E+00  9.000E+00
#rwgt            1           1  -1.1169111960005617E-002           2      346882           0
</event>
<event>
      5   9999  3.79277E-02  1.08072E+02 -1.00000E+00  1.22330E-01
      21    -1     0     0   512   501  0.000000000E+00  0.000000000E+00  1.141069741E+02  1.141069741E+02  0.000000000E+00  0.00000E+00  9.000E+00
      21    -1     0     0   501   502  0.000000000E+00  0.000000000E+00 -6.037739678E+02  6.037739678E+02  0.000000000E+00  0.00000E+00  9.000E+00
      25     1     1     2     0     0 -1.174494568E+01  6.451445051E+01 -2.635190983E+01  1.435948510E+02  1.250000000E+02  0.00000E+00  9.000E+00
      25     1     1     2     0     0  5.563360694E+01  3.424415160E+01 -4.422299504E+02  4.641767865E+02  1.250000000E+02  0.00000E+00  9.000E+00
      21     1     1     2   512   502 -4.388866125E+01 -9.875860211E+01 -2.108513350E+01  1.101093045E+02  1.735713456E-06  0.00000E+00  9.000E+00
#rwgt            1           1   3.4629274645613058E-002           2      347037           0
</event>
<event>
      5   9999  3.79277E-02  3.29587E+01 -1.00000E+00  1.50256E-01
      21    -1     0     0   502   501  0.000000000E+00  0.000000000E+00  7.606490336E+02  7.606490336E+02  0.000000000E+00  0.00000E+00  9.000E+00
      21    -1     0     0   511   502  0.000000000E+00  0.000000000E+00 -1.344021320E+02  1.344021320E+02  0.000000000E+00  0.00000E+00  9.000E+00
      25     1     1     2     0     0 -6.813475692E+01 -9.665516135E+01  5.487554053E+02  5.751017825E+02  1.250000000E+02  0.00000E+00  9.000E+00
      25     1     1     2     0     0  8.998693460E+01  7.198212876E+01  1.585355438E+02  2.324598759E+02  1.250000000E+02  0.00000E+00  9.000E+00
      21     1     1     2   511   501 -2.185217768E+01  2.467303259E+01 -8.104404764E+01  8.748950717E+01  2.336015456E-06  0.00000E+00  9.000E+00
#rwgt            1           1   1.6640745119465297E-002           2      347157           0
</event>
<event>
      5   9999  3.79277E-02  2.46608E+01 -1.00000E+00  1.59197E-01
      21    -1     0     0   502   512  0.000000000E+00  0.000000000E+00  4.864923538E+01  4.864923538E+01  0.000000000E+00  0.00000E+00  9.000E+00
      21    -1     0     0   501   502  0.000000000E+00  0.000000000E+00 -8.803412102E+02  8.803412102E+02  0.000000000E+00  0.00000E+00  9.000E+00
      25     1     1     2     0     0  1.327571755E+01 -6.458184220E+01 -1.041294745E+02  1.755420362E+02  1.250000000E+02  0.00000E+00  9.000E+00
      25     1     1     2     0     0 -3.067658202E+01  8.205650649E+01 -7.000642096E+02  7.165118425E+02  1.250000000E+02  0.00000E+00  9.000E+00
      21     1     1     2   501   512  1.740086447E+01 -1.747466429E+01 -2.749829066E+01  3.693656678E+01  8.259061849E-07  0.00000E+00  9.000E+00
#rwgt            1           1   4.8671504411465102E-002           2      347325           0
</event>
<event>
      5   9999  3.79277E-02  5.30919E+01 -1.00000E+00  1.37605E-01
      21    -1     0     0   502   501  0.000000000E+00  0.000000000E+00  2.391051111E+02  2.391051111E+02  0.000000000E+00  0.00000E+00  9.000E+00
      21    -1     0     0   511   502  0.000000000E+00  0.000000000E+00 -1.967190068E+02  1.967190068E+02  0.000000000E+00  0.00000E+00  9.000E+00
      25     1     1     2     0     0 -2.832314337E+01  1.472806121E+02  6.166614913E+01  2.047473885E+02  1.250000000E+02  0.00000E+00  9.000E+00
      25     1     1     2     0     0 -7.785690456E+00 -1.083589244E+02  1.743411610E+01  1.665269404E+02  1.250000000E+02  0.00000E+00  9.000E+00
      21     1     1     2   511   501  3.610883383E+01 -3.892168767E+01 -3.671416097E+01  6.454978905E+01  0.000000000E+00  0.00000E+00  9.000E+00
#rwgt            1           1   4.3399747633324152E-002           2      347596           0
</event>
<event>
      5   9999  3.79277E-02  1.33423E+02 -1.00000E+00  1.18446E-01
      21    -1     0     0   502   512  0.000000000E+00  0.000000000E+00  9.754317140E+01  9.754317140E+01  0.000000000E+00  0.00000E+00  9.000E+00
      21    -1     0     0   501   502  0.000000000E+00  0.000000000E+00 -1.171872839E+03  1.171872839E+03  0.000000000E+00  0.00000E+00  9.000E+00
      25     1     1     2     0     0  7.923993621E+01 -9.072760979E+01 -6.949713377E+02  7.163243866E+02  1.250000000E+02  0.00000E+00  9.000E+00
      25     1     1     2     0     0 -2.079162747E+02  5.545703569E+01 -3.242422952E+02  4.087330744E+02  1.250000000E+02  0.00000E+00  9.000E+00
      21     1     1     2   501   512  1.286763385E+02  3.527057410E+01 -5.511603466E+01  1.443585493E+02  1.651812370E-06  0.00000E+00  9.000E+00
#rwgt            1           1   4.6383624794975535E-002           2      347759           0
</event>
<event>
      5   9999  3.79277E-02  3.33366E+01 -1.00000E+00  1.49925E-01
      21    -1     0     0   502   501  0.000000000E+00  0.000000000E+00  2.093899405E+02  2.093899405E+02  0.000000000E+00  0.00000E+00  9.000E+00
       1    -1     0     0   501     0  0.000000000E+00  0.000000000E+00 -9.628648527E+02  9.628648527E+02  0.000000000E+00  0.00000E+00  9.000E+00
      25     1     1     2     0     0  4.296835700E+01 -8.617439919E+01  1.586019804E+02  2.237228083E+02  1.250000000E+02  0.00000E+00  9.000E+00
      25     1     1     2     0     0 -4.038830230E+01  5.293774533E+01 -2.639361942E+02  2.995345297E+02  1.250000000E+02  0.00000E+00  9.000E+00
       1     1     1     2   502     0 -2.580054697E+00  3.323665385E+01 -6.481406984E+02  6.489974552E+02  0.000000000E+00  0.00000E+00  9.000E+00
#rwgt            1           1   4.0804486201280146E-002           2      347867           0
</event>
<event>
      5   9999  3.79277E-02  2.10555E+01 -1.00000E+00  1.64547E-01
       1    -1     0     0   502     0  0.000000000E+00  0.000000000E+00  9.196593914E+02  9.196593914E+02  0.000000000E+00  0.00000E+00  9.000E+00
      21    -1     0     0   501   502  0.000000000E+00  0.000000000E+00 -5.069205683E+02  5.069205683E+02  0.000000000E+00  0.00000E+00  9.000E+00
      25     1     1     2     0     0 -1.722220617E+02 -2.657593517E+01 -2.043729497E+02  2.962431795E+02  1.250000000E+02  0.00000E+00  9.000E+00
      25     1     1     2     0     0  1.680853731E+02  4.722103130E+01 -2.115359525E+02  3.014215946E+02  1.250000000E+02  0.00000E+00  9.000E+00
       1     1     1     2   501     0  4.136688570E+00 -2.064509612E+01  8.286477253E+02  8.289151856E+02  1.078959322E-05  0.00000E+00  9.000E+00
#rwgt            1           1   3.1163713793334456E-002           2      348070           0
</event>
<event>
      5   9999  3.79277E-02  1.45941E+01 -1.00000E+00  1.78513E-01
      21    -1     0     0   502   511  0.000000000E+00  0.000000000E+00  6.836950659E+02  6.836950659E+02  0.000000000E+00  0.00000E+00  9.000E+00
      21    -1     0     0   501   502  0.000000000E+00  0.000000000E+00 -1.154527463E+02  1.154527463E+02  0.000000000E+00  0.00000E+00  9.000E+00
      25     1     1     2     0     0  2.339876904E+01 -3.206241057E+01 -6.518093418E+01  1.464549581E+02  1.250000000E+02  0.00000E+00  9.000E+00
      25     1     1     2     0     0 -1.753130520E+01  4.542511449E+01  4.744254103E+02  4.930266297E+02  1.250000000E+02  0.00000E+00  9.000E+00
      21     1     1     2   501   511 -5.867463847E+00 -1.336270392E+01  1.589978435E+02  1.596662244E+02  0.000000000E+00  0.00000E+00  9.000E+00
#rwgt            1           1   2.9225370505239913E-002           2      348246           0
</event>
<event>
      5   9999  3.79277E-02  5.47108E+01 -1.00000E+00  1.36881E-01
      21    -1     0     0   502   512  0.000000000E+00  0.000000000E+00  8.169079322E+02  8.169079322E+02  0.000000000E+00  0.00000E+00  9.000E+00
      21    -1     0     0   501   502  0.000000000E+00  0.000000000E+00 -7.997534166E+01  7.997534166E+01  0.000000000E+00  0.00000E+00  9.000E+00
      25     1     1     2     0     0 -1.750303374E+02  1.211098278E+00  3.956658631E+02  4.503482663E+02  1.250000000E+02  0.00000E+00  9.000E+00
      25     1     1     2     0     0  1.548593138E+02 -5.206774968E+01  1.703939226E+02  2.671171025E+02  1.250000000E+02  0.00000E+00  9.000E+00
      21     1     1     2   501   512  2.017102360E+01  5.085665140E+01  1.708728049E+02  1.794179050E+02  1.907348633E-06  0.00000E+00  9.000E+00
#rwgt            1           1  0.12692713088500399                2      348493           0
</event>
<event>
      5   9999  3.79277E-02  1.21667E+01 -1.00000E+00  1.86400E-01
      21    -1     0     0   502   501  0.000000000E+00  0.000000000E+00  1.917466388E+01  1.917466388E+01  0.000000000E+00  0.00000E+00  9.000E+00
      21    -1     0     0   511   502  0.000000000E+00  0.000000000E+00 -1.505101469E+03  1.505101469E+03  0.000000000E+00  0.00000E+00  9.000E+00
      25     1     1     2     0     0 -2.971627666E-01  7.163096863E+01 -3.551669804E+02  3.832749248E+02  1.250000000E+02  0.00000E+00  9.000E+00
      25     1     1     2     0     0 -8.434565530E+00 -6.315834513E+01 -1.031355768E+03  1.040855340E+03  1.250000000E+02  0.00000E+00  9.000E+00
      21     1     1     2   511   501  8.731728296E+00 -8.472623501E+00 -9.940405634E+01  1.001458678E+02  0.000000000E+00  0.00000E+00  9.000E+00
#rwgt            1           1   4.6496891538258929E-002           2      348558           0
</event>
<event>
      5   9999  3.79277E-02  6.08084E+01 -1.00000E+00  1.34394E-01
      21    -1     0     0   502   512  0.000000000E+00  0.000000000E+00  3.162737364E+01  3.162737364E+01  0.000000000E+00  0.00000E+00  9.000E+00
      21    -1     0     0   501   502  0.000000000E+00  0.000000000E+00 -2.497876107E+03  2.497876107E+03  0.000000000E+00  0.00000E+00  9.000E+00
      25     1     1     2     0     0  1.293433592E+02 -1.049544203E+02 -1.999201167E+03  2.010018766E+03  1.250000000E+02  0.00000E+00  9.000E+00
      25     1     1     2     0     0 -7.458969432E+01  7.850261359E+01 -3.644863015E+02  4.002518542E+02  1.250000000E+02  0.00000E+00  9.000E+00
      21     1     1     2   501   512 -5.475366488E+01  2.645180674E+01 -1.025612658E+02  1.192328610E+02  2.336015456E-06  0.00000E+00  9.000E+00
#rwgt            1           1   5.6624079132016954E-002           2      349019           0
</event>
<event>
      5   9999  3.79277E-02  1.59799E+02 -1.00000E+00  1.15315E-01
      21    -1     0     0   502   501  0.000000000E+00  0.000000000E+00  1.844260889E+02  1.844260889E+02  0.000000000E+00  0.00000E+00  9.000E+00
      21    -1     0     0   511   502  0.000000000E+00  0.000000000E+00 -4.786908631E+02  4.786908631E+02  0.000000000E+00  0.00000E+00  9.000E+00
      25     1     1     2     0     0 -2.756085309E+01  1.751176193E+01  6.927782716E+01  1.465969978E+02  1.250000000E+02  0.00000E+00  9.000E+00
      25     1     1     2     0     0 -7.419723428E+01 -1.407231975E+02 -1.612022450E+02  2.586878653E+02  1.250000000E+02  0.00000E+00  9.000E+00
      21     1     1     2   511   501  1.017580874E+02  1.232114356E+02 -2.023403564E+02  2.578320888E+02  3.814697266E-06  0.00000E+00  9.000E+00
#rwgt            2          11   1.6109710561249687E-003           2      349092           0
</event>
<event>
      5   9999  3.79277E-02  3.78474E+01 -1.00000E+00  1.46346E-01
      21    -1     0     0   502   501  0.000000000E+00  0.000000000E+00  1.460950920E+02  1.460950920E+02  0.000000000E+00  0.00000E+00  9.000E+00
      21    -1     0     0   512   502  0.000000000E+00  0.000000000E+00 -7.240227585E+02  7.240227585E+02  0.000000000E+00  0.00000E+00  9.000E+00
      25     1     1     2     0     0  1.594716330E+02  2.012203366E+02 -2.027771778E+02  3.502347918E+02  1.250000000E+02  0.00000E+00  9.000E+00
      25     1     1     2     0     0 -1.236423412E+02 -2.134139364E+02 -2.014603637E+02  3.421172532E+02  1.250000000E+02  0.00000E+00  9.000E+00
      21     1     1     2   512   501 -3.582929181E+01  1.219359979E+01 -1.736901251E+02  1.777658054E+02  0.000000000E+00  0.00000E+00  9.000E+00
#rwgt            2          11   1.1140184786893560E-003           2      349142           0
</event>
<event>
      5   9999  3.79277E-02  3.76653E+01 -1.00000E+00  1.46479E-01
      21    -1     0     0   502   501  0.000000000E+00  0.000000000E+00  1.656378161E+02  1.656378161E+02  0.000000000E+00  0.00000E+00  9.000E+00
      21    -1     0     0   501   511  0.000000000E+00  0.000000000E+00 -6.361839383E+02  6.361839383E+02  0.000000000E+00  0.00000E+00  9.000E+00
      25     1     1     2     0     0  4.300059712E+01 -2.151541237E+02 -2.790942517E+01  2.540556717E+02  1.250000000E+02  0.00000E+00  9.000E+00
      25     1     1     2     0     0 -4.010275682E+01  2.527077363E+02 -3.838726962E+02  4.779672353E+02  1.250000000E+02  0.00000E+00  9.000E+00
      21     1     1     2   502   511 -2.897840296E+00 -3.755361265E+01 -5.876400082E+01  6.979884736E+01  0.000000000E+00  0.00000E+00  9.000E+00
#rwgt            1           1   3.7224378302964281E-002           2      349447           0
</event>
<event>
      5   9999  3.79277E-02  7.84076E+01 -1.00000E+00  1.28774E-01
      21    -1     0     0   502   501  0.000000000E+00  0.000000000E+00  6.612220134E+02  6.612220134E+02  0.000000000E+00  0.00000E+00  9.000E+00
      21    -1     0     0   512   502  0.000000000E+00  0.000000000E+00 -4.358909492E+02  4.358909492E+02  0.000000000E+00  0.00000E+00  9.000E+00
      25     1     1     2     0     0  2.387531883E+02  7.274450779E+00  4.518337356E+01  2.733542387E+02  1.250000000E+02  0.00000E+00  9.000E+00
      25     1     1     2     0     0 -3.029922995E+02 -5.223088645E+01  4.406792895E+02  5.516843619E+02  1.250000000E+02  0.00000E+00  9.000E+00
      21     1     1     2   512   501  6.423911122E+01  4.495643567E+01 -2.605315988E+02  2.720743620E+02  0.000000000E+00  0.00000E+00  9.000E+00
#rwgt            1           1   2.2217316101268918E-002           2      349639           0
</event>
<event>
      5   9999  3.79277E-02  7.97216E+00 -1.00000E+00  2.07869E-01
      21    -1     0     0   502   501  0.000000000E+00  0.000000000E+00  3.715006706E+02  3.715006706E+02  0.000000000E+00  0.00000E+00  9.000E+00
      21    -1     0     0   511   502  0.000000000E+00  0.000000000E+00 -2.443412427E+02  2.443412427E+02  0.000000000E+00  0.00000E+00  9.000E+00
      25     1     1     2     0     0 -2.424935309E+02 -1.839597848E+01  1.544222013E+02  3.140266562E+02  1.250000000E+02  0.00000E+00  9.000E+00
      25     1     1     2     0     0  2.501734150E+02  1.625713292E+01 -7.201826843E+00  2.802282967E+02  1.250000000E+02  0.00000E+00  9.000E+00
      21     1     1     2   511   501 -7.679884095E+00  2.138845565E+00 -2.006094656E+01  2.158696034E+01  0.000000000E+00  0.00000E+00  9.000E+00
#rwgt            1           1   3.2822685498262637E-002           2      349855           0
</event>
<event>
      5   9999  3.79277E-02  2.14072E+01 -1.00000E+00  1.63969E-01
      21    -1     0     0   512   501  0.000000000E+00  0.000000000E+00  4.485441106E+02  4.485441106E+02  0.000000000E+00  0.00000E+00  9.000E+00
      21    -1     0     0   501   502  0.000000000E+00  0.000000000E+00 -2.418455456E+02  2.418455456E+02  0.000000000E+00  0.00000E+00  9.000E+00
      25     1     1     2     0     0 -2.319727921E+02 -2.960899645E+01  2.781127111E+02  3.842652066E+02  1.250000000E+02  0.00000E+00  9.000E+00
      25     1     1     2     0     0  2.282292428E+02  5.068637626E+01 -8.768725840E+01  2.792342230E+02  1.250000000E+02  0.00000E+00  9.000E+00
      21     1     1     2   512   502  3.743549338E+00 -2.107737982E+01  1.627311237E+01  2.689022662E+01  5.331201500E-07  0.00000E+00  9.000E+00
#rwgt            1           1   4.2482096949291032E-002           2      350048           0
</event>
<event>
      5   9999  3.79277E-02  4.39371E+01 -1.00000E+00  1.42356E-01
      21    -1     0     0   511   501  0.000000000E+00  0.000000000E+00  9.599301605E+02  9.599301605E+02  0.000000000E+00  0.00000E+00  9.000E+00
      21    -1     0     0   501   502  0.000000000E+00  0.000000000E+00 -2.258852981E+02  2.258852981E+02  0.000000000E+00  0.00000E+00  9.000E+00
      25     1     1     2     0     0 -5.114941345E+01  1.177152873E+02  4.451496042E+01  1.846069691E+02  1.250000000E+02  0.00000E+00  9.000E+00
      25     1     1     2     0     0  9.504326933E+01 -1.196636277E+02 -9.244565345E+01  2.179995543E+02  1.250000000E+02  0.00000E+00  9.000E+00
      21     1     1     2   511   502 -4.389385588E+01  1.948340455E+00  7.819755555E+02  7.832089351E+02  0.000000000E+00  0.00000E+00  9.000E+00
#rwgt            1           1   2.7598262471578993E-002           2      350345           0
</event>
<event>
      5   9999  3.79277E-02  4.48742E+01 -1.00000E+00  1.41810E-01
       2    -1     0     0   502     0  0.000000000E+00  0.000000000E+00  1.641616097E+03  1.641616097E+03  0.000000000E+00  0.00000E+00  9.000E+00
      21    -1     0     0   501   502  0.000000000E+00  0.000000000E+00 -1.397546243E+02  1.397546243E+02  0.000000000E+00  0.00000E+00  9.000E+00
      25     1     1     2     0     0  1.082629567E+02 -1.387846009E+02  4.473150498E+01  2.204720862E+02  1.250000000E+02  0.00000E+00  9.000E+00
      25     1     1     2     0     0 -6.876237684E+01  1.600778355E+02  1.717334263E+02  2.747190339E+02  1.250000000E+02  0.00000E+00  9.000E+00
       2     1     1     2   501     0 -3.950057990E+01 -2.129323452E+01  1.285396541E+03  1.286179601E+03  1.525878906E-05  0.00000E+00  9.000E+00
#rwgt            1           1   3.4434961393494057E-002           2      350450           0
</event>
<event>
      5   9999  3.79277E-02  3.32312E+01 -1.00000E+00  1.50017E-01
      21    -1     0     0   502   501  0.000000000E+00  0.000000000E+00  4.683593935E+02  4.683593935E+02  0.000000000E+00  0.00000E+00  9.000E+00
      -5    -1     0     0     0   502  0.000000000E+00  0.000000000E+00 -9.278512119E+02  9.278512119E+02  0.000000000E+00  0.00000E+00  9.000E+00
      25     1     1     2     0     0  1.748341805E+02 -8.621715895E+01  2.842550206E+02  3.666419315E+02  1.250000000E+02  0.00000E+00  9.000E+00
      25     1     1     2     0     0 -1.890846034E+02  5.619657705E+01  4.692618174E+01  2.381976260E+02  1.250000000E+02  0.00000E+00  9.000E+00
      -5     1     1     2     0   501  1.425042289E+01  3.002058190E+01 -7.906730207E+02  7.913710480E+02  0.000000000E+00  0.00000E+00  9.000E+00
#rwgt            1           1   4.0497256540717466E-002           2      350531           0
</event>
<event>
      5   9999  3.79277E-02  1.41342E+02 -1.00000E+00  1.17426E-01
      21    -1     0     0   502   511  0.000000000E+00  0.000000000E+00  2.783338173E+02  2.783338173E+02  0.000000000E+00  0.00000E+00  9.000E+00
      21    -1     0     0   501   502  0.000000000E+00  0.000000000E+00 -2.290107790E+02  2.290107790E+02  0.000000000E+00  0.00000E+00  9.000E+00
      25     1     1     2     0     0  9.397345918E+01 -3.249038072E+00 -5.547848801E+01  1.659651467E+02  1.250000000E+02  0.00000E+00  9.000E+00
      25     1     1     2     0     0 -4.075931226E+01 -1.276927242E+02  6.608918009E+01  1.948320638E+02  1.250000000E+02  0.00000E+00  9.000E+00
      21     1     1     2   501   511 -5.321414692E+01  1.309417623E+02  3.871234618E+01  1.465473858E+02  1.348699152E-06  0.00000E+00  9.000E+00
#rwgt            1           1   3.9695277298842806E-002           2      350805           0
</event>
<event>
      5   9999  3.79277E-02  5.22793E+00 -1.00000E+00  2.35183E-01
      21    -1     0     0   502   512  0.000000000E+00  0.000000000E+00  4.952845398E+02  4.952845398E+02  0.000000000E+00  0.00000E+00  9.000E+00
      21    -1     0     0   501   502  0.000000000E+00  0.000000000E+00 -1.446917503E+02  1.446917503E+02  0.000000000E+00  0.00000E+00  9.000E+00
      25     1     1     2     0     0  1.158474635E+02 -1.866731951E+02  2.651860069E+02  3.663552031E+02  1.250000000E+02  0.00000E+00  9.000E+00
      25     1     1     2     0     0 -1.206325903E+02  1.845675332E+02  7.928772792E+01  2.655728524E+02  1.250000000E+02  0.00000E+00  9.000E+00
      21     1     1     2   501   512  4.785126787E+00  2.105661946E+00  6.119054659E+00  8.048234622E+00  8.429369702E-08  0.00000E+00  9.000E+00
#rwgt            1           1   3.2686654510422290E-002           2      350853           0
</event>
<event>
      5   9999  3.79277E-02  1.21845E+01 -1.00000E+00  1.86334E-01
      21    -1     0     0   502   501  0.000000000E+00  0.000000000E+00  2.371693076E+02  2.371693076E+02  0.000000000E+00  0.00000E+00  9.000E+00
      21    -1     0     0   501   511  0.000000000E+00  0.000000000E+00 -1.819963077E+02  1.819963077E+02  0.000000000E+00  0.00000E+00  9.000E+00
      25     1     1     2     0     0  3.948671178E+01 -1.955732865E+01  1.746136401E+02  2.192181854E+02  1.250000000E+02  0.00000E+00  9.000E+00
      25     1     1     2     0     0 -5.164967239E+01  2.028133375E+01 -7.950224426E+01  1.581917444E+02  1.250000000E+02  0.00000E+00  9.000E+00
      21     1     1     2   502   511  1.216296061E+01 -7.240050987E-01 -3.993839599E+01  4.175568546E+01  8.259061849E-07  0.00000E+00  9.000E+00
#rwgt            1           1   5.6443133345647982E-002           2      351181           0
</event>
<event>
      5   9999  3.79277E-02  6.58724E+01 -1.00000E+00  1.32572E-01
      21    -1     0     0   502   501  0.000000000E+00  0.000000000E+00  5.403178442E+02  5.403178442E+02  0.000000000E+00  0.00000E+00  9.000E+00
      21    -1     0     0   501   512  0.000000000E+00  0.000000000E+00 -8.241260048E+02  8.241260048E+02  0.000000000E+00  0.00000E+00  9.000E+00
      25     1     1     2     0     0 -3.185573864E+02 -3.394003286E+01  1.378051570E+02  3.704672665E+02  1.250000000E+02  0.00000E+00  9.000E+00
      25     1     1     2     0     0  2.635703120E+02  7.021108197E+01  2.053367858E+02  3.635754406E+02  1.250000000E+02  0.00000E+00  9.000E+00
      21     1     1     2   502   512  5.498707440E+01 -3.627104911E+01 -6.269501035E+02  6.304011418E+02  7.629394531E-06  0.00000E+00  9.000E+00
#rwgt            1           1   3.7762471038975051E-002           2      351366           0
</event>
<event>
      5   9999  3.79277E-02  1.11327E+02 -1.00000E+00  1.21768E-01
       2    -1     0     0   502     0  0.000000000E+00  0.000000000E+00  2.475948534E+03  2.475948534E+03  0.000000000E+00  0.00000E+00  9.000E+00
      21    -1     0     0   501   502  0.000000000E+00  0.000000000E+00 -9.698105399E+01  9.698105399E+01  0.000000000E+00  0.00000E+00  9.000E+00
      25     1     1     2     0     0  2.724800269E+02 -9.018902323E+01  5.582888113E+02  6.400709506E+02  1.250000000E+02  0.00000E+00  9.000E+00
      25     1     1     2     0     0 -2.672286741E+02 -2.101428586E+01  3.511207024E+02  4.590898737E+02  1.250000000E+02  0.00000E+00  9.000E+00
       2     1     1     2   501     0 -5.251352805E+00  1.112033091E+02  1.469557967E+03  1.473768764E+03  0.000000000E+00  0.00000E+00  9.000E+00
#rwgt            1           1   3.6897925871173139E-002           2      351552           0
</event>
<event>
      5   9999  3.79277E-02  9.82649E+01 -1.00000E+00  1.24171E-01
      21    -1     0     0   511   501  0.000000000E+00  0.000000000E+00  3.893822618E+02  3.893822618E+02  0.000000000E+00  0.00000E+00  9.000E+00
      21    -1     0     0   501   502  0.000000000E+00  0.000000000E+00 -2.462967062E+02  2.462967062E+02  0.000000000E+00  0.00000E+00  9.000E+00
      25     1     1     2     0     0 -7.496018476E+01 -3.200639117E+01  7.156308147E+01  1.654983776E+02  1.250000000E+02  0.00000E+00  9.000E+00
      25     1     1     2     0     0  1.643487192E+02  7.281911053E+01 -1.238060032E+02  2.515274354E+02  1.250000000E+02  0.00000E+00  9.000E+00
      21     1     1     2   511   502 -8.938853440E+01 -4.081271935E+01  1.953284773E+02  2.186531550E+02  2.697398305E-06  0.00000E+00  9.000E+00
#rwgt            1           1   3.5978725905771190E-002           2      351673           0
</event>
<event>
      5   9999  3.79277E-02  7.55349E+01 -1.00000E+00  1.29568E-01
      21    -1     0     0   512   501  0.000000000E+00  0.000000000E+00  9.936797011E+02  9.936797011E+02  0.000000000E+00  0.00000E+00  9.000E+00
      21    -1     0     0   501   502  0.000000000E+00  0.000000000E+00 -6.806160288E+02  6.806160288E+02  0.000000000E+00  0.00000E+00  9.000E+00
      25     1     1     2     0     0 -8.537626237E+01 -2.131210438E+02 -2.823742764E+02  3.847985414E+02  1.250000000E+02  0.00000E+00  9.000E+00
      25     1     1     2     0     0  8.707948513E+01  1.376053426E+02 -3.149682549E+02  3.759628554E+02  1.250000000E+02  0.00000E+00  9.000E+00
      21     1     1     2   512   502 -1.703222760E+00  7.551570118E+01  9.104062036E+02  9.135343330E+02  0.000000000E+00  0.00000E+00  9.000E+00
#rwgt            1           1   4.0187756672925512E-002           2      351733           0
</event>
<event>
      5   9999  3.79277E-02  3.26738E+01 -1.00000E+00  1.50508E-01
      21    -1     0     0   502   501  0.000000000E+00  0.000000000E+00  3.369930343E+02  3.369930343E+02  0.000000000E+00  0.00000E+00  9.000E+00
      21    -1     0     0   511   502  0.000000000E+00  0.000000000E+00 -5.301247060E+02  5.301247060E+02  0.000000000E+00  0.00000E+00  9.000E+00
      25     1     1     2     0     0 -8.185241657E+01 -1.291186772E+02  2.790775161E+02  3.418782106E+02  1.250000000E+02  0.00000E+00  9.000E+00
      25     1     1     2     0     0  5.244623035E+01  1.433612463E+02 -4.070898261E+02  4.523827810E+02  1.250000000E+02  0.00000E+00  9.000E+00
      21     1     1     2   511   501  2.940618621E+01 -1.424256907E+01 -6.511936171E+01  7.285674870E+01  0.000000000E+00  0.00000E+00  9.000E+00
#rwgt            1           1   5.4191650041010245E-002           2      351817           0
</event>
<event>
      5   9999  3.79277E-02  1.66270E+01 -1.00000E+00  1.73271E-01
      21    -1     0     0   502   501  0.000000000E+00  0.000000000E+00  1.390015387E+02  1.390015387E+02  0.000000000E+00  0.00000E+00  9.000E+00
      21    -1     0     0   512   502  0.000000000E+00  0.000000000E+00 -3.532131541E+02  3.532131541E+02  0.000000000E+00  0.00000E+00  9.000E+00
      25     1     1     2     0     0  1.507112399E+02  5.441840368E+01 -1.250046280E+02  2.385925345E+02  1.250000000E+02  0.00000E+00  9.000E+00
      25     1     1     2     0     0 -1.353100531E+02 -4.815251514E+01 -3.077667283E+01  1.928721825E+02  1.250000000E+02  0.00000E+00  9.000E+00
      21     1     1     2   512   501 -1.540118675E+01 -6.265888544E+00 -5.843031456E+01  6.074997590E+01  6.743495762E-07  0.00000E+00  9.000E+00
#rwgt            1           1   3.4798034436827253E-002           2      352071           0
</event>
<event>
      5   9999  3.79277E-02  1.95873E+01 -1.00000E+00  1.67120E-01
      21    -1     0     0   511   501  0.000000000E+00  0.000000000E+00  1.675203222E+02  1.675203222E+02  0.000000000E+00  0.00000E+00  9.000E+00
      21    -1     0     0   501   502  0.000000000E+00  0.000000000E+00 -1.083602788E+03  1.083602788E+03  0.000000000E+00  0.00000E+00  9.000E+00
      25     1     1     2     0     0 -1.037656091E+02 -2.800609752E+02 -6.885230211E+01  3.310092007E+02  1.250000000E+02  0.00000E+00  9.000E+00
      25     1     1     2     0     0  8.588615704E+01  2.880601600E+02 -8.368611368E+02  8.979513628E+02  1.250000000E+02  0.00000E+00  9.000E+00
      21     1     1     2   511   502  1.787945204E+01 -7.999184818E+00 -1.036902740E+01  2.216254706E+01  2.665600750E-07  0.00000E+00  9.000E+00
#rwgt            1           1  0.17765703370468058                2      352250           0
</event>
<event>
      5   9999  3.79277E-02  6.74829E+01 -1.00000E+00  1.32031E-01
      21    -1     0     0   502   501  0.000000000E+00  0.000000000E+00  3.872301972E+02  3.872301972E+02  0.000000000E+00  0.00000E+00  9.000E+00
       2    -1     0     0   501     0  0.000000000E+00  0.000000000E+00 -5.798710593E+02  5.798710593E+02  0.000000000E+00  0.00000E+00  9.000E+00
      25     1     1     2     0     0  1.014633106E+02  1.285787232E+02 -5.730746875E+01  2.138607898E+02  1.250000000E+02  0.00000E+00  9.000E+00
      25     1     1     2     0     0 -5.939833645E+01 -7.581049988E+01  2.859425351E+02  3.265938267E+02  1.250000000E+02  0.00000E+00  9.000E+00
       2     1     1     2   502     0 -4.206497414E+01 -5.276822333E+01 -4.212759284E+02  4.266466399E+02  7.629394531E-06  0.00000E+00  9.000E+00
#rwgt            1           1   4.3833202385279504E-002           2      352516           0
</event>
<event>
      5   9999  3.79277E-02  1.99715E+02 -1.00000E+00  1.11671E-01
      21    -1     0     0   502   501  0.000000000E+00  0.000000000E+00  1.625653900E+03  1.625653900E+03  0.000000000E+00  0.00000E+00  9.000E+00
      21    -1     0     0   511   502  0.000000000E+00  0.000000000E+00 -1.339332893E+02  1.339332893E+02  0.000000000E+00  0.00000E+00  9.000E+00
      25     1     1     2     0     0 -2.233722615E+02  1.776446659E+02  5.265137307E+02  6.117961287E+02  1.250000000E+02  0.00000E+00  9.000E+00
      25     1     1     2     0     0  2.287318075E+02  2.199792128E+01  9.007008908E+02  9.379175033E+02  1.250000000E+02  0.00000E+00  9.000E+00
      21     1     1     2   511   501 -5.359545943E+00 -1.996425871E+02  6.450598884E+01  2.098735570E+02  4.046097457E-06  0.00000E+00  9.000E+00
#rwgt            1           1   2.9846307020705325E-002           2      352731           0
</event>
<event>
      5   9999  3.79277E-02  5.58320E+01 -1.00000E+00  1.36396E-01
      21    -1     0     0   502   512  0.000000000E+00  0.000000000E+00  1.415453308E+02  1.415453308E+02  0.000000000E+00  0.00000E+00  9.000E+00
      21    -1     0     0   501   502  0.000000000E+00  0.000000000E+00 -4.626437346E+02  4.626437346E+02  0.000000000E+00  0.00000E+00  9.000E+00
      25     1     1     2     0     0  4.501805501E-01 -1.441218475E+02 -1.432597156E+01  1.913152975E+02  1.250000000E+02  0.00000E+00  9.000E+00
      25     1     1     2     0     0 -5.206428647E+01  1.654102083E+02 -2.760682028E+02  3.491559530E+02  1.250000000E+02  0.00000E+00  9.000E+00
      21     1     1     2   501   512  5.161410592E+01 -2.128836077E+01 -3.070422942E+01  6.371781492E+01  4.768371582E-07  0.00000E+00  9.000E+00
#rwgt            1           1   3.7654067590145612E-002           2      352776           0
</event>
<event>
      5   9999  3.79277E-02  3.82329E+01 -1.00000E+00  1.46068E-01
      21    -1     0     0   502   501  0.000000000E+00  0.000000000E+00  1.485836038E+02  1.485836038E+02  0.000000000E+00  0.00000E+00  9.000E+00
       2    -1     0     0   501     0  0.000000000E+00  0.000000000E+00 -1.244309687E+03  1.244309687E+03  0.000000000E+00  0.00000E+00  9.000E+00
      25     1     1     2     0     0  1.229828995E+02  8.121270341E+01  4.251375835E+01  1.978704536E+02  1.250000000E+02  0.00000E+00  9.000E+00
      25     1     1     2     0     0 -1.514158107E+02 -5.565252618E+01 -3.448509789E+02  4.007133003E+02  1.250000000E+02  0.00000E+00  9.000E+00
       2     1     1     2   502     0  2.843291115E+01 -2.556017723E+01 -7.933888622E+02  7.943095365E+02  0.000000000E+00  0.00000E+00  9.000E+00
#rwgt            1           1   3.4191928444189251E-002           2      352844           0
</event>
<event>
      5   9999  3.79277E-02  2.02461E+01 -1.00000E+00  1.65932E-01
       2    -1     0     0   502     0  0.000000000E+00  0.000000000E+00  7.453645520E+02  7.453645520E+02  0.000000000E+00  0.00000E+00  9.000E+00
      21    -1     0     0   501   502  0.000000000E+00  0.000000000E+00 -1.199474707E+02  1.199474707E+02  0.000000000E+00  0.00000E+00  9.000E+00
      25     1     1     2     0     0 -1.023205011E+02  2.144508756E+02  3.625682394E+02  4.511534010E+02  1.250000000E+02  0.00000E+00  9.000E+00
      25     1     1     2     0     0  9.869421965E+01 -1.945321884E+02  1.362649099E+02  2.859658144E+02  1.250000000E+02  0.00000E+00  9.000E+00
       2     1     1     2   501     0  3.626281479E+00 -1.991868716E+01  1.265839321E+02  1.281928074E+02  1.907348633E-06  0.00000E+00  9.000E+00
#rwgt            1           1   1.7982763641772277E-002           2      352956           0
</event>
<event>
      5   9999  3.79277E-02  8.22699E+01 -1.00000E+00  1.27764E-01
      21    -1     0     0   502   511  0.000000000E+00  0.000000000E+00  6.804702362E+02  6.804702362E+02  0.000000000E+00  0.00000E+00  9.000E+00
      21    -1     0     0   501   502  0.000000000E+00  0.000000000E+00 -9.391249462E+01  9.391249462E+01  0.000000000E+00  0.00000E+00  9.000E+00
      25     1     1     2     0     0  1.453626682E+02  7.586550421E+01  1.734874303E+02  2.694601427E+02  1.250000000E+02  0.00000E+00  9.000E+00
      25     1     1     2     0     0 -6.349248620E+01 -6.776554381E+01  1.094046506E+02  1.903098587E+02  1.250000000E+02  0.00000E+00  9.000E+00
      21     1     1     2   501   511 -8.187018197E+01 -8.099960407E+00  3.036656607E+02  3.146127295E+02  3.814697266E-06  0.00000E+00  9.000E+00
#rwgt            1           1   3.6730872759988792E-002           2      353172           0
</event>
<event>
      5   9999  3.79277E-02  8.14675E+00 -1.00000E+00  2.06644E-01
      21    -1     0     0   502   501  0.000000000E+00  0.000000000E+00  5.051210465E+02  5.051210465E+02  0.000000000E+00  0.00000E+00  9.000E+00
      21    -1     0     0   501   512  0.000000000E+00  0.000000000E+00 -8.528500368E+01  8.528500368E+01  0.000000000E+00  0.00000E+00  9.000E+00
      25     1     1     2     0     0  6.938955741E+00  1.413006302E+02  1.873611315E+02  2.659759591E+02  1.250000000E+02  0.00000E+00  9.000E+00
      25     1     1     2     0     0 -1.014407809E+01 -1.487904101E+02  2.428776097E+02  3.112170011E+02  1.250000000E+02  0.00000E+00  9.000E+00
      21     1     1     2   502   512  3.205122351E+00  7.489779900E+00 -1.040269841E+01  1.321308997E+01  1.685873940E-07  0.00000E+00  9.000E+00
#rwgt            1           1   3.9269472361572182E-002           2      353273           0
</event>
<event>
      5   9999  3.79277E-02  3.97975E+01 -1.00000E+00  1.44977E-01
      -3    -1     0     0     0   501  0.000000000E+00  0.000000000E+00  4.231104482E+02  4.231104482E+02  0.000000000E+00  0.00000E+00  9.000E+00
      21    -1     0     0   501   502  0.000000000E+00  0.000000000E+00 -9.493358182E+02  9.493358182E+02  0.000000000E+00  0.00000E+00  9.000E+00
      25     1     1     2     0     0  4.808725471E+01 -2.313303674E+01 -8.622389576E+02  8.728851823E+02  1.250000000E+02  0.00000E+00  9.000E+00
      25     1     1     2     0     0 -4.041040697E+01  6.218311005E+01 -1.516693077E+01  1.461327340E+02  1.250000000E+02  0.00000E+00  9.000E+00
      -3     1     1     2     0   502 -7.676847741E+00 -3.905007331E+01  3.511805183E+02  3.534283501E+02  8.529922400E-06  0.00000E+00  9.000E+00
#rwgt            1           1   4.4556878883645810E-002           2      353572           0
</event>
<event>
      5   9999  3.79277E-02  4.02897E+01 -1.00000E+00  1.44646E-01
      21    -1     0     0   502   501  0.000000000E+00  0.000000000E+00  2.603883715E+02  2.603883715E+02  0.000000000E+00  0.00000E+00  9.000E+00
      21    -1     0     0   511   502  0.000000000E+00  0.000000000E+00 -1.609699079E+02  1.609699079E+02  0.000000000E+00  0.00000E+00  9.000E+00
      25     1     1     2     0     0  2.144597583E+01  1.123778336E+02 -1.146142547E+01  1.698383691E+02  1.250000000E+02  0.00000E+00  9.000E+00
      25     1     1     2     0     0 -9.438207967E+00 -7.391912730E+01  1.399001976E+02  2.018667443E+02  1.250000000E+02  0.00000E+00  9.000E+00
      21     1     1     2   511   501 -1.200776786E+01 -3.845870628E+01 -2.902030862E+01  4.965316596E+01  7.539457465E-07  0.00000E+00  9.000E+00
#rwgt            1           1   4.3511322403140741E-002           2      353683           0
</event>
<event>
      5   9999  3.79277E-02  1.13285E+01 -1.00000E+00  1.89697E-01
      21    -1     0     0   502   512  0.000000000E+00  0.000000000E+00  2.047647890E+02  2.047647890E+02  0.000000000E+00  0.00000E+00  9.000E+00
      21    -1     0     0   501   502  0.000000000E+00  0.000000000E+00 -4.154960923E+02  4.154960923E+02  0.000000000E+00  0.00000E+00  9.000E+00
      25     1     1     2     0     0  2.396542288E+01  6.961416159E+01 -3.662897940E+02  3.939716819E+02  1.250000000E+02  0.00000E+00  9.000E+00
      25     1     1     2     0     0 -2.493557847E+01 -5.832732350E+01  1.067798484E+02  1.762123598E+02  1.250000000E+02  0.00000E+00  9.000E+00
      21     1     1     2   501   512  9.701555936E-01 -1.128683809E+01  4.877864229E+01  5.007683955E+01  9.536743164E-07  0.00000E+00  9.000E+00
#rwgt            1           1   4.7867395028844989E-002           2      353828           0
</event>
<event>
      5   9999  3.79277E-02  1.83305E+01 -1.00000E+00  1.69554E-01
      21    -1     0     0   511   501  0.000000000E+00  0.000000000E+00  1.136157604E+03  1.136157604E+03  0.000000000E+00  0.00000E+00  9.000E+00
      21    -1     0     0   501   502  0.000000000E+00  0.000000000E+00 -1.112008732E+02  1.112008732E+02  0.000000000E+00  0.00000E+00  9.000E+00
      25     1     1     2     0     0  1.887076071E+02 -2.335860291E+02  5.738054910E+02  6.595837592E+02  1.250000000E+02  0.00000E+00  9.000E+00
      25     1     1     2     0     0 -1.832437095E+02  2.160887846E+02  2.857715059E+02  4.213822178E+02  1.250000000E+02  0.00000E+00  9.000E+00
      21     1     1     2   511   502 -5.463897524E+00  1.749724448E+01  1.653797344E+02  1.663925007E+02  1.907348633E-06  0.00000E+00  9.000E+00
#rwgt            1           1   2.5019936837682888E-002           2      354072           0
</event>
<event>
      5   9999  3.79277E-02  2.38083E+02 -1.00000E+00  1.08960E-01
      21    -1     0     0   502   501  0.000000000E+00  0.000000000E+00  4.082943464E+02  4.082943464E+02  0.000000000E+00  0.00000E+00  9.000E+00
      21    -1     0     0   512   502  0.000000000E+00  0.000000000E+00 -6.912134502E+02  6.912134502E+02  0.000000000E+00  0.00000E+00  9.000E+00
      25     1     1     2     0     0 -4.607291627E+01  2.846861165E+01  2.658466609E+02  2.987182997E+02  1.250000000E+02  0.00000E+00  9.000E+00
      25     1     1     2     0     0 -1.605736454E+02  8.977211595E+01 -2.296303390E+01  2.235961300E+02  1.250000000E+02  0.00000E+00  9.000E+00
      21     1     1     2   512   501  2.066465617E+02 -1.182407276E+02 -5.258027308E+02  5.771933670E+02  7.629394531E-06  0.00000E+00  9.000E+00
#rwgt            1           1   5.0190646467109558E-002           2      354487           0
</event>
<event>
      5   9999  3.79277E-02  6.09457E+01 -1.00000E+00  1.34341E-01
      21    -1     0     0   502   501  0.000000000E+00  0.000000000E+00  2.559100880E+02  2.559100880E+02  0.000000000E+00  0.00000E+00  9.000E+00
      21    -1     0     0   511   502  0.000000000E+00  0.000000000E+00 -4.644244303E+02  4.644244303E+02  0.000000000E+00  0.00000E+00  9.000E+00
      25     1     1     2     0     0 -2.977651200E+01 -2.529472476E+02 -6.085204441E+01  2.901670588E+02  1.250000000E+02  0.00000E+00  9.000E+00
      25     1     1     2     0     0  4.344232452E+01  1.935534911E+02  3.549233986E+01  2.371389796E+02  1.250000000E+02  0.00000E+00  9.000E+00
      21     1     1     2   511   501 -1.366581252E+01  5.939375649E+01 -1.831546377E+02  1.930284799E+02  2.697398305E-06  0.00000E+00  9.000E+00
#rwgt            1           1   3.9384742264833045E-002           2      354562           0
</event>
<event>
      5   9999  3.79277E-02  1.96074E+02 -1.00000E+00  1.11962E-01
      21    -1     0     0   502   501  0.000000000E+00  0.000000000E+00  1.185619171E+03  1.185619171E+03  0.000000000E+00  0.00000E+00  9.000E+00
      21    -1     0     0   501   512  0.000000000E+00  0.000000000E+00 -1.863533772E+02  1.863533772E+02  0.000000000E+00  0.00000E+00  9.000E+00
      25     1     1     2     0     0 -1.380825048E+02  2.193135323E+02  3.978688916E+02  4.910090207E+02  1.250000000E+02  0.00000E+00  9.000E+00
      25     1     1     2     0     0  3.263390336E+02 -2.741274952E+02  4.584500568E+02  6.383137967E+02  1.250000000E+02  0.00000E+00  9.000E+00
      21     1     1     2   502   512 -1.882565288E+02  5.481396287E+01  1.429468449E+02  2.426497303E+02  1.907348633E-06  0.00000E+00  9.000E+00
#rwgt            2          11   2.5545210123237173E-003           2      355065           0
</event>
<event>
      5   9999  3.79277E-02  7.35756E+01 -1.00000E+00  1.30134E-01
       2    -1     0     0   502     0  0.000000000E+00  0.000000000E+00  1.242740424E+03  1.242740424E+03  0.000000000E+00  0.00000E+00  9.000E+00
      21    -1     0     0   501   502  0.000000000E+00  0.000000000E+00 -4.419274681E+02  4.419274681E+02  0.000000000E+00  0.00000E+00  9.000E+00
      25     1     1     2     0     0 -1.359907646E+02 -1.708860527E+01 -2.523027013E+02  3.131567684E+02  1.250000000E+02  0.00000E+00  9.000E+00
      25     1     1     2     0     0  9.974139489E+01  8.111478556E+01 -1.071680540E+02  2.088969748E+02  1.250000000E+02  0.00000E+00  9.000E+00
       2     1     1     2   501     0  3.624936975E+01 -6.402618029E+01  1.160283711E+03  1.162614149E+03  2.157918644E-05  0.00000E+00  9.000E+00
#rwgt            1           1   3.6989058282155811E-002           2      355085           0
</event>
<event>
      5   9999  3.79277E-02  2.70003E+01 -1.00000E+00  1.56287E-01
      21    -1     0     0   511   501  0.000000000E+00  0.000000000E+00  2.663619720E+02  2.663619720E+02  0.000000000E+00  0.00000E+00  9.000E+00
      21    -1     0     0   501   502  0.000000000E+00  0.000000000E+00 -2.570118902E+02  2.570118902E+02  0.000000000E+00  0.00000E+00  9.000E+00
      25     1     1     2     0     0 -9.221158462E+01 -5.369154140E+01  9.721624422E+01  1.909496166E+02  1.250000000E+02  0.00000E+00  9.000E+00
      25     1     1     2     0     0  8.034005569E+01  7.794201710E+01 -1.742590004E+02  2.419104830E+02  1.250000000E+02  0.00000E+00  9.000E+00
      21     1     1     2   511   502  1.187152893E+01 -2.425047570E+01  8.639283796E+01  9.051376261E+01  0.000000000E+00  0.00000E+00  9.000E+00
#rwgt            1           1   5.4740723904619377E-002           2      355353           0
</event>
<event>
      5   9999  3.79277E-02  8.50313E+01 -1.00000E+00  1.27080E-01
      21    -1     0     0   502   501  0.000000000E+00  0.000000000E+00  6.705096512E+01  6.705096512E+01  0.000000000E+00  0.00000E+00  9.000E+00
       2    -1     0     0   501     0  0.000000000E+00  0.000000000E+00 -2.916544934E+03  2.916544934E+03  0.000000000E+00  0.00000E+00  9.000E+00
      25     1     1     2     0     0  1.157944948E+02  2.886494054E+01 -1.698747260E+03  1.707515389E+03  1.250000000E+02  0.00000E+00  9.000E+00
      25     1     1     2     0     0 -1.147277573E+02  5.615971029E+01 -6.991645005E+01  1.919106077E+02  1.250000000E+02  0.00000E+00  9.000E+00
       2     1     1     2   502     0 -1.066737429E+00 -8.502465084E+01 -1.080830259E+03  1.084169903E+03  1.525878906E-05  0.00000E+00  9.000E+00
#rwgt            1           1   4.4159618540848863E-002           2      355567           0
</event>
<event>
      5   9999  3.79277E-02  2.47374E+02 -1.00000E+00  1.08387E-01
      21    -1     0     0   502   501  0.000000000E+00  0.000000000E+00  4.782508534E+02  4.782508534E+02  0.000000000E+00  0.00000E+00  9.000E+00
      21    -1     0     0   501   511  0.000000000E+00  0.000000000E+00 -6.745264232E+02  6.745264232E+02  0.000000000E+00  0.00000E+00  9.000E+00
      25     1     1     2     0     0 -2.673749659E+02  4.262242547E+02 -6.635165959E+01  5.226700971E+02  1.250000000E+02  0.00000E+00  9.000E+00
      25     1     1     2     0     0  2.817251624E+02 -1.792666845E+02 -1.376809351E+01  3.568195226E+02  1.250000000E+02  0.00000E+00  9.000E+00
      21     1     1     2   502   511 -1.435019652E+01 -2.469575703E+02 -1.161558167E+02  2.732876569E+02  1.907348633E-06  0.00000E+00  9.000E+00
#rwgt            1           1   4.0838010331227415E-002           2      355776           0
</event>
<event>
      5   9999  3.79277E-02  2.34544E+01 -1.00000E+00  1.60855E-01
      21    -1     0     0   502   501  0.000000000E+00  0.000000000E+00  3.171487657E+02  3.171487657E+02  0.000000000E+00  0.00000E+00  9.000E+00
      21    -1     0     0   501   512  0.000000000E+00  0.000000000E+00 -7.094017286E+02  7.094017286E+02  0.000000000E+00  0.00000E+00  9.000E+00
      25     1     1     2     0     0 -4.128727239E+01  1.989410690E+02  2.433551502E+02  3.407769313E+02  1.250000000E+02  0.00000E+00  9.000E+00
      25     1     1     2     0     0  4.540565420E+01 -1.758510520E+02 -6.188381239E+02  6.569405525E+02  1.250000000E+02  0.00000E+00  9.000E+00
      21     1     1     2   502   512 -4.118381811E+00 -2.309001695E+01 -1.676998926E+01  2.883301044E+01  3.371747881E-07  0.00000E+00  9.000E+00
#rwgt            1           1  0.16143271563882253                2      355841           0
</event>
<event>
      5   9999  3.79277E-02  6.25720E+01 -1.00000E+00  1.33736E-01
      -1    -1     0     0     0   501  0.000000000E+00  0.000000000E+00  1.157273465E+03  1.157273465E+03  0.000000000E+00  0.00000E+00  9.000E+00
      21    -1     0     0   501   502  0.000000000E+00  0.000000000E+00 -8.762458703E+01  8.762458703E+01  0.000000000E+00  0.00000E+00  9.000E+00
      25     1     1     2     0     0  2.015128519E+02  1.663007283E+02  4.308326143E+02  5.191388093E+02  1.250000000E+02  0.00000E+00  9.000E+00
      25     1     1     2     0     0 -2.220724978E+02 -1.072028985E+02  4.644608691E+02  5.405160078E+02  1.250000000E+02  0.00000E+00  9.000E+00
      -1     1     1     2     0   502  2.055964588E+01 -5.909782978E+01  1.743553949E+02  1.852432354E+02  1.907348633E-06  0.00000E+00  9.000E+00
#rwgt            1           1   3.3050429035011236E-002           2      356071           0
</event>
<event>
      5   9999  3.79277E-02  3.72043E+01 -1.00000E+00  1.46819E-01
      21    -1     0     0   502   501  0.000000000E+00  0.000000000E+00  9.551966864E+02  9.551966864E+02  0.000000000E+00  0.00000E+00  9.000E+00
      21    -1     0     0   511   502  0.000000000E+00  0.000000000E+00 -1.581688438E+02  1.581688438E+02  0.000000000E+00  0.00000E+00  9.000E+00
      25     1     1     2     0     0 -2.095730987E+02 -2.082171448E+02  1.479903566E+02  3.532724285E+02  1.250000000E+02  0.00000E+00  9.000E+00
      25     1     1     2     0     0  2.300849258E+02  2.392562110E+02  6.134418975E+02  7.086032523E+02  1.250000000E+02  0.00000E+00  9.000E+00
      21     1     1     2   511   501 -2.051182707E+01 -3.103906614E+01  3.559558840E+01  5.148984940E+01  4.768371582E-07  0.00000E+00  9.000E+00
#rwgt            1           1   1.2332791039691376E-002           2      356176           0
</event>
<event>
      5   9999  3.79277E-02  6.43120E+01 -1.00000E+00  1.33112E-01
      21    -1     0     0   502   512  0.000000000E+00  0.000000000E+00  2.704247498E+03  2.704247498E+03  0.000000000E+00  0.00000E+00  9.000E+00
      21    -1     0     0   501   502  0.000000000E+00  0.000000000E+00 -1.086159637E+02  1.086159637E+02  0.000000000E+00  0.00000E+00  9.000E+00
      25     1     1     2     0     0  2.317507346E+02 -4.258904028E+02  1.169072030E+03  1.271788288E+03  1.250000000E+02  0.00000E+00  9.000E+00
      25     1     1     2     0     0 -2.620044700E+02  3.691387856E+02  9.451378814E+02  1.055376900E+03  1.250000000E+02  0.00000E+00  9.000E+00
      21     1     1     2   501   512  3.025373538E+01  5.675161727E+01  4.814216230E+02  4.856982743E+02  1.078959322E-05  0.00000E+00  9.000E+00
#rwgt            1           1  0.12904762139523976                2      356294           0
</event>
<event>
      5   9999  3.79277E-02  9.23280E+01 -1.00000E+00  1.25407E-01
       2    -1     0     0   502     0  0.000000000E+00  0.000000000E+00  1.397603344E+03  1.397603344E+03  0.000000000E+00  0.00000E+00  9.000E+00
      21    -1     0     0   501   502  0.000000000E+00  0.000000000E+00 -1.897253242E+02  1.897253242E+02  0.000000000E+00  0.00000E+00  9.000E+00
      25     1     1     2     0     0 -5.376927093E+00 -2.152330081E+02  2.864823498E+02  3.795409014E+02  1.250000000E+02  0.00000E+00  9.000E+00
      25     1     1     2     0     0 -5.499837915E+01  1.453810870E+02 -7.053671829E+01  2.115677452E+02  1.250000000E+02  0.00000E+00  9.000E+00
       2     1     1     2   501     0  6.037530625E+01  6.985192107E+01  9.919323878E+02  9.962200212E+02  1.868812365E-05  0.00000E+00  9.000E+00
#rwgt            1           1   1.9918268183758463E-002           2      356400           0
</event>
<event>
      5   9999 -3.79277E-02  6.86390E+01 -1.00000E+00  1.31654E-01
      21    -1     0     0   502   501  0.000000000E+00  0.000000000E+00  2.083643279E+03  2.083643279E+03  0.000000000E+00  0.00000E+00  9.000E+00
      21    -1     0     0   511   502  0.000000000E+00  0.000000000E+00 -7.170656779E+01  7.170656779E+01  0.000000000E+00  0.00000E+00  9.000E+00
      25     1     1     2     0     0  2.229456386E+02 -5.863730557E+01  1.213204235E+03  1.241222223E+03  1.250000000E+02  0.00000E+00  9.000E+00
      25     1     1     2     0     0 -2.188790097E+02  1.271557536E+02  7.969377013E+02  8.454651420E+02  1.250000000E+02  0.00000E+00  9.000E+00
      21     1     1     2   511   501 -4.066628904E+00 -6.851844799E+01  1.794774980E+00  6.866248177E+01  1.205797692E-06  0.00000E+00  9.000E+00
#rwgt            1           1 -0.35588914482803513                2      356564           0
</event>
<event>
      5   9999 -3.79277E-02  4.90222E+01 -1.00000E+00  1.39567E-01
       1    -1     0     0   502     0  0.000000000E+00  0.000000000E+00  1.399871564E+03  1.399871564E+03  0.000000000E+00  0.00000E+00  9.000E+00
      21    -1     0     0   501   502  0.000000000E+00  0.000000000E+00 -1.023511326E+02  1.023511326E+02  0.000000000E+00  0.00000E+00  9.000E+00
      25     1     1     2     0     0  1.156634745E+02 -7.609300863E+01  1.870444948E+02  2.641568253E+02  1.250000000E+02  0.00000E+00  9.000E+00
      25     1     1     2     0     0 -8.441122371E+01  1.138616781E+02  7.803336445E+01  2.044601242E+02  1.250000000E+02  0.00000E+00  9.000E+00
       1     1     1     2   501     0 -3.125225084E+01 -3.776866951E+01  1.032442573E+03  1.033605748E+03  0.000000000E+00  0.00000E+00  9.000E+00
#rwgt            1           1  -4.5770829309676256E-002           2      356686           0
</event>
<event>
      5   9999  3.79277E-02  5.34976E+01 -1.00000E+00  1.37421E-01
       3    -1     0     0   502     0  0.000000000E+00  0.000000000E+00  3.911754597E+02  3.911754597E+02  0.000000000E+00  0.00000E+00  9.000E+00
      21    -1     0     0   501   502  0.000000000E+00  0.000000000E+00 -1.331910324E+03  1.331910324E+03  0.000000000E+00  0.00000E+00  9.000E+00
      25     1     1     2     0     0 -2.048010201E+02 -2.510275885E+02 -9.848775616E+02  1.044302217E+03  1.250000000E+02  0.00000E+00  9.000E+00
      25     1     1     2     0     0  2.047781250E+02  1.975299654E+02 -2.381125390E+02  3.915031915E+02  1.250000000E+02  0.00000E+00  9.000E+00
       3     1     1     2   501     0  2.289511251E-02  5.349762309E+01  2.822552360E+02  2.872803760E+02  6.607249480E-06  0.00000E+00  9.000E+00
#rwgt            1           1   4.0933411608552829E-002           2      356896           0
</event>
<event>
      5   9999  3.79277E-02  8.68802E+00 -1.00000E+00  2.03093E-01
      21    -1     0     0   502   501  0.000000000E+00  0.000000000E+00  7.175799250E+02  7.175799250E+02  0.000000000E+00  0.00000E+00  9.000E+00
      21    -1     0     0   511   502  0.000000000E+00  0.000000000E+00 -8.352694578E+01  8.352694578E+01  0.000000000E+00  0.00000E+00  9.000E+00
      25     1     1     2     0     0  1.519855839E+01  1.644554958E+02  5.228359917E+02  5.623691675E+02  1.250000000E+02  0.00000E+00  9.000E+00
      25     1     1     2     0     0 -8.438046600E+00 -1.589986477E+02  1.048768949E+02  2.279823101E+02  1.250000000E+02  0.00000E+00  9.000E+00
      21     1     1     2   511   501 -6.760511786E+00 -5.456848070E+00  6.340092557E+00  1.075539326E+01  1.192092896E-07  0.00000E+00  9.000E+00
#rwgt            1           1   4.4378495692134597E-002           2      357149           0
</event>
<event>
      5   9999  3.79277E-02  1.55527E+01 -1.00000E+00  1.75916E-01
      21    -1     0     0   502   501  0.000000000E+00  0.000000000E+00  1.795337410E+03  1.795337410E+03  0.000000000E+00  0.00000E+00  9.000E+00
      21    -1     0     0   512   502  0.000000000E+00  0.000000000E+00 -4.721190416E+01  4.721190416E+01  0.000000000E+00  0.00000E+00  9.000E+00
      25     1     1     2     0     0 -1.760010465E+02 -1.074096808E+02  4.380417914E+02  5.000188185E+02  1.250000000E+02  0.00000E+00  9.000E+00
      25     1     1     2     0     0  1.915329204E+02  1.082139841E+02  1.299049209E+03  1.323460982E+03  1.250000000E+02  0.00000E+00  9.000E+00
      21     1     1     2   512   501 -1.553187392E+01 -8.043032668E-01  1.103450600E+01  1.906951321E+01  3.953724850E-07  0.00000E+00  9.000E+00
#rwgt            1           1   3.7151550058547152E-002           2      357439           0
</event>
<event>
      5   9999  3.79277E-02  7.70499E+01 -1.00000E+00  1.29144E-01
      21    -1     0     0   502   511  0.000000000E+00  0.000000000E+00  2.204587629E+02  2.204587629E+02  0.000000000E+00  0.00000E+00  9.000E+00
      21    -1     0     0   501   502  0.000000000E+00  0.000000000E+00 -3.771751279E+02  3.771751279E+02  0.000000000E+00  0.00000E+00  9.000E+00
      25     1     1     2     0     0 -1.391534551E+02  8.873698406E+01 -1.543552341E+02  2.582411174E+02  1.250000000E+02  0.00000E+00  9.000E+00
      25     1     1     2     0     0  1.782874725E+02 -2.236516346E+01 -7.708096647E+01  2.320627044E+02  1.250000000E+02  0.00000E+00  9.000E+00
      21     1     1     2   501   511 -3.913401748E+01 -6.637182061E+01  7.471983557E+01  1.073300691E+02  2.336015456E-06  0.00000E+00  9.000E+00
#rwgt            1           1   3.7991685383393599E-002           2      357646           0
</event>
<event>
      5   9999  3.79277E-02  2.19789E+01 -1.00000E+00  1.63058E-01
      21    -1     0     0   512   501  0.000000000E+00  0.000000000E+00  5.856865749E+02  5.856865749E+02  0.000000000E+00  0.00000E+00  9.000E+00
      21    -1     0     0   501   502  0.000000000E+00  0.000000000E+00 -1.480099814E+02  1.480099814E+02  0.000000000E+00  0.00000E+00  9.000E+00
      25     1     1     2     0     0  1.745192400E+02  1.768626935E+02  1.483107637E+02  3.152117703E+02  1.250000000E+02  0.00000E+00  9.000E+00
      25     1     1     2     0     0 -1.691244674E+02 -1.555561409E+02  2.079928371E+02  3.341957790E+02  1.250000000E+02  0.00000E+00  9.000E+00
      21     1     1     2   512   502 -5.394772619E+00 -2.130655263E+01  8.137299268E+01  8.428900696E+01  9.536743164E-07  0.00000E+00  9.000E+00
#rwgt            1           1   2.8601038665106708E-002           2      357843           0
</event>
<event>
      5   9999  3.79277E-02  1.58157E+01 -1.00000E+00  1.75244E-01
      21    -1     0     0   502   511  0.000000000E+00  0.000000000E+00  1.667081116E+02  1.667081116E+02  0.000000000E+00  0.00000E+00  9.000E+00
      21    -1     0     0   501   502  0.000000000E+00  0.000000000E+00 -4.068693713E+02  4.068693713E+02  0.000000000E+00  0.00000E+00  9.000E+00
      25     1     1     2     0     0 -2.189881632E+00 -1.121042229E+02 -2.474972802E+01  1.697342081E+02  1.250000000E+02  0.00000E+00  9.000E+00
      25     1     1     2     0     0  3.350893832E+00  1.278772322E+02 -2.828069053E+02  3.346170359E+02  1.250000000E+02  0.00000E+00  9.000E+00
      21     1     1     2   501   511 -1.161012201E+00 -1.577300930E+01  6.739537364E+01  6.922623895E+01  9.536743164E-07  0.00000E+00  9.000E+00
#rwgt            1           1   3.5706635001341580E-002           2      358141           0
</event>
<event>
      5   9999  3.79277E-02  2.52272E+02 -1.00000E+00  1.08096E-01
      21    -1     0     0   502   501  0.000000000E+00  0.000000000E+00  5.991762396E+02  5.991762396E+02  0.000000000E+00  0.00000E+00  9.000E+00
      21    -1     0     0   501   512  0.000000000E+00  0.000000000E+00 -3.247396709E+02  3.247396709E+02  0.000000000E+00  0.00000E+00  9.000E+00
      25     1     1     2     0     0  2.496616658E+02  1.024571076E+02 -5.193610322E+01  3.019118499E+02  1.250000000E+02  0.00000E+00  9.000E+00
      25     1     1     2     0     0 -7.806624173E+01  8.246510543E+01  3.288959667E+02  3.697193376E+02  1.250000000E+02  0.00000E+00  9.000E+00
      21     1     1     2   502   512 -1.715954241E+02 -1.849222130E+02 -2.523294706E+00  2.522847230E+02  5.161913656E-07  0.00000E+00  9.000E+00
#rwgt            2          11   1.5234794314702347E-003           2      358343           0
</event>
<event>
      5   9999  3.79277E-02  1.20123E+02 -1.00000E+00  1.20349E-01
      21    -1     0     0   502   501  0.000000000E+00  0.000000000E+00  3.713942384E+02  3.713942384E+02  0.000000000E+00  0.00000E+00  9.000E+00
      21    -1     0     0   511   502  0.000000000E+00  0.000000000E+00 -2.592359837E+02  2.592359837E+02  0.000000000E+00  0.00000E+00  9.000E+00
      25     1     1     2     0     0 -1.712727000E+02 -7.701113380E+01  1.657537500E+02  2.799363466E+02  1.250000000E+02  0.00000E+00  9.000E+00
      25     1     1     2     0     0  7.341751750E+01  1.466817666E+02  2.410093648E+01  2.076331565E+02  1.250000000E+02  0.00000E+00  9.000E+00
      21     1     1     2   511   501  9.785518255E+01 -6.967063285E+01 -7.769643173E+01  1.430607191E+02  2.697398305E-06  0.00000E+00  9.000E+00
#rwgt            1           1   4.0579209201643457E-002           2      358498           0
</event>
<event>
      5   9999  3.79277E-02  1.05570E+02 -1.00000E+00  1.22778E-01
      21    -1     0     0   502   501  0.000000000E+00  0.000000000E+00  4.031470082E+02  4.031470082E+02  0.000000000E+00  0.00000E+00  9.000E+00
      21    -1     0     0   501   512  0.000000000E+00  0.000000000E+00 -2.976843559E+02  2.976843559E+02  0.000000000E+00  0.00000E+00  9.000E+00
      25     1     1     2     0     0 -3.699579741E+01 -2.752860629E+00  3.093795618E+02  3.357334963E+02  1.250000000E+02  0.00000E+00  9.000E+00
      25     1     1     2     0     0  1.214632342E+02 -6.057409333E+01 -1.780250557E+02  2.563990220E+02  1.250000000E+02  0.00000E+00  9.000E+00
      21     1     1     2   502   512 -8.446743678E+01  6.332695396E+01 -2.589185386E+01  1.086988458E+02  7.539457465E-07  0.00000E+00  9.000E+00
#rwgt            1           1   4.9544992504042019E-002           2      358604           0
</event>
<event>
      5   9999  3.79277E-02  3.89180E+01 -1.00000E+00  1.45583E-01
      21    -1     0     0   502   511  0.000000000E+00  0.000000000E+00  1.603246188E+02  1.603246188E+02  0.000000000E+00  0.00000E+00  9.000E+00
      21    -1     0     0   501   502  0.000000000E+00  0.000000000E+00 -5.186672996E+02  5.186672996E+02  0.000000000E+00  0.00000E+00  9.000E+00
      25     1     1     2     0     0 -2.116856009E+02  4.243489822E+01 -2.882412857E+02  3.812080180E+02  1.250000000E+02  0.00000E+00  9.000E+00
      25     1     1     2     0     0  1.779037014E+02 -2.311140887E+01 -1.076406292E+02  2.437116519E+02  1.250000000E+02  0.00000E+00  9.000E+00
      21     1     1     2   501   511  3.378189943E+01 -1.932348935E+01  3.753923413E+01  5.407224860E+01  6.743495762E-07  0.00000E+00  9.000E+00
#rwgt            1           1   3.8045678830972499E-002           2      358680           0
</event>
<event>
      5   9999  3.79277E-02  2.11580E+01 -1.00000E+00  1.64377E-01
      21    -1     0     0   502   501  0.000000000E+00  0.000000000E+00  3.090090075E+02  3.090090075E+02  0.000000000E+00  0.00000E+00  9.000E+00
      21    -1     0     0   501   512  0.000000000E+00  0.000000000E+00 -2.429360524E+02  2.429360524E+02  0.000000000E+00  0.00000E+00  9.000E+00
      25     1     1     2     0     0 -6.095201336E+01  1.219026451E+02  1.299376572E+02  2.260181355E+02  1.250000000E+02  0.00000E+00  9.000E+00
      25     1     1     2     0     0  4.146618591E+01 -1.301467294E+02  6.431879203E+01  1.960089864E+02  1.250000000E+02  0.00000E+00  9.000E+00
      21     1     1     2   502   512  1.948582745E+01  8.244084288E+00 -1.281834943E+02  1.299179379E+02  1.907348633E-06  0.00000E+00  9.000E+00
#rwgt            1           1   8.0394832458057050E-002           2      358858           0
</event>
<event>
      5   9999  3.79277E-02  3.65343E+01 -1.00000E+00  1.47324E-01
      21    -1     0     0   502   511  0.000000000E+00  0.000000000E+00  5.505585232E+02  5.505585232E+02  0.000000000E+00  0.00000E+00  9.000E+00
      21    -1     0     0   501   502  0.000000000E+00  0.000000000E+00 -1.258338586E+02  1.258338586E+02  0.000000000E+00  0.00000E+00  9.000E+00
      25     1     1     2     0     0  5.698779358E+01 -2.088254679E+02  1.742605704E+02  3.047087643E+02  1.250000000E+02  0.00000E+00  9.000E+00
      25     1     1     2     0     0 -2.301843775E+01  1.953779117E+02  1.885643819E+02  2.998064425E+02  1.250000000E+02  0.00000E+00  9.000E+00
      21     1     1     2   501   511 -3.396935583E+01  1.344755626E+01  6.189971230E+01  7.187717501E+01  0.000000000E+00  0.00000E+00  9.000E+00
#rwgt            1           1   4.3801018323075987E-002           2      358982           0
</event>
<event>
      5   9999  3.79277E-02  6.05396E+01 -1.00000E+00  1.34496E-01
      21    -1     0     0   502   501  0.000000000E+00  0.000000000E+00  1.671780149E+02  1.671780149E+02  0.000000000E+00  0.00000E+00  9.000E+00
      21    -1     0     0   501   512  0.000000000E+00  0.000000000E+00 -1.048741412E+03  1.048741412E+03  0.000000000E+00  0.00000E+00  9.000E+00
      25     1     1     2     0     0 -3.184339988E+01  1.142533271E+02 -1.315312504E+02  2.167793687E+02  1.250000000E+02  0.00000E+00  9.000E+00
      25     1     1     2     0     0  9.230530800E+01 -1.111872598E+02  4.945276872E+01  1.973662914E+02  1.250000000E+02  0.00000E+00  9.000E+00
      21     1     1     2   502   512 -6.046190812E+01 -3.066067213E+00 -7.994849151E+02  8.017737665E+02  0.000000000E+00  0.00000E+00  9.000E+00
#rwgt            1           1   4.1844111241423981E-002           2      359080           0
</event>
<event>
      5   9999  3.79277E-02  6.70131E+01 -1.00000E+00  1.32187E-01
      21    -1     0     0   511   501  0.000000000E+00  0.000000000E+00  1.143129377E+02  1.143129377E+02  0.000000000E+00  0.00000E+00  9.000E+00
      21    -1     0     0   501   502  0.000000000E+00  0.000000000E+00 -1.096580921E+03  1.096580921E+03  0.000000000E+00  0.00000E+00  9.000E+00
      25     1     1     2     0     0 -1.675881443E+02 -1.053128472E+02 -6.203924536E+02  6.630900228E+02  1.250000000E+02  0.00000E+00  9.000E+00
      25     1     1     2     0     0  1.008081778E+02  1.108980011E+02 -4.174047372E+02  4.607736646E+02  1.250000000E+02  0.00000E+00  9.000E+00
      21     1     1     2   511   502  6.677996647E+01 -5.585153847E+00  5.552920736E+01  8.703017141E+01  1.651812370E-06  0.00000E+00  9.000E+00
#rwgt            1           1   5.2689811382912705E-002           2      359218           0
</event>
<event>
      5   9999 -3.79277E-02  1.24472E+02 -1.00000E+00  1.19698E-01
       2    -1     0     0   502     0  0.000000000E+00  0.000000000E+00  9.921020110E+02  9.921020110E+02  0.000000000E+00  0.00000E+00  9.000E+00
      21    -1     0     0   501   502  0.000000000E+00  0.000000000E+00 -8.393041425E+01  8.393041425E+01  0.000000000E+00  0.00000E+00  9.000E+00
      25     1     1     2     0     0  1.243712497E+02  1.103127073E+02  3.893899759E+02  4.414596861E+02  1.250000000E+02  0.00000E+00  9.000E+00
      25     1     1     2     0     0 -1.867885546E+02 -2.621135324E+00  2.375941618E+02  3.270669965E+02  1.250000000E+02  0.00000E+00  9.000E+00
       2     1     1     2   501     0  6.241730488E+01 -1.076915720E+02  2.811874592E+02  3.075057427E+02  6.607249480E-06  0.00000E+00  9.000E+00
#rwgt            1           1 -0.20907986975907955                2      359334           0
</event>
<event>
      5   9999  3.79277E-02  3.89311E+01 -1.00000E+00  1.45574E-01
      21    -1     0     0   502   501  0.000000000E+00  0.000000000E+00  1.030909429E+02  1.030909429E+02  0.000000000E+00  0.00000E+00  9.000E+00
       1    -1     0     0   501     0  0.000000000E+00  0.000000000E+00 -5.677880333E+02  5.677880333E+02  0.000000000E+00  0.00000E+00  9.000E+00
      25     1     1     2     0     0  1.731491161E+02 -2.966991198E+01 -1.683145681E+02  2.735246130E+02  1.250000000E+02  0.00000E+00  9.000E+00
      25     1     1     2     0     0 -1.451742380E+02  2.595326263E+00 -1.429072227E+02  2.390183453E+02  1.250000000E+02  0.00000E+00  9.000E+00
       1     1     1     2   502     0 -2.797487807E+01  2.707458572E+01 -1.534752995E+02  1.583360178E+02  0.000000000E+00  0.00000E+00  9.000E+00
#rwgt            1           1   4.2300935436002621E-002           2      359564           0
</event>
<event>
      5   9999 -3.79277E-02  8.07775E+01 -1.00000E+00  1.28147E-01
       2    -1     0     0   502     0  0.000000000E+00  0.000000000E+00  1.870133667E+03  1.870133667E+03  0.000000000E+00  0.00000E+00  9.000E+00
      21    -1     0     0   501   502  0.000000000E+00  0.000000000E+00 -1.810371657E+02  1.810371657E+02  0.000000000E+00  0.00000E+00  9.000E+00
      25     1     1     2     0     0  1.478272824E+02 -1.399107421E+02  6.634398213E+01  2.479000709E+02  1.250000000E+02  0.00000E+00  9.000E+00
      25     1     1     2     0     0 -1.966544651E+02  7.556087139E+01  7.897305588E+01  2.573794232E+02  1.250000000E+02  0.00000E+00  9.000E+00
       2     1     1     2   501     0  4.882718276E+01  6.434987076E+01  1.543779463E+03  1.545891338E+03  2.157918644E-05  0.00000E+00  9.000E+00
#rwgt            1           1  -6.2544903333429283E-002           2      359752           0
</event>
<event>
      5   9999  3.79277E-02  1.94044E+01 -1.00000E+00  1.67460E-01
      21    -1     0     0   502   501  0.000000000E+00  0.000000000E+00  9.430546842E+01  9.430546842E+01  0.000000000E+00  0.00000E+00  9.000E+00
      21    -1     0     0   501   511  0.000000000E+00  0.000000000E+00 -1.583178120E+03  1.583178120E+03  0.000000000E+00  0.00000E+00  9.000E+00
      25     1     1     2     0     0  1.558214939E+02  7.792599578E+01 -4.754857238E+01  2.196330247E+02  1.250000000E+02  0.00000E+00  9.000E+00
      25     1     1     2     0     0 -1.399290897E+02 -6.679213537E+01 -1.334180471E+03  1.348963999E+03  1.250000000E+02  0.00000E+00  9.000E+00
      21     1     1     2   502   511 -1.589240423E+01 -1.113386040E+01 -1.071436077E+02  1.088865649E+02  1.348699152E-06  0.00000E+00  9.000E+00
#rwgt            1           1   3.4361755988945308E-002           2      359826           0
</event>
<event>
      5   9999  3.79277E-02  4.02268E+01 -1.00000E+00  1.44688E-01
      21    -1     0     0   502   512  0.000000000E+00  0.000000000E+00  5.358468651E+02  5.358468651E+02  0.000000000E+00  0.00000E+00  9.000E+00
      21    -1     0     0   501   502  0.000000000E+00  0.000000000E+00 -1.638157090E+02  1.638157090E+02  0.000000000E+00  0.00000E+00  9.000E+00
      25     1     1     2     0     0  4.260958437E+01  2.447444376E+02  1.549433507E+02  3.183517839E+02  1.250000000E+02  0.00000E+00  9.000E+00
      25     1     1     2     0     0 -7.738231377E+01 -2.245194080E+02  1.633122724E+02  3.141542382E+02  1.250000000E+02  0.00000E+00  9.000E+00
      21     1     1     2   501   512  3.477272940E+01 -2.022502952E+01  5.377553301E+01  6.715655202E+01  6.743495762E-07  0.00000E+00  9.000E+00
#rwgt            1           1   3.5571475802551426E-002           2      360139           0
</event>
<event>
      5   9999  3.79277E-02  6.88299E+01 -1.00000E+00  1.31593E-01
      21    -1     0     0   511   501  0.000000000E+00  0.000000000E+00  2.655870085E+02  2.655870085E+02  0.000000000E+00  0.00000E+00  9.000E+00
      21    -1     0     0   501   502  0.000000000E+00  0.000000000E+00 -5.672395373E+02  5.672395373E+02  0.000000000E+00  0.00000E+00  9.000E+00
      25     1     1     2     0     0 -3.580726753E+01  1.596350735E+02 -4.309950059E+02  4.776475816E+02  1.250000000E+02  0.00000E+00  9.000E+00
      25     1     1     2     0     0 -3.302234516E+01 -1.598288116E+02 -3.455727162E+00  2.056031769E+02  1.250000000E+02  0.00000E+00  9.000E+00
      21     1     1     2   511   502  6.882961268E+01  1.937380946E-01  1.327982042E+02  1.495757874E+02  0.000000000E+00  0.00000E+00  9.000E+00
#rwgt            1           1   3.5699658611511663E-002           2      360515           0
</event>
<event>
      5   9999  3.79277E-02  1.58127E+02 -1.00000E+00  1.15493E-01
      21    -1     0     0   502   501  0.000000000E+00  0.000000000E+00  6.681411860E+02  6.681411860E+02  0.000000000E+00  0.00000E+00  9.000E+00
      21    -1     0     0   501   512  0.000000000E+00  0.000000000E+00 -8.802494174E+01  8.802494174E+01  0.000000000E+00  0.00000E+00  9.000E+00
      25     1     1     2     0     0  1.112082950E+01  1.110116017E+01  1.118283172E+02  1.684561698E+02  1.250000000E+02  0.00000E+00  9.000E+00
      25     1     1     2     0     0  1.456778636E+02  9.353107207E+00  3.042644241E+02  3.598768683E+02  1.250000000E+02  0.00000E+00  9.000E+00
      21     1     1     2   502   512 -1.567986931E+02 -2.045426738E+01  1.640235030E+02  2.278330897E+02  0.000000000E+00  0.00000E+00  9.000E+00
#rwgt            1           1   4.8968691176290657E-002           2      360623           0
</event>
<event>
      5   9999  3.79277E-02  7.42869E+01 -1.00000E+00  1.29927E-01
      21    -1     0     0   502   501  0.000000000E+00  0.000000000E+00  1.022361905E+03  1.022361905E+03  0.000000000E+00  0.00000E+00  9.000E+00
       3    -1     0     0   501     0  0.000000000E+00  0.000000000E+00 -9.113805962E+02  9.113805962E+02  0.000000000E+00  0.00000E+00  9.000E+00
      25     1     1     2     0     0  2.655676787E+01  1.709065883E+00  8.540128239E+02  8.635224874E+02  1.250000000E+02  0.00000E+00  9.000E+00
      25     1     1     2     0     0 -2.551469573E+01  7.257054619E+01  1.287730278E+02  1.952561819E+02  1.250000000E+02  0.00000E+00  9.000E+00
       3     1     1     2   502     0 -1.042072142E+00 -7.427961208E+01 -8.718045428E+02  8.749638321E+02  1.525878906E-05  0.00000E+00  9.000E+00
#rwgt            1           1   1.7781479600308181E-002           2      360697           0
</event>
<event>
      5   9999  3.79277E-02  1.01757E+02 -1.00000E+00  1.23489E-01
      21    -1     0     0   502   501  0.000000000E+00  0.000000000E+00  3.174698847E+02  3.174698847E+02  0.000000000E+00  0.00000E+00  9.000E+00
      21    -1     0     0   511   502  0.000000000E+00  0.000000000E+00 -3.544375926E+02  3.544375926E+02  0.000000000E+00  0.00000E+00  9.000E+00
      25     1     1     2     0     0  2.152697035E+01 -7.592712602E+01  2.271521575E+02  2.710192642E+02  1.250000000E+02  0.00000E+00  9.000E+00
      25     1     1     2     0     0 -1.208891882E+02  9.787491902E+01 -1.829956628E+02  2.707510077E+02  1.250000000E+02  0.00000E+00  9.000E+00
      21     1     1     2   511   501  9.936221784E+01 -2.194779300E+01 -8.112420263E+01  1.301372053E+02  2.336015456E-06  0.00000E+00  9.000E+00
#rwgt            1           1   4.3663126702228716E-002           2      360775           0
</event>
<event>
      5   9999  3.79277E-02  6.59560E+01 -1.00000E+00  1.32543E-01
      21    -1     0     0   502   501  0.000000000E+00  0.000000000E+00  2.765960687E+02  2.765960687E+02  0.000000000E+00  0.00000E+00  9.000E+00
      21    -1     0     0   501   512  0.000000000E+00  0.000000000E+00 -2.393492908E+02  2.393492908E+02  0.000000000E+00  0.00000E+00  9.000E+00
      25     1     1     2     0     0  1.136017854E+02  7.647772918E+01  1.825527307E+02  2.602012840E+02  1.250000000E+02  0.00000E+00  9.000E+00
      25     1     1     2     0     0 -6.336478082E+01 -3.374090274E+01 -9.274612030E+01  1.714070792E+02  1.250000000E+02  0.00000E+00  9.000E+00
      21     1     1     2   502   512 -5.023700457E+01 -4.273682644E+01 -5.255983250E+01  8.433699636E+01  6.743495762E-07  0.00000E+00  9.000E+00
#rwgt            1           1   4.0111667672257038E-002           2      360913           0
</event>
<event>
      5   9999  3.79277E-02  1.01325E+02 -1.00000E+00  1.23571E-01
      -2    -1     0     0     0   501  0.000000000E+00  0.000000000E+00  9.802386612E+02  9.802386612E+02  0.000000000E+00  0.00000E+00  9.000E+00
      21    -1     0     0   501   502  0.000000000E+00  0.000000000E+00 -1.066933883E+02  1.066933883E+02  0.000000000E+00  0.00000E+00  9.000E+00
      25     1     1     2     0     0 -1.278800355E+02  2.016164340E+01  9.256163721E+01  2.023671219E+02  1.250000000E+02  0.00000E+00  9.000E+00
      25     1     1     2     0     0  2.041180331E+02  4.658115314E+01  2.707543013E+02  3.643718800E+02  1.250000000E+02  0.00000E+00  9.000E+00
      -2     1     1     2     0   502 -7.623799758E+01 -6.674279654E+01  5.102293344E+02  5.201930476E+02  7.629394531E-06  0.00000E+00  9.000E+00
#rwgt            2           4   2.7403595544059992E-005           2      361002           0
</event>
<event>
      5   9999  3.79277E-02  1.93226E+01 -1.00000E+00  1.67613E-01
      21    -1     0     0   502   511  0.000000000E+00  0.000000000E+00  4.373109070E+02  4.373109070E+02  0.000000000E+00  0.00000E+00  9.000E+00
      21    -1     0     0   501   502  0.000000000E+00  0.000000000E+00 -4.507742302E+02  4.507742302E+02  0.000000000E+00  0.00000E+00  9.000E+00
      25     1     1     2     0     0 -1.805140457E+02  9.557490338E+01 -2.644180280E+02  3.567376857E+02  1.250000000E+02  0.00000E+00  9.000E+00
      25     1     1     2     0     0  1.967280782E+02 -8.506455597E+01 -2.982391785E+01  2.499047449E+02  1.250000000E+02  0.00000E+00  9.000E+00
      21     1     1     2   501   511 -1.621403245E+01 -1.051034740E+01  2.807786226E+02  2.814427067E+02  3.814697266E-06  0.00000E+00  9.000E+00
#rwgt            1           1   2.5205979935829095E-002           2      361111           0
</event>
<event>
      5   9999  3.79277E-02  7.28986E+01 -1.00000E+00  1.30334E-01
      21    -1     0     0   502   501  0.000000000E+00  0.000000000E+00  1.511829674E+02  1.511829674E+02  0.000000000E+00  0.00000E+00  9.000E+00
      21    -1     0     0   501   512  0.000000000E+00  0.000000000E+00 -6.360109291E+02  6.360109291E+02  0.000000000E+00  0.00000E+00  9.000E+00
      25     1     1     2     0     0 -1.299545861E+02  1.400103569E+02 -2.581291380E+02  3.445964979E+02  1.250000000E+02  0.00000E+00  9.000E+00
      25     1     1     2     0     0  1.815358918E+02 -1.915232142E+02 -1.253734721E+02  3.177733927E+02  1.250000000E+02  0.00000E+00  9.000E+00
      21     1     1     2   502   512 -5.158130569E+01  5.151285733E+01 -1.013253516E+02  1.248240059E+02  0.000000000E+00  0.00000E+00  9.000E+00
#rwgt            1           1   2.9836122943119742E-002           2      361344           0
</event>
<event>
      5   9999 -3.88543E-02  6.23271E+01 -1.00000E+00  1.33826E-01
      21    -1     0     0   502   501  0.000000000E+00  0.000000000E+00  9.620296808E+02  9.620296808E+02  0.000000000E+00  0.00000E+00  9.000E+00
      21    -1     0     0   501   511  0.000000000E+00  0.000000000E+00 -3.532424414E+02  3.532424414E+02  0.000000000E+00  0.00000E+00  9.000E+00
      25     1     1     2     0     0  1.501839152E+01 -1.716515776E+02  2.032727170E+02  2.943375845E+02  1.250000000E+02  0.00000E+00  9.000E+00
      25     1     1     2     0     0 -7.506110605E+01  1.549321404E+02  6.939559344E+02  7.258360536E+02  1.250000000E+02  0.00000E+00  9.000E+00
      21     1     1     2   502   511  6.004271453E+01  1.671943723E+01 -2.884414120E+02  2.950984841E+02  3.814697266E-06  0.00000E+00  9.000E+00
#rwgt            1           1 -0.24451189577866209                2      361433           0
</event>
<event>
      5   9999  3.79277E-02  3.36535E+01 -1.00000E+00  1.49652E-01
      21    -1     0     0   502   501  0.000000000E+00  0.000000000E+00  1.150001652E+02  1.150001652E+02  0.000000000E+00  0.00000E+00  9.000E+00
      21    -1     0     0   501   512  0.000000000E+00  0.000000000E+00 -5.275769957E+02  5.275769957E+02  0.000000000E+00  0.00000E+00  9.000E+00
      25     1     1     2     0     0 -1.684943787E+02  1.038017877E+02 -1.760303796E+02  2.928768706E+02  1.250000000E+02  0.00000E+00  9.000E+00
      25     1     1     2     0     0  1.623965073E+02 -7.070533122E+01 -1.713445178E+02  2.763255566E+02  1.250000000E+02  0.00000E+00  9.000E+00
      21     1     1     2   502   512  6.097871381E+00 -3.309645648E+01 -6.520193312E+01  7.337473373E+01  9.536743164E-07  0.00000E+00  9.000E+00
#rwgt            1           1   3.3080192181480596E-002           2      361560           0
</event>
<event>
      5   9999  3.79277E-02  7.63319E+01 -1.00000E+00  1.29344E-01
      21    -1     0     0   502   501  0.000000000E+00  0.000000000E+00  1.538539850E+02  1.538539850E+02  0.000000000E+00  0.00000E+00  9.000E+00
      21    -1     0     0   511   502  0.000000000E+00  0.000000000E+00 -4.766169175E+02  4.766169175E+02  0.000000000E+00  0.00000E+00  9.000E+00
      25     1     1     2     0     0  1.162484492E+02 -7.699026936E+01 -2.030951187E+02  2.762495805E+02  1.250000000E+02  0.00000E+00  9.000E+00
      25     1     1     2     0     0 -1.108064628E+02  1.531278896E+02 -1.832517123E+01  2.273478275E+02  1.250000000E+02  0.00000E+00  9.000E+00
      21     1     1     2   511   501 -5.441986438E+00 -7.613762019E+01 -1.013426425E+02  1.268734946E+02  2.336015456E-06  0.00000E+00  9.000E+00
#rwgt            1           1   6.1459449293123428E-002           2      361886           0
</event>
<event>
      5   9999  3.79277E-02  4.13851E+01 -1.00000E+00  1.43929E-01
      21    -1     0     0   502   501  0.000000000E+00  0.000000000E+00  4.989481610E+02  4.989481610E+02  0.000000000E+00  0.00000E+00  9.000E+00
      21    -1     0     0   501   512  0.000000000E+00  0.000000000E+00 -1.653923395E+02  1.653923395E+02  0.000000000E+00  0.00000E+00  9.000E+00
      25     1     1     2     0     0  1.425644705E+02 -6.793059754E+01  4.005035661E+01  2.053490331E+02  1.250000000E+02  0.00000E+00  9.000E+00
      25     1     1     2     0     0 -1.777523664E+02  4.614671145E+01  3.339732202E+02  4.011091305E+02  1.250000000E+02  0.00000E+00  9.000E+00
      21     1     1     2   502   512  3.518789594E+01  2.178388609E+01 -4.046775532E+01  5.788233698E+01  9.536743164E-07  0.00000E+00  9.000E+00
#rwgt            1           1   3.6887488673629100E-002           2      362169           0
</event>
<event>
      5   9999  3.79277E-02  1.19948E+02 -1.00000E+00  1.20376E-01
      21    -1     0     0   511   501  0.000000000E+00  0.000000000E+00  3.638693542E+02  3.638693542E+02  0.000000000E+00  0.00000E+00  9.000E+00
      21    -1     0     0   501   502  0.000000000E+00  0.000000000E+00 -4.884218086E+02  4.884218086E+02  0.000000000E+00  0.00000E+00  9.000E+00
      25     1     1     2     0     0 -9.539512680E+01  1.790520349E+02 -2.133287822E+02  3.198343802E+02  1.250000000E+02  0.00000E+00  9.000E+00
      25     1     1     2     0     0  4.179177539E+01 -7.174731047E+01 -1.822456429E+02  2.360777486E+02  1.250000000E+02  0.00000E+00  9.000E+00
      21     1     1     2   511   502  5.360335141E+01 -1.073047245E+02  2.710219707E+02  2.963790340E+02  3.814697266E-06  0.00000E+00  9.000E+00
#rwgt            1           1   3.3950057768687050E-002           2      362297           0
</event>
<event>
      5   9999  3.79277E-02  8.70326E+01 -1.00000E+00  1.26603E-01
      21    -1     0     0   502   501  0.000000000E+00  0.000000000E+00  5.696163526E+02  5.696163526E+02  0.000000000E+00  0.00000E+00  9.000E+00
      -3    -1     0     0     0   502  0.000000000E+00  0.000000000E+00 -4.423009400E+02  4.423009400E+02  0.000000000E+00  0.00000E+00  9.000E+00
      25     1     1     2     0     0 -1.539372790E+02 -1.878074784E+02  3.370447741E+02  4.338116118E+02  1.250000000E+02  0.00000E+00  9.000E+00
      25     1     1     2     0     0  1.243243024E+02  2.696472210E+02  2.952188439E+01  3.235161474E+02  1.250000000E+02  0.00000E+00  9.000E+00
      -3     1     1     2     0   501  2.961297663E+01 -8.183974256E+01 -2.392512459E+02  2.545895334E+02  0.000000000E+00  0.00000E+00  9.000E+00
#rwgt            1           1   3.8460779440142104E-002           2      362468           0
</event>
<event>
      5   9999  3.79277E-02  7.40800E+01 -1.00000E+00  1.29987E-01
      21    -1     0     0   502   511  0.000000000E+00  0.000000000E+00  9.391277165E+02  9.391277165E+02  0.000000000E+00  0.00000E+00  9.000E+00
      21    -1     0     0   501   502  0.000000000E+00  0.000000000E+00 -5.705920786E+01  5.705920786E+01  0.000000000E+00  0.00000E+00  9.000E+00
      25     1     1     2     0     0  1.193759323E+02 -1.754280059E+01  2.858163434E+02  3.344762252E+02  1.250000000E+02  0.00000E+00  9.000E+00
      25     1     1     2     0     0 -1.495242941E+02  8.521054616E+01  4.520970720E+02  4.996349810E+02  1.250000000E+02  0.00000E+00  9.000E+00
      21     1     1     2   501   511  3.014836179E+01 -6.766774558E+01  1.441550932E+02  1.620757181E+02  2.697398305E-06  0.00000E+00  9.000E+00
#rwgt            1           1   3.6563307227063170E-002           2      362533           0
</event>
<event>
      5   9999  3.79277E-02  1.64999E+02 -1.00000E+00  1.14777E-01
      21    -1     0     0   502   501  0.000000000E+00  0.000000000E+00  3.837602629E+02  3.837602629E+02  0.000000000E+00  0.00000E+00  9.000E+00
      -2    -1     0     0     0   502  0.000000000E+00  0.000000000E+00 -2.530180951E+02  2.530180951E+02  0.000000000E+00  0.00000E+00  9.000E+00
      25     1     1     2     0     0 -3.260426480E+01  7.595417843E+01  1.132387969E+02  1.878299775E+02  1.250000000E+02  0.00000E+00  9.000E+00
      25     1     1     2     0     0  1.975973090E+02 -7.459368761E+01  9.934147307E+01  2.647690372E+02  1.250000000E+02  0.00000E+00  9.000E+00
      -2     1     1     2     0   501 -1.649930442E+02 -1.360490818E+00 -8.183810216E+01  1.841793434E+02  2.523185073E-06  0.00000E+00  9.000E+00
#rwgt            1           1   2.8967913138259742E-002           2      362638           0
</event>
<event>
      5   9999  3.79277E-02  2.79111E+01 -1.00000E+00  1.55249E-01
      21    -1     0     0   511   501  0.000000000E+00  0.000000000E+00  7.582397064E+01  7.582397064E+01  0.000000000E+00  0.00000E+00  9.000E+00
      21    -1     0     0   501   502  0.000000000E+00  0.000000000E+00 -6.944149241E+02  6.944149241E+02  0.000000000E+00  0.00000E+00  9.000E+00
      25     1     1     2     0     0  9.077735432E+01 -7.000026359E+00 -1.295389709E+02  2.017297038E+02  1.250000000E+02  0.00000E+00  9.000E+00
      25     1     1     2     0     0 -8.149870115E+01  3.332375829E+01 -5.107574138E+02  5.331516172E+02  1.250000000E+02  0.00000E+00  9.000E+00
      21     1     1     2   511   502 -9.278653172E+00 -2.632373193E+01  2.170543130E+01  3.535757366E+01  8.920806376E-07  0.00000E+00  9.000E+00
#rwgt            1           1   4.7189435062571485E-002           2      362754           0
</event>
<event>
      5   9999  3.79277E-02  3.32355E+01 -1.00000E+00  1.50013E-01
      21    -1     0     0   502   512  0.000000000E+00  0.000000000E+00  5.047231728E+02  5.047231728E+02  0.000000000E+00  0.00000E+00  9.000E+00
      21    -1     0     0   501   502  0.000000000E+00  0.000000000E+00 -1.289505669E+02  1.289505669E+02  0.000000000E+00  0.00000E+00  9.000E+00
      25     1     1     2     0     0  6.294320874E+01 -1.653645365E+02  4.229895479E+01  2.207294250E+02  1.250000000E+02  0.00000E+00  9.000E+00
      25     1     1     2     0     0 -6.116916667E+01  1.321763936E+02  2.074753049E+02  2.826362823E+02  1.250000000E+02  0.00000E+00  9.000E+00
      21     1     1     2   501   512 -1.774042068E+00  3.318814298E+01  1.259983462E+02  1.303080324E+02  1.348699152E-06  0.00000E+00  9.000E+00
#rwgt            1           1   3.7281863040821907E-002           2      362892           0
</event>
<event>
      5   9999  3.79277E-02  1.20270E+02 -1.00000E+00  1.20327E-01
      21    -1     0     0   511   501  0.000000000E+00  0.000000000E+00  1.364506252E+03  1.364506252E+03  0.000000000E+00  0.00000E+00  9.000E+00
      21    -1     0     0   501   502  0.000000000E+00  0.000000000E+00 -1.123867732E+02  1.123867732E+02  0.000000000E+00  0.00000E+00  9.000E+00
      25     1     1     2     0     0  1.580695409E+02  7.243353233E+01  1.760500523E+02  2.772205211E+02  1.250000000E+02  0.00000E+00  9.000E+00
      25     1     1     2     0     0 -1.945393102E+02 -1.870411086E+02  3.311290708E+02  4.450858132E+02  1.250000000E+02  0.00000E+00  9.000E+00
      21     1     1     2   511   502  3.646976928E+01  1.146075762E+02  7.449403553E+02  7.545866906E+02  0.000000000E+00  0.00000E+00  9.000E+00
#rwgt            1           1   2.6845570007139236E-002           2      363142           0
</event>
<event>
      5   9999  3.79277E-02  1.18941E+01 -1.00000E+00  1.87434E-01
      21    -1     0     0   502   501  0.000000000E+00  0.000000000E+00  4.143291417E+01  4.143291417E+01  0.000000000E+00  0.00000E+00  9.000E+00
      21    -1     0     0   501   512  0.000000000E+00  0.000000000E+00 -9.441237894E+02  9.441237894E+02  0.000000000E+00  0.00000E+00  9.000E+00
      25     1     1     2     0     0  7.177351092E+00  2.067288133E+01 -7.888841629E+01  1.494231060E+02  1.250000000E+02  0.00000E+00  9.000E+00
      25     1     1     2     0     0 -7.580363965E+00 -3.256013858E+01 -7.084398147E+02  7.201594238E+02  1.250000000E+02  0.00000E+00  9.000E+00
      21     1     1     2   502   512  4.030128727E-01  1.188725725E+01 -1.153626442E+02  1.159741738E+02  1.907348633E-06  0.00000E+00  9.000E+00
#rwgt            1           1   4.1341753750147335E-002           2      363380           0
</event>
<event>
      5   9999  3.79277E-02  8.02312E+00 -1.00000E+00  2.07507E-01
      21    -1     0     0   502   501  0.000000000E+00  0.000000000E+00  1.026153605E+03  1.026153605E+03  0.000000000E+00  0.00000E+00  9.000E+00
      21    -1     0     0   501   511  0.000000000E+00  0.000000000E+00 -1.629059347E+02  1.629059347E+02  0.000000000E+00  0.00000E+00  9.000E+00
      25     1     1     2     0     0 -1.819352715E+02  1.404853444E+02  3.363863549E+02  4.261658771E+02  1.250000000E+02  0.00000E+00  9.000E+00
      25     1     1     2     0     0  1.740000194E+02 -1.393012099E+02  6.193799111E+02  6.700278413E+02  1.250000000E+02  0.00000E+00  9.000E+00
      21     1     1     2   502   511  7.935252153E+00 -1.184134497E+00 -9.251859524E+01  9.286582185E+01  1.907348633E-06  0.00000E+00  9.000E+00
#rwgt            1           1   3.4791946270990047E-002           2      363553           0
</event>
<event>
      5   9999  3.79277E-02  6.43203E+01 -1.00000E+00  1.33109E-01
      21    -1     0     0   502   501  0.000000000E+00  0.000000000E+00  7.842786191E+02  7.842786191E+02  0.000000000E+00  0.00000E+00  9.000E+00
      21    -1     0     0   512   502  0.000000000E+00  0.000000000E+00 -1.159500746E+02  1.159500746E+02  0.000000000E+00  0.00000E+00  9.000E+00
      25     1     1     2     0     0 -1.706880818E+02  3.797178592E+01  5.358884866E+02  5.773887321E+02  1.250000000E+02  0.00000E+00  9.000E+00
      25     1     1     2     0     0  1.265085171E+02  8.775109841E+00  1.718018431E+02  2.474313658E+02  1.250000000E+02  0.00000E+00  9.000E+00
      21     1     1     2   512   501  4.417956467E+01 -4.674689576E+01 -3.936178524E+01  7.540859590E+01  1.348699152E-06  0.00000E+00  9.000E+00
#rwgt            1           1   2.5595953016834774E-002           2      363838           0
</event>
<event>
      5   9999  3.79277E-02  9.58882E+01 -1.00000E+00  1.24654E-01
       5    -1     0     0   502     0  0.000000000E+00  0.000000000E+00  4.460853202E+01  4.460853202E+01  0.000000000E+00  0.00000E+00  9.000E+00
      21    -1     0     0   501   502  0.000000000E+00  0.000000000E+00 -1.647604992E+03  1.647604992E+03  0.000000000E+00  0.00000E+00  9.000E+00
      25     1     1     2     0     0  1.442806371E+02  1.724750446E+01 -7.663812476E+02  7.899870856E+02  1.250000000E+02  0.00000E+00  9.000E+00
      25     1     1     2     0     0 -1.060883776E+02 -1.052014245E+02 -7.433920231E+02  7.684912384E+02  1.250000000E+02  0.00000E+00  9.000E+00
       5     1     1     2   501     0 -3.819225942E+01  8.795392004E+01 -9.322318962E+01  1.337352003E+02  3.015782986E-06  0.00000E+00  9.000E+00
#rwgt            1           1   5.5488044949193405E-002           2      363924           0
</event>
<event>
      5   9999  3.79277E-02  2.37691E+01 -1.00000E+00  1.60411E-01
      21    -1     0     0   502   501  0.000000000E+00  0.000000000E+00  4.837323353E+01  4.837323353E+01  0.000000000E+00  0.00000E+00  9.000E+00
      21    -1     0     0   501   511  0.000000000E+00  0.000000000E+00 -2.677061962E+03  2.677061962E+03  0.000000000E+00  0.00000E+00  9.000E+00
      25     1     1     2     0     0  1.062475461E+01 -3.182492378E+02 -1.195926010E+03  1.243888855E+03  1.250000000E+02  0.00000E+00  9.000E+00
      25     1     1     2     0     0  1.199944187E+01  3.255373109E+02 -1.270057533E+03  1.317114142E+03  1.250000000E+02  0.00000E+00  9.000E+00
      21     1     1     2   502   511 -2.262419648E+01 -7.288073127E+00 -1.627051860E+02  1.644321983E+02  1.907348633E-06  0.00000E+00  9.000E+00
#rwgt            1           1  0.20005086587197102                2      364022           0
</event>
<event>
      5   9999 -3.79277E-02  2.60658E+01 -1.00000E+00  1.57405E-01
      21    -1     0     0   502   501  0.000000000E+00  0.000000000E+00  3.711854959E+02  3.711854959E+02  0.000000000E+00  0.00000E+00  9.000E+00
      21    -1     0     0   501   512  0.000000000E+00  0.000000000E+00 -9.504586342E+01  9.504586342E+01  0.000000000E+00  0.00000E+00  9.000E+00
      25     1     1     2     0     0 -3.018807520E+01 -9.944293554E+01  1.659929120E+02  2.323335192E+02  1.250000000E+02  0.00000E+00  9.000E+00
      25     1     1     2     0     0  4.246254224E+01  1.224377700E+02  9.972769342E+01  2.058268395E+02  1.250000000E+02  0.00000E+00  9.000E+00
      21     1     1     2   502   512 -1.227446703E+01 -2.299483443E+01  1.041902704E+01  2.807100062E+01  7.251217997E-07  0.00000E+00  9.000E+00
#rwgt            1           1  -5.9183045813526814E-003           2      364267           0
</event>
<event>
      5   9999  3.79277E-02  1.88478E+02 -1.00000E+00  1.12594E-01
      21    -1     0     0   511   501  0.000000000E+00  0.000000000E+00  1.912453632E+03  1.912453632E+03  0.000000000E+00  0.00000E+00  9.000E+00
      21    -1     0     0   501   502  0.000000000E+00  0.000000000E+00 -1.069500750E+02  1.069500750E+02  0.000000000E+00  0.00000E+00  9.000E+00
      25     1     1     2     0     0  5.596095547E+01  6.369419765E+01  1.379690166E+01  1.516704778E+02  1.250000000E+02  0.00000E+00  9.000E+00
      25     1     1     2     0     0 -2.944660985E+00  1.171739638E+02  1.935682045E+02  2.585189715E+02  1.250000000E+02  0.00000E+00  9.000E+00
      21     1     1     2   511   502 -5.301629449E+01 -1.808681615E+02  1.598138451E+03  1.609214258E+03  0.000000000E+00  0.00000E+00  9.000E+00
#rwgt            2          11   5.0027933089802660E-004           2      364393           0
</event>
<event>
      5   9999 -3.89321E-02  3.44921E+01 -1.00000E+00  1.48947E-01
      21    -1     0     0   512   501  0.000000000E+00  0.000000000E+00  1.047688005E+02  1.047688005E+02  0.000000000E+00  0.00000E+00  9.000E+00
      21    -1     0     0   501   502  0.000000000E+00  0.000000000E+00 -1.002166812E+03  1.002166812E+03  0.000000000E+00  0.00000E+00  9.000E+00
      25     1     1     2     0     0 -1.424276638E+02  1.714057926E+02 -1.584415838E+02  3.006564828E+02  1.250000000E+02  0.00000E+00  9.000E+00
      25     1     1     2     0     0  1.167331253E+02 -1.944166020E+02 -7.235770933E+02  7.685136613E+02  1.250000000E+02  0.00000E+00  9.000E+00
      21     1     1     2   512   502  2.569453846E+01  2.301080943E+01 -1.537933394E+01  3.776546795E+01  6.529361695E-07  0.00000E+00  9.000E+00
#rwgt            1           1 -0.31796804087454023                2      364428           0
</event>
<event>
      5   9999  3.79277E-02  1.94210E+02 -1.00000E+00  1.12114E-01
      21    -1     0     0   511   501  0.000000000E+00  0.000000000E+00  1.417624156E+02  1.417624156E+02  0.000000000E+00  0.00000E+00  9.000E+00
      21    -1     0     0   501   502  0.000000000E+00  0.000000000E+00 -1.529562089E+03  1.529562089E+03  0.000000000E+00  0.00000E+00  9.000E+00
      25     1     1     2     0     0  1.460241592E+02  1.172170302E+02 -9.895314519E+01  2.459260299E+02  1.250000000E+02  0.00000E+00  9.000E+00
      25     1     1     2     0     0 -1.975271331E+02 -3.044736428E+02 -1.047484927E+03  1.115603352E+03  1.250000000E+02  0.00000E+00  9.000E+00
      21     1     1     2   511   502  5.150297383E+01  1.872566126E+02 -2.413616010E+02  3.097951221E+02  4.672030912E-06  0.00000E+00  9.000E+00
#rwgt            1           1   3.7038467541637858E-002           2      364596           0
</event>
<event>
      5   9999  3.79277E-02  1.06534E+02 -1.00000E+00  1.22604E-01
      21    -1     0     0   502   501  0.000000000E+00  0.000000000E+00  5.835355596E+01  5.835355596E+01  0.000000000E+00  0.00000E+00  9.000E+00
      21    -1     0     0   512   502  0.000000000E+00  0.000000000E+00 -1.807972195E+03  1.807972195E+03  0.000000000E+00  0.00000E+00  9.000E+00
      25     1     1     2     0     0 -2.573731912E+01  4.530429050E+01 -8.721595023E+02  8.826109481E+02  1.250000000E+02  0.00000E+00  9.000E+00
      25     1     1     2     0     0  6.086583383E+01  5.527157832E+01 -6.303349755E+01  1.623509129E+02  1.250000000E+02  0.00000E+00  9.000E+00
      21     1     1     2   512   501 -3.512851472E+01 -1.005758688E+02 -8.144256395E+02  8.213638902E+02  1.078959322E-05  0.00000E+00  9.000E+00
#rwgt            1           1   3.8263064464943798E-002           2      364673           0
</event>
<event>
      5   9999  3.79277E-02  4.07912E+01 -1.00000E+00  1.44315E-01
      21    -1     0     0   502   501  0.000000000E+00  0.000000000E+00  7.500207181E+01  7.500207181E+01  0.000000000E+00  0.00000E+00  9.000E+00
      21    -1     0     0   501   511  0.000000000E+00  0.000000000E+00 -3.012608154E+03  3.012608154E+03  0.000000000E+00  0.00000E+00  9.000E+00
      25     1     1     2     0     0 -1.298493315E+02 -1.403640913E+02 -3.369191624E+02  4.070656569E+02  1.250000000E+02  0.00000E+00  9.000E+00
      25     1     1     2     0     0  8.917859612E+01  1.434961729E+02 -2.380201278E+02  3.175256760E+02  1.250000000E+02  0.00000E+00  9.000E+00
      21     1     1     2   502   511  4.067073543E+01 -3.132081552E+00 -2.362666792E+03  2.363018893E+03  3.051757812E-05  0.00000E+00  9.000E+00
#rwgt            1           1   2.4735603296158579E-002           2      364744           0
</event>
<event>
      5   9999  3.79277E-02  1.33914E+02 -1.00000E+00  1.18380E-01
      21    -1     0     0   502   501  0.000000000E+00  0.000000000E+00  2.440208251E+02  2.440208251E+02  0.000000000E+00  0.00000E+00  9.000E+00
       2    -1     0     0   501     0  0.000000000E+00  0.000000000E+00 -1.139860625E+03  1.139860625E+03  0.000000000E+00  0.00000E+00  9.000E+00
      25     1     1     2     0     0 -4.740219521E+01  1.814707337E+02  1.162558158E+02  2.536119280E+02  1.250000000E+02  0.00000E+00  9.000E+00
      25     1     1     2     0     0 -5.288656327E+01 -9.272817040E+01 -6.993189642E+01  1.786364249E+02  1.250000000E+02  0.00000E+00  9.000E+00
       2     1     1     2   502     0  1.002887585E+02 -8.874256330E+01 -9.421637193E+02  9.516330971E+02  0.000000000E+00  0.00000E+00  9.000E+00
#rwgt            1           1   4.3852085282833721E-002           2      365135           0
</event>
<event>
      5   9999  3.79277E-02  2.72910E+01 -1.00000E+00  1.55950E-01
      21    -1     0     0   502   511  0.000000000E+00  0.000000000E+00  6.306252367E+01  6.306252367E+01  0.000000000E+00  0.00000E+00  9.000E+00
      21    -1     0     0   501   502  0.000000000E+00  0.000000000E+00 -1.171403166E+03  1.171403166E+03  0.000000000E+00  0.00000E+00  9.000E+00
      25     1     1     2     0     0 -8.236661547E+01  1.064949831E+02 -4.685235632E+02  5.032541804E+02  1.250000000E+02  0.00000E+00  9.000E+00
      25     1     1     2     0     0  6.963247728E+01 -1.306329542E+02 -6.658678440E+02  6.934829748E+02  1.250000000E+02  0.00000E+00  9.000E+00
      21     1     1     2   501   511  1.273413819E+01  2.413797112E+01  2.605076521E+01  3.772853421E+01  1.118282261E-06  0.00000E+00  9.000E+00
#rwgt            1           1   3.7259611809512490E-002           2      365187           0
</event>
<event>
      5   9999  3.79277E-02  1.58138E+02  7.55638E-03  1.15491E-01
       2    -1     0     0   501     0  0.000000000E+00  0.000000000E+00  1.439812744E+03  1.439812744E+03  0.000000000E+00  0.00000E+00  9.000E+00
      -2    -1     0     0     0   502  0.000000000E+00  0.000000000E+00 -4.193651957E+01  4.193651957E+01  0.000000000E+00  0.00000E+00  9.000E+00
      25     1     1     2     0     0 -3.834169466E+01  2.836560225E+01  4.733742679E+02  4.919175647E+02  1.250000000E+02  0.00000E+00  9.000E+00
      25     1     1     2     0     0 -1.131486783E+02  1.700318554E+01  2.896444474E+02  3.355750849E+02  1.250000000E+02  0.00000E+00  9.000E+00
      21     1     1     2   501   502  1.514903730E+02 -4.536878779E+01  6.348575095E+02  6.542566144E+02  1.078959322E-05  0.00000E+00  9.000E+00
#rwgt            3           7   4.0784690279275131E-003           2      365327           0
</event>
<event>
      5   9999  3.79277E-02  1.68418E+02 -1.00000E+00  1.14435E-01
      21    -1     0     0   502   501  0.000000000E+00  0.000000000E+00  3.732578173E+02  3.732578173E+02  0.000000000E+00  0.00000E+00  9.000E+00
      21    -1     0     0   501   511  0.000000000E+00  0.000000000E+00 -1.115653941E+03  1.115653941E+03  0.000000000E+00  0.00000E+00  9.000E+00
      25     1     1     2     0     0  1.223230481E+02  1.714172916E+02  9.070205432E+01  2.611487672E+02  1.250000000E+02  0.00000E+00  9.000E+00
      25     1     1     2     0     0  1.002561660E+01 -6.726198704E+01  1.636615390E+02  2.168750498E+02  1.250000000E+02  0.00000E+00  9.000E+00
      21     1     1     2   502   511 -1.323486647E+02 -1.041553046E+02 -9.967597166E+02  1.010887941E+03  1.078959322E-05  0.00000E+00  9.000E+00
#rwgt            1           1   4.4034192463173652E-002           2      365346           0
</event>
<event>
      5   9999  3.79277E-02  6.37264E+01 -1.00000E+00  1.33320E-01
      21    -1     0     0   502   501  0.000000000E+00  0.000000000E+00  5.677956446E+02  5.677956446E+02  0.000000000E+00  0.00000E+00  9.000E+00
      21    -1     0     0   501   512  0.000000000E+00  0.000000000E+00 -5.532177575E+02  5.532177575E+02  0.000000000E+00  0.00000E+00  9.000E+00
      25     1     1     2     0     0  1.139466981E+02 -1.366731976E+02  1.659988756E+02  2.735763872E+02  1.250000000E+02  0.00000E+00  9.000E+00
      25     1     1     2     0     0 -8.055390955E+01  8.239632745E+01  3.249958279E+02  3.667770103E+02  1.250000000E+02  0.00000E+00  9.000E+00
      21     1     1     2   502   512 -3.339278858E+01  5.427687013E+01 -4.764168164E+02  4.806600045E+02  5.394796609E-06  0.00000E+00  9.000E+00
#rwgt            1           1   4.2457158616950916E-002           2      365408           0
</event>
<event>
      5   9999  3.79277E-02  2.20803E+01 -1.00000E+00  1.62900E-01
      21    -1     0     0   511   501  0.000000000E+00  0.000000000E+00  3.933309399E+02  3.933309399E+02  0.000000000E+00  0.00000E+00  9.000E+00
      21    -1     0     0   501   502  0.000000000E+00  0.000000000E+00 -1.614029157E+02  1.614029157E+02  0.000000000E+00  0.00000E+00  9.000E+00
      25     1     1     2     0     0  1.553318957E+02  9.545411668E+01  6.403502208E+01  2.301411963E+02  1.250000000E+02  0.00000E+00  9.000E+00
      25     1     1     2     0     0 -1.655929858E+02 -7.590293295E+01  8.158771747E+01  2.355076386E+02  1.250000000E+02  0.00000E+00  9.000E+00
      21     1     1     2   511   502  1.026109017E+01 -1.955118374E+01  8.630528462E+01  8.908502069E+01  9.536743164E-07  0.00000E+00  9.000E+00
#rwgt            1           1   4.0254120715359901E-002           2      365499           0
</event>
<event>
      5   9999  3.79277E-02  1.13544E+02 -1.00000E+00  1.21397E-01
       4    -1     0     0   502     0  0.000000000E+00  0.000000000E+00  2.047881455E+03  2.047881455E+03  0.000000000E+00  0.00000E+00  9.000E+00
      21    -1     0     0   501   502  0.000000000E+00  0.000000000E+00 -2.333187595E+02  2.333187595E+02  0.000000000E+00  0.00000E+00  9.000E+00
      25     1     1     2     0     0 -9.996914911E+01 -1.870692769E+02  1.658462754E+02  2.968479951E+02  1.250000000E+02  0.00000E+00  9.000E+00
      25     1     1     2     0     0  5.699437849E+01  2.921664175E+02 -8.778164971E+00  3.229731117E+02  1.250000000E+02  0.00000E+00  9.000E+00
       4     1     1     2   501     0  4.297477062E+01 -1.050971407E+02  1.657494586E+03  1.661379108E+03  2.157918644E-05  0.00000E+00  9.000E+00
#rwgt            1           1   3.7102666420247024E-002           2      365679           0
</event>
<event>
      5   9999  3.79277E-02  2.96574E+01 -1.00000E+00  1.53387E-01
      21    -1     0     0   502   501  0.000000000E+00  0.000000000E+00  4.120694171E+01  4.120694171E+01  0.000000000E+00  0.00000E+00  9.000E+00
      21    -1     0     0   501   511  0.000000000E+00  0.000000000E+00 -9.821630289E+02  9.821630289E+02  0.000000000E+00  0.00000E+00  9.000E+00
      25     1     1     2     0     0 -1.127141486E+02  6.853280510E+01 -4.101391069E+02  4.485981628E+02  1.250000000E+02  0.00000E+00  9.000E+00
      25     1     1     2     0     0  8.785637606E+01 -8.470840632E+01 -3.461216941E+02  3.877105673E+02  1.250000000E+02  0.00000E+00  9.000E+00
      21     1     1     2   502   511  2.485777256E+01  1.617560123E+01 -1.846952863E+02  1.870612405E+02  2.697398305E-06  0.00000E+00  9.000E+00
#rwgt            1           1   4.7131485708063171E-002           2      365910           0
</event>
<event>
      5   9999  3.79277E-02  2.35035E+01 -1.00000E+00  1.60785E-01
      21    -1     0     0   502   501  0.000000000E+00  0.000000000E+00  1.829709581E+02  1.829709581E+02  0.000000000E+00  0.00000E+00  9.000E+00
      21    -1     0     0   512   502  0.000000000E+00  0.000000000E+00 -7.587204175E+02  7.587204175E+02  0.000000000E+00  0.00000E+00  9.000E+00
      25     1     1     2     0     0  1.146761337E+02 -1.199305676E+01  8.068338923E+01  1.882266143E+02  1.250000000E+02  0.00000E+00  9.000E+00
      25     1     1     2     0     0 -1.377858781E+02  1.627722755E+01 -1.324369393E+02  2.289419997E+02  1.250000000E+02  0.00000E+00  9.000E+00
      21     1     1     2   512   501  2.310974442E+01 -4.284170790E+00 -5.239959093E+02  5.245227616E+02  7.629394531E-06  0.00000E+00  9.000E+00
#rwgt            1           1   2.5499541715164845E-002           2      366066           0
</event>
<event>
      5   9999  3.79277E-02  2.60998E+02 -1.00000E+00  1.07595E-01
      21    -1     0     0   502   511  0.000000000E+00  0.000000000E+00  3.858348537E+02  3.858348537E+02  0.000000000E+00  0.00000E+00  9.000E+00
      21    -1     0     0   501   502  0.000000000E+00  0.000000000E+00 -1.015686985E+03  1.015686985E+03  0.000000000E+00  0.00000E+00  9.000E+00
      25     1     1     2     0     0 -3.851726505E+02  1.326679339E+02 -5.301226999E+02  6.801572085E+02  1.250000000E+02  0.00000E+00  9.000E+00
      25     1     1     2     0     0  1.886328439E+02 -3.044003211E+02 -2.150555410E+02  4.360226955E+02  1.250000000E+02  0.00000E+00  9.000E+00
      21     1     1     2   501   511  1.965398066E+02  1.717323872E+02  1.153261093E+02  2.853419350E+02  3.568322551E-06  0.00000E+00  9.000E+00
#rwgt            2          11   2.9396643273078386E-003           2      366178           0
</event>
<event>
      5   9999  3.79277E-02  6.09357E+01 -1.00000E+00  1.34345E-01
      21    -1     0     0   502   512  0.000000000E+00  0.000000000E+00  8.696432023E+01  8.696432023E+01  0.000000000E+00  0.00000E+00  9.000E+00
      21    -1     0     0   501   502  0.000000000E+00  0.000000000E+00 -1.174106543E+03  1.174106543E+03  0.000000000E+00  0.00000E+00  9.000E+00
      25     1     1     2     0     0  2.206410395E+02 -9.445426954E+01 -5.264537843E+02  5.919313004E+02  1.250000000E+02  0.00000E+00  9.000E+00
      25     1     1     2     0     0 -1.981322841E+02  1.510804000E+02 -5.344806615E+02  6.028069897E+02  1.250000000E+02  0.00000E+00  9.000E+00
      21     1     1     2   501   512 -2.250875533E+01 -5.662613045E+01 -2.620777725E+01  6.633257348E+01  1.348699152E-06  0.00000E+00  9.000E+00
#rwgt            1           1   4.7173001121933317E-002           2      366318           0
</event>
<event>
      5   9999  3.79277E-02  2.21343E+01 -1.00000E+00  1.62816E-01
      21    -1     0     0   511   501  0.000000000E+00  0.000000000E+00  1.771252819E+03  1.771252819E+03  0.000000000E+00  0.00000E+00  9.000E+00
      21    -1     0     0   501   502  0.000000000E+00  0.000000000E+00 -4.090514295E+01  4.090514295E+01  0.000000000E+00  0.00000E+00  9.000E+00
      25     1     1     2     0     0 -1.404290762E+01 -5.964010063E+01  1.090496061E+02  1.768359733E+02  1.250000000E+02  0.00000E+00  9.000E+00
      25     1     1     2     0     0  7.334176520E+00  8.073320562E+01  8.017540366E+02  8.154791081E+02  1.250000000E+02  0.00000E+00  9.000E+00
      21     1     1     2   511   502  6.708731101E+00 -2.109310499E+01  8.195440338E+02  8.198428810E+02  0.000000000E+00  0.00000E+00  9.000E+00
#rwgt            1           1   3.8890628423499059E-002           2      366458           0
</event>
<event>
      5   9999  3.79277E-02  2.77398E+01 -1.00000E+00  1.55441E-01
      21    -1     0     0   502   512  0.000000000E+00  0.000000000E+00  1.820417116E+02  1.820417116E+02  0.000000000E+00  0.00000E+00  9.000E+00
      21    -1     0     0   501   502  0.000000000E+00  0.000000000E+00 -2.424144508E+02  2.424144508E+02  0.000000000E+00  0.00000E+00  9.000E+00
      25     1     1     2     0     0 -6.357425433E+01 -1.016202754E+02  2.026891736E+01  1.743679879E+02  1.250000000E+02  0.00000E+00  9.000E+00
      25     1     1     2     0     0  6.484683829E+01  7.390970666E+01 -1.218937153E+02  2.003767327E+02  1.250000000E+02  0.00000E+00  9.000E+00
      21     1     1     2   501   512 -1.272583960E+00  2.771056872E+01  4.125205878E+01  4.971144177E+01  0.000000000E+00  0.00000E+00  9.000E+00
#rwgt            2          11   9.6064648103120652E-004           2      366688           0
</event>
<event>
      5   9999  3.79277E-02  1.94016E+01 -1.00000E+00  1.67465E-01
      21    -1     0     0   502   511  0.000000000E+00  0.000000000E+00  2.343846759E+02  2.343846759E+02  0.000000000E+00  0.00000E+00  9.000E+00
      21    -1     0     0   501   502  0.000000000E+00  0.000000000E+00 -1.013164616E+03  1.013164616E+03  0.000000000E+00  0.00000E+00  9.000E+00
      25     1     1     2     0     0 -1.495013897E+02 -1.343956640E+02 -1.221611572E+02  2.663854507E+02  1.250000000E+02  0.00000E+00  9.000E+00
      25     1     1     2     0     0  1.653681864E+02  1.232301875E+02 -8.004710506E+02  8.360091023E+02  1.250000000E+02  0.00000E+00  9.000E+00
      21     1     1     2   501   511 -1.586679663E+01  1.116547649E+01  1.438522680E+02  1.451547385E+02  3.814697266E-06  0.00000E+00  9.000E+00
#rwgt            1           1   2.6541627858608446E-002           2      366738           0
</event>
<event>
      5   9999  3.79277E-02  6.19956E+01 -1.00000E+00  1.33948E-01
      21    -1     0     0   512   501  0.000000000E+00  0.000000000E+00  5.613802645E+01  5.613802645E+01  0.000000000E+00  0.00000E+00  9.000E+00
      21    -1     0     0   501   502  0.000000000E+00  0.000000000E+00 -2.441279015E+03  2.441279015E+03  0.000000000E+00  0.00000E+00  9.000E+00
      25     1     1     2     0     0 -2.649938434E+01  9.686283230E+01 -7.977154185E+02  8.136703968E+02  1.250000000E+02  0.00000E+00  9.000E+00
      25     1     1     2     0     0  5.345849907E+01 -4.103574230E+01 -1.611128014E+03  1.617374484E+03  1.250000000E+02  0.00000E+00  9.000E+00
      21     1     1     2   512   502 -2.695911473E+01 -5.582709000E+01  2.370244423E+01  6.637216064E+01  3.015782986E-06  0.00000E+00  9.000E+00
#rwgt            1           1   5.8758823607241634E-002           2      367001           0
</event>
<event>
      5   9999  3.79277E-02  6.45556E+01 -1.00000E+00  1.33027E-01
      21    -1     0     0   502   511  0.000000000E+00  0.000000000E+00  2.410956685E+02  2.410956685E+02  0.000000000E+00  0.00000E+00  9.000E+00
      21    -1     0     0   501   502  0.000000000E+00  0.000000000E+00 -3.057775282E+02  3.057775282E+02  0.000000000E+00  0.00000E+00  9.000E+00
      25     1     1     2     0     0 -9.876397892E+00 -2.172848447E+02 -1.197769852E+02  2.779959949E+02  1.250000000E+02  0.00000E+00  9.000E+00
      25     1     1     2     0     0  7.121456612E+00  1.527880348E+02  3.090177346E+01  1.999370359E+02  1.250000000E+02  0.00000E+00  9.000E+00
      21     1     1     2   501   511  2.754941280E+00  6.449680995E+01  2.419335210E+01  6.894016595E+01  5.840038640E-07  0.00000E+00  9.000E+00
#rwgt            1           1   4.7973200456217738E-002           2      367064           0
</event>
<event>
      5   9999  3.79277E-02  8.42750E+01 -1.00000E+00  1.27265E-01
      21    -1     0     0   502   501  0.000000000E+00  0.000000000E+00  9.249750813E+02  9.249750813E+02  0.000000000E+00  0.00000E+00  9.000E+00
      21    -1     0     0   501   512  0.000000000E+00  0.000000000E+00 -2.234997626E+02  2.234997626E+02  0.000000000E+00  0.00000E+00  9.000E+00
      25     1     1     2     0     0 -6.989837979E+01  1.752937401E+02  3.750428020E+02  4.380591080E+02  1.250000000E+02  0.00000E+00  9.000E+00
      25     1     1     2     0     0 -1.437534835E+01 -1.748327082E+02  4.850904208E+02  5.307643949E+02  1.250000000E+02  0.00000E+00  9.000E+00
      21     1     1     2   502   512  8.427372814E+01 -4.610318815E-01 -1.586579040E+02  1.796513410E+02  3.303624740E-06  0.00000E+00  9.000E+00
#rwgt            2          11   4.9711912772945257E-003           2      367220           0
</event>
<event>
      5   9999  3.79277E-02  2.37939E+02 -1.00000E+00  1.08969E-01
      21    -1     0     0   502   501  0.000000000E+00  0.000000000E+00  1.732559725E+03  1.732559725E+03  0.000000000E+00  0.00000E+00  9.000E+00
       1    -1     0     0   501     0  0.000000000E+00  0.000000000E+00 -1.164567295E+03  1.164567295E+03  0.000000000E+00  0.00000E+00  9.000E+00
      25     1     1     2     0     0  2.414985176E+02 -1.557994724E+02  1.144903339E+03  1.187023026E+03  1.250000000E+02  0.00000E+00  9.000E+00
      25     1     1     2     0     0 -3.981069273E+00  1.699570219E+02  5.339045263E+02  5.740908302E+02  1.250000000E+02  0.00000E+00  9.000E+00
       1     1     1     2   502     0 -2.375174483E+02 -1.415754945E+01 -1.110815436E+03  1.136013163E+03  1.525878906E-05  0.00000E+00  9.000E+00
#rwgt            2          12   2.1168037969485562E-002           2      367270           0
</event>
<event>
      5   9999 -3.79277E-02  6.66551E+01 -1.00000E+00  1.32307E-01
      21    -1     0     0   502   501  0.000000000E+00  0.000000000E+00  6.406593499E+02  6.406593499E+02  0.000000000E+00  0.00000E+00  9.000E+00
      21    -1     0     0   511   502  0.000000000E+00  0.000000000E+00 -2.927546502E+02  2.927546502E+02  0.000000000E+00  0.00000E+00  9.000E+00
      25     1     1     2     0     0 -1.371368501E+00  2.806549804E+02  3.029187003E+02  4.314554875E+02  1.250000000E+02  0.00000E+00  9.000E+00
      25     1     1     2     0     0 -5.808532208E+01 -2.505251756E+02  1.893491662E+02  3.429502514E+02  1.250000000E+02  0.00000E+00  9.000E+00
      21     1     1     2   511   501  5.945669058E+01 -3.012980484E+01 -1.443631668E+02  1.590082612E+02  0.000000000E+00  0.00000E+00  9.000E+00
#rwgt            1           1 -0.35532386797638238                2      367379           0
</event>
<event>
      5   9999  3.79277E-02  4.96886E+01 -1.00000E+00  1.39231E-01
      21    -1     0     0   502   501  0.000000000E+00  0.000000000E+00  3.832470996E+02  3.832470996E+02  0.000000000E+00  0.00000E+00  9.000E+00
      21    -1     0     0   501   512  0.000000000E+00  0.000000000E+00 -1.737725061E+02  1.737725061E+02  0.000000000E+00  0.00000E+00  9.000E+00
      25     1     1     2     0     0  1.657682397E+01 -1.268132514E+02 -6.565175693E+01  1.905033990E+02  1.250000000E+02  0.00000E+00  9.000E+00
      25     1     1     2     0     0 -2.559003065E+01  7.794896670E+01  2.791435811E+02  3.166654859E+02  1.250000000E+02  0.00000E+00  9.000E+00
      21     1     1     2   502   512  9.013206680E+00  4.886428472E+01 -4.017230737E+00  4.985072075E+01  4.915124924E-07  0.00000E+00  9.000E+00
#rwgt            1           1   3.4010438500705703E-002           2      367560           0
</event>
<event>
      5   9999  3.79277E-02  6.21895E+01 -1.00000E+00  1.33877E-01
      21    -1     0     0   502   511  0.000000000E+00  0.000000000E+00  1.452524768E+02  1.452524768E+02  0.000000000E+00  0.00000E+00  9.000E+00
      21    -1     0     0   501   502  0.000000000E+00  0.000000000E+00 -4.823857940E+02  4.823857940E+02  0.000000000E+00  0.00000E+00  9.000E+00
      25     1     1     2     0     0  3.580863518E+01  1.339443784E+02 -1.182275250E+01  1.870511490E+02  1.250000000E+02  0.00000E+00  9.000E+00
      25     1     1     2     0     0 -9.432437404E+01 -1.550025621E+02 -3.027322235E+02  3.744258016E+02  1.250000000E+02  0.00000E+00  9.000E+00
      21     1     1     2   501   511  5.851573886E+01  2.105818373E+01 -2.257834123E+01  6.616132019E+01  7.907449699E-07  0.00000E+00  9.000E+00
#rwgt            2          11   3.3126816087916777E-003           2      367801           0
</event>
<event>
      5   9999  3.79277E-02  9.30478E+01 -1.00000E+00  1.25252E-01
      21    -1     0     0   502   501  0.000000000E+00  0.000000000E+00  2.290201522E+02  2.290201522E+02  0.000000000E+00  0.00000E+00  9.000E+00
      21    -1     0     0   512   502  0.000000000E+00  0.000000000E+00 -3.675998697E+02  3.675998697E+02  0.000000000E+00  0.00000E+00  9.000E+00
      25     1     1     2     0     0 -7.573516757E+01  8.055859709E+00 -4.468357608E+01  1.530435704E+02  1.250000000E+02  0.00000E+00  9.000E+00
      25     1     1     2     0     0 -1.331910744E+01  1.891138817E+01  1.416439605E+02  1.903235423E+02  1.250000000E+02  0.00000E+00  9.000E+00
      21     1     1     2   512   501  8.905427501E+01 -2.696724788E+01 -2.355401019E+02  2.532529091E+02  0.000000000E+00  0.00000E+00  9.000E+00
#rwgt            1           1   4.8393457704731781E-002           2      367866           0
</event>
<event>
      5   9999  3.79277E-02  5.66089E+01 -1.00000E+00  1.36068E-01
      -1    -1     0     0     0   501  0.000000000E+00  0.000000000E+00  7.128586381E+02  7.128586381E+02  0.000000000E+00  0.00000E+00  9.000E+00
      21    -1     0     0   501   502  0.000000000E+00  0.000000000E+00 -1.333984569E+03  1.333984569E+03  0.000000000E+00  0.00000E+00  9.000E+00
      25     1     1     2     0     0  1.269284903E+02  1.162842915E+01 -7.804968727E+02  8.006537518E+02  1.250000000E+02  0.00000E+00  9.000E+00
      25     1     1     2     0     0 -1.607010688E+02 -5.705953152E+01 -5.216231060E+02  5.628465940E+02  1.250000000E+02  0.00000E+00  9.000E+00
      -1     1     1     2     0   502  3.377257844E+01  4.543110238E+01  6.809940481E+02  6.833428610E+02  7.629394531E-06  0.00000E+00  9.000E+00
#rwgt            1           1   2.5622694990153353E-002           2      367956           0
</event>
<event>
      5   9999  3.79277E-02  1.81783E+01 -1.00000E+00  1.69866E-01
      21    -1     0     0   502   501  0.000000000E+00  0.000000000E+00  2.250705579E+03  2.250705579E+03  0.000000000E+00  0.00000E+00  9.000E+00
      21    -1     0     0   501   511  0.000000000E+00  0.000000000E+00 -3.117404090E+01  3.117404090E+01  0.000000000E+00  0.00000E+00  9.000E+00
      25     1     1     2     0     0 -1.684787633E+02  5.038354995E+01  1.634173616E+03  1.648354332E+03  1.250000000E+02  0.00000E+00  9.000E+00
      25     1     1     2     0     0  1.529348781E+02 -5.980887903E+01  5.783064046E+02  6.140272604E+02  1.250000000E+02  0.00000E+00  9.000E+00
      21     1     1     2   502   511  1.554388511E+01  9.425329075E+00  7.051517790E+00  1.949802800E+01  5.591411304E-07  0.00000E+00  9.000E+00
#rwgt            1           1   8.0436929194158874E-002           2      368045           0
</event>
<event>
      5   9999  3.79277E-02  3.33164E+01 -1.00000E+00  1.49943E-01
      21    -1     0     0   502   512  0.000000000E+00  0.000000000E+00  5.794639799E+01  5.794639799E+01  0.000000000E+00  0.00000E+00  9.000E+00
      21    -1     0     0   501   502  0.000000000E+00  0.000000000E+00 -1.357188214E+03  1.357188214E+03  0.000000000E+00  0.00000E+00  9.000E+00
      25     1     1     2     0     0 -7.851006339E+01 -1.569502951E+01 -1.095332331E+03  1.105345231E+03  1.250000000E+02  0.00000E+00  9.000E+00
      25     1     1     2     0     0  1.009824516E+02  4.029120625E+01 -2.178392088E+02  2.736782010E+02  1.250000000E+02  0.00000E+00  9.000E+00
      21     1     1     2   501   512 -2.247238820E+01 -2.459617674E+01  1.392972362E+01  3.611118029E+01  1.710975181E-06  0.00000E+00  9.000E+00
#rwgt            1           1   4.6546158466610955E-002           2      368238           0
</event>
<event>
      5   9999  3.79277E-02  2.28292E+01 -1.00000E+00  1.61764E-01
      21    -1     0     0   502   501  0.000000000E+00  0.000000000E+00  1.251401786E+02  1.251401786E+02  0.000000000E+00  0.00000E+00  9.000E+00
      21    -1     0     0   501   511  0.000000000E+00  0.000000000E+00 -7.638602853E+02  7.638602853E+02  0.000000000E+00  0.00000E+00  9.000E+00
      25     1     1     2     0     0  9.102348256E+01  8.528539846E+01  4.102906027E+01  1.812932910E+02  1.250000000E+02  0.00000E+00  9.000E+00
      25     1     1     2     0     0 -7.076548802E+01 -9.581084476E+01 -5.685971143E+02  5.942349289E+02  1.250000000E+02  0.00000E+00  9.000E+00
      21     1     1     2   502   511 -2.025799454E+01  1.052544630E+01 -1.111520527E+02  1.134722441E+02  0.000000000E+00  0.00000E+00  9.000E+00
#rwgt            1           1   4.8582770582416800E-002           2      368393           0
</event>
<event>
      5   9999  3.79277E-02  7.47945E+01 -1.00000E+00  1.29780E-01
      21    -1     0     0   512   501  0.000000000E+00  0.000000000E+00  6.867656902E+01  6.867656902E+01  0.000000000E+00  0.00000E+00  9.000E+00
      21    -1     0     0   501   502  0.000000000E+00  0.000000000E+00 -1.048986369E+03  1.048986369E+03  0.000000000E+00  0.00000E+00  9.000E+00
      25     1     1     2     0     0  4.258341062E+01  1.652902483E+02 -4.479854310E+02  4.954292678E+02  1.250000000E+02  0.00000E+00  9.000E+00
      25     1     1     2     0     0  2.850437703E+01 -1.885441471E+02 -4.786242166E+02  5.301580289E+02  1.250000000E+02  0.00000E+00  9.000E+00
      21     1     1     2   512   502 -7.108778765E+01  2.325389875E+01 -5.370015252E+01  9.207564141E+01  1.348699152E-06  0.00000E+00  9.000E+00
#rwgt            1           1   4.9473787193196138E-002           2      368579           0
</event>
<event>
      5   9999  3.79277E-02  2.76777E+01 -1.00000E+00  1.55511E-01
      21    -1     0     0   502   501  0.000000000E+00  0.000000000E+00  7.708266797E+02  7.708266797E+02  0.000000000E+00  0.00000E+00  9.000E+00
       3    -1     0     0   501     0  0.000000000E+00  0.000000000E+00 -6.568916759E+01  6.568916759E+01  0.000000000E+00  0.00000E+00  9.000E+00
      25     1     1     2     0     0  1.432913250E+02  6.769834215E+01  3.700324333E+02  4.215026347E+02  1.250000000E+02  0.00000E+00  9.000E+00
      25     1     1     2     0     0 -1.426682640E+02 -9.536905910E+01  3.183781065E+02  3.826736333E+02  1.250000000E+02  0.00000E+00  9.000E+00
       3     1     1     2   502     0 -6.230610016E-01  2.767071695E+01  1.672697224E+01  3.233957919E+01  6.307962682E-07  0.00000E+00  9.000E+00
#rwgt            1           1   3.9180142534961472E-002           2      368654           0
</event>
<event>
      5   9999  3.79277E-02  1.44361E+01 -1.00000E+00  1.78966E-01
      21    -1     0     0   511   501  0.000000000E+00  0.000000000E+00  3.558137876E+01  3.558137876E+01  0.000000000E+00  0.00000E+00  9.000E+00
      21    -1     0     0   501   502  0.000000000E+00  0.000000000E+00 -1.211044735E+03  1.211044735E+03  0.000000000E+00  0.00000E+00  9.000E+00
      25     1     1     2     0     0 -4.250856506E+00  1.379565558E+02 -6.638274535E+02  6.894504834E+02  1.250000000E+02  0.00000E+00  9.000E+00
      25     1     1     2     0     0 -3.857734641E-01 -1.516278395E+02 -5.037590173E+02  5.407303376E+02  1.250000000E+02  0.00000E+00  9.000E+00
      21     1     1     2   511   502  4.636629970E+00  1.367128371E+01 -7.876885946E+00  1.644529318E+01  0.000000000E+00  0.00000E+00  9.000E+00
#rwgt            1           1   2.9895161649869641E-002           2      368805           0
</event>
<event>
      5   9999  3.79277E-02  4.85050E+01 -1.00000E+00  1.39832E-01
      21    -1     0     0   502   512  0.000000000E+00  0.000000000E+00  5.555837796E+02  5.555837796E+02  0.000000000E+00  0.00000E+00  9.000E+00
      21    -1     0     0   501   502  0.000000000E+00  0.000000000E+00 -2.145620320E+02  2.145620320E+02  0.000000000E+00  0.00000E+00  9.000E+00
      25     1     1     2     0     0  2.513183185E+02  2.204927681E+01  3.092428218E+02  4.182142880E+02  1.250000000E+02  0.00000E+00  9.000E+00
      25     1     1     2     0     0 -2.270782355E+02 -6.406304864E+01 -3.510954408E+01  2.693070354E+02  1.250000000E+02  0.00000E+00  9.000E+00
      21     1     1     2   501   512 -2.424008301E+01  4.201377183E+01  6.688846984E+01  8.262448817E+01  9.536743164E-07  0.00000E+00  9.000E+00
#rwgt            1           1   3.2025064032121228E-002           2      368940           0
</event>
<event>
      5   9999  3.79277E-02  4.90450E+01 -1.00000E+00  1.39555E-01
      21    -1     0     0   511   501  0.000000000E+00  0.000000000E+00  1.182487785E+02  1.182487785E+02  0.000000000E+00  0.00000E+00  9.000E+00
      21    -1     0     0   501   502  0.000000000E+00  0.000000000E+00 -9.581919016E+02  9.581919016E+02  0.000000000E+00  0.00000E+00  9.000E+00
      25     1     1     2     0     0  5.709326014E+01 -1.725748411E+01 -6.554315402E+02  6.699051910E+02  1.250000000E+02  0.00000E+00  9.000E+00
      25     1     1     2     0     0 -1.055441304E+02  2.486832517E+01 -2.649170430E+02  3.123524240E+02  1.250000000E+02  0.00000E+00  9.000E+00
      21     1     1     2   511   502  4.845087024E+01 -7.610841065E+00  8.040546010E+01  9.418306505E+01  2.336015456E-06  0.00000E+00  9.000E+00
#rwgt            1           1   5.5248504601722238E-002           2      369273           0
</event>
<event>
      5   9999  3.79277E-02  3.59782E+01 -1.00000E+00  1.47753E-01
      21    -1     0     0   502   501  0.000000000E+00  0.000000000E+00  1.451290475E+02  1.451290475E+02  0.000000000E+00  0.00000E+00  9.000E+00
      21    -1     0     0   501   512  0.000000000E+00  0.000000000E+00 -3.337072144E+02  3.337072144E+02  0.000000000E+00  0.00000E+00  9.000E+00
      25     1     1     2     0     0  8.066742445E+01 -1.360723927E+02 -3.442078091E+01  2.045304857E+02  1.250000000E+02  0.00000E+00  9.000E+00
      25     1     1     2     0     0 -9.795219100E+01  1.045181886E+02 -1.376865964E+02  2.347366233E+02  1.250000000E+02  0.00000E+00  9.000E+00
      21     1     1     2   502   512  1.728476655E+01  3.155420411E+01 -1.647078959E+01  3.956915290E+01  4.129530925E-07  0.00000E+00  9.000E+00
#rwgt            1           1   2.8249547393019249E-002           2      369331           0
</event>
<event>
      5   9999  3.79277E-02  2.63450E+02 -1.00000E+00  1.07458E-01
      21    -1     0     0   511   501  0.000000000E+00  0.000000000E+00  5.339066536E+02  5.339066536E+02  0.000000000E+00  0.00000E+00  9.000E+00
      21    -1     0     0   501   502  0.000000000E+00  0.000000000E+00 -5.899872654E+02  5.899872654E+02  0.000000000E+00  0.00000E+00  9.000E+00
      25     1     1     2     0     0  8.620822140E+00  4.480882987E+02 -8.909474390E+01  4.737302138E+02  1.250000000E+02  0.00000E+00  9.000E+00
      25     1     1     2     0     0 -2.096851120E+02 -2.778558195E+02 -5.163725847E+01  3.734475988E+02  1.250000000E+02  0.00000E+00  9.000E+00
      21     1     1     2   511   502  2.010642898E+02 -1.702324793E+02  8.465139056E+01  2.767161064E+02  7.448434521E-06  0.00000E+00  9.000E+00
#rwgt            2          11   2.8254129282857792E-003           2      369586           0
</event>
<event>
      5   9999 -3.79277E-02  4.34567E+00 -1.00000E+00  2.55267E-01
      21    -1     0     0   502   501  0.000000000E+00  0.000000000E+00  1.043773077E+03  1.043773077E+03  0.000000000E+00  0.00000E+00  9.000E+00
      21    -1     0     0   501   512  0.000000000E+00  0.000000000E+00 -5.159288772E+02  5.159288772E+02  0.000000000E+00  0.00000E+00  9.000E+00
      25     1     1     2     0     0 -2.293896839E+02  1.983849530E+02  2.438701716E+02  4.087467153E+02  1.250000000E+02  0.00000E+00  9.000E+00
      25     1     1     2     0     0  2.304793031E+02 -2.025917981E+02  6.791961074E+02  7.557092682E+02  1.250000000E+02  0.00000E+00  9.000E+00
      21     1     1     2   502   512 -1.089619174E+00  4.206845128E+00 -3.952220796E+02  3.952459703E+02  7.629394531E-06  0.00000E+00  9.000E+00
#rwgt            1           1 -0.12269512242541102                2      369636           0
</event>
<event>
      5   9999  3.79277E-02  1.77405E+01 -1.00000E+00  1.70783E-01
      21    -1     0     0   502   501  0.000000000E+00  0.000000000E+00  1.041999335E+02  1.041999335E+02  0.000000000E+00  0.00000E+00  9.000E+00
      21    -1     0     0   511   502  0.000000000E+00  0.000000000E+00 -4.427339617E+02  4.427339617E+02  0.000000000E+00  0.00000E+00  9.000E+00
      25     1     1     2     0     0  2.948818676E+01 -1.125443920E+02 -2.046408442E+02  2.665308021E+02  1.250000000E+02  0.00000E+00  9.000E+00
      25     1     1     2     0     0 -4.426440933E+01  1.223621035E+02 -3.995694600E+01  1.848063306E+02  1.250000000E+02  0.00000E+00  9.000E+00
      21     1     1     2   511   501  1.477622257E+01 -9.817711469E+00 -9.393623795E+01  9.559676256E+01  0.000000000E+00  0.00000E+00  9.000E+00
#rwgt            1           1   4.2855189488337581E-002           2      370092           0
</event>
<event>
      5   9999  3.79277E-02  3.76782E+02 -1.00000E+00  1.02473E-01
       5    -1     0     0   502     0  0.000000000E+00  0.000000000E+00  8.177691854E+02  8.177691854E+02  0.000000000E+00  0.00000E+00  9.000E+00
      21    -1     0     0   501   502  0.000000000E+00  0.000000000E+00 -1.857137948E+03  1.857137948E+03  0.000000000E+00  0.00000E+00  9.000E+00
      25     1     1     2     0     0 -9.281032037E+01 -3.301892791E+01 -1.685187161E+03  1.692685668E+03  1.250000000E+02  0.00000E+00  9.000E+00
      25     1     1     2     0     0 -2.237235132E+02  2.373976011E+02  2.163649509E+02  4.109119411E+02  1.250000000E+02  0.00000E+00  9.000E+00
       5     1     1     2   501     0  3.165338335E+02 -2.043786732E+02  4.294534468E+02  5.713095245E+02  1.206313194E-05  0.00000E+00  9.000E+00
#rwgt            2          21   1.0414718436409626E-005           2      370361           0
</event>
<event>
      5   9999  3.79277E-02  1.05988E+02 -1.00000E+00  1.22702E-01
      21    -1     0     0   502   501  0.000000000E+00  0.000000000E+00  2.118614880E+02  2.118614880E+02  0.000000000E+00  0.00000E+00  9.000E+00
      21    -1     0     0   511   502  0.000000000E+00  0.000000000E+00 -3.882842559E+02  3.882842559E+02  0.000000000E+00  0.00000E+00  9.000E+00
      25     1     1     2     0     0  5.507674345E+01 -2.167640333E+02  4.203710571E+00  2.562474682E+02  1.250000000E+02  0.00000E+00  9.000E+00
      25     1     1     2     0     0 -6.426675042E+01  1.111750968E+02 -7.501317333E+01  1.942732445E+02  1.250000000E+02  0.00000E+00  9.000E+00
      21     1     1     2   511   501  9.190006973E+00  1.055889364E+02 -1.056133051E+02  1.496250312E+02  0.000000000E+00  0.00000E+00  9.000E+00
#rwgt            1           1   4.3330082905172145E-002           2      370575           0
</event>
<event>
      5   9999  3.79277E-02  8.34391E+01 -1.00000E+00  1.27471E-01
      21    -1     0     0   502   501  0.000000000E+00  0.000000000E+00  1.525617277E+02  1.525617277E+02  0.000000000E+00  0.00000E+00  9.000E+00
      21    -1     0     0   512   502  0.000000000E+00  0.000000000E+00 -4.712993781E+02  4.712993781E+02  0.000000000E+00  0.00000E+00  9.000E+00
      25     1     1     2     0     0  3.810234308E+01 -9.642962865E+01 -3.061999864E+02  3.466033662E+02  1.250000000E+02  0.00000E+00  9.000E+00
      25     1     1     2     0     0  8.309775864E+00  2.708991316E+01  8.122768167E+01  1.517427166E+02  1.250000000E+02  0.00000E+00  9.000E+00
      21     1     1     2   512   501 -4.641211894E+01  6.933971549E+01 -9.376534575E+01  1.255150230E+02  1.907348633E-06  0.00000E+00  9.000E+00
#rwgt            1           1   3.8535803255311508E-002           2      370713           0
</event>
<event>
      5   9999  3.79277E-02  1.13622E+01 -1.00000E+00  1.89557E-01
      21    -1     0     0   502   501  0.000000000E+00  0.000000000E+00  1.301559703E+02  1.301559703E+02  0.000000000E+00  0.00000E+00  9.000E+00
      21    -1     0     0   501   511  0.000000000E+00  0.000000000E+00 -1.561000407E+03  1.561000407E+03  0.000000000E+00  0.00000E+00  9.000E+00
      25     1     1     2     0     0  1.305851874E+02  1.681826731E+01  1.454789895E+01  1.821317837E+02  1.250000000E+02  0.00000E+00  9.000E+00
      25     1     1     2     0     0 -1.384895858E+02 -8.656153064E+00 -2.425113027E+02  3.060898991E+02  1.250000000E+02  0.00000E+00  9.000E+00
      21     1     1     2   502   511  7.904398436E+00 -8.162114247E+00 -1.202881033E+03  1.202934694E+03  0.000000000E+00  0.00000E+00  9.000E+00
#rwgt            1           1   3.4743976803080646E-002           2      370826           0
</event>
<event>
      5   9999  3.79277E-02  3.40977E+01 -1.00000E+00  1.49276E-01
      21    -1     0     0   502   501  0.000000000E+00  0.000000000E+00  3.798503105E+02  3.798503105E+02  0.000000000E+00  0.00000E+00  9.000E+00
      21    -1     0     0   512   502  0.000000000E+00  0.000000000E+00 -6.250857886E+02  6.250857886E+02  0.000000000E+00  0.00000E+00  9.000E+00
      25     1     1     2     0     0 -6.855559793E+01 -5.819840136E+01 -4.974445132E+01  1.618222308E+02  1.250000000E+02  0.00000E+00  9.000E+00
      25     1     1     2     0     0  5.706647666E+01  2.609458294E+01  3.081046459E+02  3.383651620E+02  1.250000000E+02  0.00000E+00  9.000E+00
      21     1     1     2   512   501  1.148912127E+01  3.210381843E+01 -5.035956727E+02  5.047487064E+02  0.000000000E+00  0.00000E+00  9.000E+00
#rwgt            1           1   4.5350284031638669E-002           2      371071           0
</event>
<event>
      5   9999  3.79277E-02  5.21154E+01 -1.00000E+00  1.38056E-01
      21    -1     0     0   502   511  0.000000000E+00  0.000000000E+00  1.792229058E+03  1.792229058E+03  0.000000000E+00  0.00000E+00  9.000E+00
      21    -1     0     0   501   502  0.000000000E+00  0.000000000E+00 -1.786767930E+02  1.786767930E+02  0.000000000E+00  0.00000E+00  9.000E+00
      25     1     1     2     0     0 -4.132169839E+01 -2.128989978E+02 -4.867478386E+01  2.550052952E+02  1.250000000E+02  0.00000E+00  9.000E+00
      25     1     1     2     0     0  2.603220605E+01  1.630768436E+02  3.813503618E+02  4.339640897E+02  1.250000000E+02  0.00000E+00  9.000E+00
      21     1     1     2   501   511  1.528949234E+01  4.982215417E+01  1.280876687E+03  1.281936466E+03  2.157918644E-05  0.00000E+00  9.000E+00
#rwgt            1           1   6.6680346337432139E-002           2      371206           0
</event>
<event>
      5   9999  3.79277E-02  2.61584E+02 -1.00000E+00  1.07562E-01
      21    -1     0     0   502   501  0.000000000E+00  0.000000000E+00  2.847470737E+02  2.847470737E+02  0.000000000E+00  0.00000E+00  9.000E+00
       3    -1     0     0   501     0  0.000000000E+00  0.000000000E+00 -1.065557860E+03  1.065557860E+03  0.000000000E+00  0.00000E+00  9.000E+00
      25     1     1     2     0     0 -1.143052552E+01  8.782236390E+01  8.487589183E+01  1.751352093E+02  1.250000000E+02  0.00000E+00  9.000E+00
      25     1     1     2     0     0 -2.130898911E+02 -2.220491540E+02 -7.253989872E+01  3.400002432E+02  1.250000000E+02  0.00000E+00  9.000E+00
       3     1     1     2   502     0  2.245204166E+02  1.342267901E+02 -7.931467797E+02  8.351694815E+02  1.078959322E-05  0.00000E+00  9.000E+00
#rwgt            1           1   3.4956518861883334E-002           2      371304           0
</event>
<event>
      5   9999  3.79277E-02  1.85037E+02 -1.00000E+00  1.12891E-01
      21    -1     0     0   511   501  0.000000000E+00  0.000000000E+00  1.820026575E+02  1.820026575E+02  0.000000000E+00  0.00000E+00  9.000E+00
      21    -1     0     0   501   502  0.000000000E+00  0.000000000E+00 -1.278321634E+03  1.278321634E+03  0.000000000E+00  0.00000E+00  9.000E+00
      25     1     1     2     0     0  1.208336810E+01  2.327877826E+01 -9.333164563E+02  9.420151362E+02  1.250000000E+02  0.00000E+00  9.000E+00
      25     1     1     2     0     0 -1.754056376E+02 -1.102541017E+02 -2.175636521E+02  3.253952172E+02  1.250000000E+02  0.00000E+00  9.000E+00
      21     1     1     2   511   502  1.633222695E+02  8.697532346E+01  5.456113145E+01  1.929139385E+02  5.436780096E-06  0.00000E+00  9.000E+00
#rwgt            2          11   2.6598689710223521E-003           2      371513           0
</event>
<event>
      5   9999  3.79277E-02  3.02834E+00 -1.00000E+00  2.95635E-01
      21    -1     0     0   502   501  0.000000000E+00  0.000000000E+00  2.036256044E+02  2.036256044E+02  0.000000000E+00  0.00000E+00  9.000E+00
      21    -1     0     0   512   502  0.000000000E+00  0.000000000E+00 -2.216032195E+02  2.216032195E+02  0.000000000E+00  0.00000E+00  9.000E+00
      25     1     1     2     0     0 -7.789186488E+01  1.421052089E+02  3.752764868E+01  2.080729618E+02  1.250000000E+02  0.00000E+00  9.000E+00
      25     1     1     2     0     0  8.063948737E+01 -1.408318568E+02 -4.997799535E+01  2.108533586E+02  1.250000000E+02  0.00000E+00  9.000E+00
      21     1     1     2   512   501 -2.747622493E+00 -1.273352180E+00 -5.527268445E+00  6.302503598E+00  8.429369702E-08  0.00000E+00  9.000E+00
#rwgt            1           1   3.7083252106372040E-002           2      371533           0
</event>
<event>
      5   9999  3.79277E-02  3.37067E+01 -1.00000E+00  1.49607E-01
      21    -1     0     0   511   501  0.000000000E+00  0.000000000E+00  2.936717249E+02  2.936717249E+02  0.000000000E+00  0.00000E+00  9.000E+00
      21    -1     0     0   501   502  0.000000000E+00  0.000000000E+00 -2.096469701E+02  2.096469701E+02  0.000000000E+00  0.00000E+00  9.000E+00
      25     1     1     2     0     0 -1.753751657E+01  1.750988989E+02 -4.177920389E+01  2.198583425E+02  1.250000000E+02  0.00000E+00  9.000E+00
      25     1     1     2     0     0 -1.587454491E+01 -1.795459328E+02  1.003015429E+02  2.411931646E+02  1.250000000E+02  0.00000E+00  9.000E+00
      21     1     1     2   511   502  3.341206148E+01  4.447033884E+00  2.550241578E+01  4.226718791E+01  8.920806376E-07  0.00000E+00  9.000E+00
#rwgt            1           1   3.9657558023207716E-002           2      372083           0
</event>
<event>
      5   9999  3.79277E-02  1.81190E+01 -1.00000E+00  1.69988E-01
      21    -1     0     0   502   501  0.000000000E+00  0.000000000E+00  5.603429746E+02  5.603429746E+02  0.000000000E+00  0.00000E+00  9.000E+00
      21    -1     0     0   501   512  0.000000000E+00  0.000000000E+00 -1.476434443E+02  1.476434443E+02  0.000000000E+00  0.00000E+00  9.000E+00
      25     1     1     2     0     0 -2.004818185E+02  3.376704853E+00  3.615663362E+02  4.319254301E+02  1.250000000E+02  0.00000E+00  9.000E+00
      25     1     1     2     0     0  1.952274422E+02 -2.071711617E+01  7.640891737E+01  2.449617843E+02  1.250000000E+02  0.00000E+00  9.000E+00
      21     1     1     2   502   512  5.254376281E+00  1.734041132E+01 -2.527572328E+01  3.109920452E+01  0.000000000E+00  0.00000E+00  9.000E+00
#rwgt            1           1  0.10229067388466294                2      372209           0
</event>
<event>
      5   9999  3.79277E-02  4.33154E+00 -1.00000E+00  2.55579E-01
      21    -1     0     0   502   511  0.000000000E+00  0.000000000E+00  1.115610657E+02  1.115610657E+02  0.000000000E+00  0.00000E+00  9.000E+00
      21    -1     0     0   501   502  0.000000000E+00  0.000000000E+00 -3.104878941E+02  3.104878941E+02  0.000000000E+00  0.00000E+00  9.000E+00
      25     1     1     2     0     0 -5.501283838E+01 -1.089513724E+02 -4.388618207E+01  1.801327591E+02  1.250000000E+02  0.00000E+00  9.000E+00
      25     1     1     2     0     0  5.251958582E+01  1.054093512E+02 -1.604207967E+02  2.350090854E+02  1.250000000E+02  0.00000E+00  9.000E+00
      21     1     1     2   501   511  2.493252557E+00  3.542021174E+00  5.380150348E+00  6.907115178E+00  8.429369702E-08  0.00000E+00  9.000E+00
#rwgt            1           1   4.6832303154108197E-002           2      372408           0
</event>
<event>
      5   9999  3.79277E-02  5.61566E+00 -1.00000E+00  2.30032E-01
      21    -1     0     0   502   501  0.000000000E+00  0.000000000E+00  8.100556703E+02  8.100556703E+02  0.000000000E+00  0.00000E+00  9.000E+00
      21    -1     0     0   512   502  0.000000000E+00  0.000000000E+00 -6.724645555E+01  6.724645555E+01  0.000000000E+00  0.00000E+00  9.000E+00
      25     1     1     2     0     0 -8.681817991E+01 -7.447763913E+01  1.032964710E+02  1.984426265E+02  1.250000000E+02  0.00000E+00  9.000E+00
      25     1     1     2     0     0  8.893967995E+01  6.927812897E+01  6.475410222E+02  6.690621057E+02  1.250000000E+02  0.00000E+00  9.000E+00
      21     1     1     2   512   501 -2.121500043E+00  5.199510154E+00 -8.028278433E+00  9.797393677E+00  2.064765462E-07  0.00000E+00  9.000E+00
#rwgt            1           1   2.9733328954127607E-002           2      372729           0
</event>
<event>
      5   9999  3.79277E-02  1.26220E+01 -1.00000E+00  1.84750E-01
      21    -1     0     0   502   501  0.000000000E+00  0.000000000E+00  1.667290480E+02  1.667290480E+02  0.000000000E+00  0.00000E+00  9.000E+00
      21    -1     0     0   501   511  0.000000000E+00  0.000000000E+00 -8.599546478E+02  8.599546478E+02  0.000000000E+00  0.00000E+00  9.000E+00
      25     1     1     2     0     0 -2.044735827E+02 -6.171749071E+01 -2.617287585E+02  3.602019402E+02  1.250000000E+02  0.00000E+00  9.000E+00
      25     1     1     2     0     0  2.168618965E+02  6.413482128E+01 -2.479125875E+01  2.595803613E+02  1.250000000E+02  0.00000E+00  9.000E+00
      21     1     1     2   502   511 -1.238831380E+01 -2.417330567E+00 -4.067055826E+02  4.069013943E+02  7.629394531E-06  0.00000E+00  9.000E+00
#rwgt            1           1   3.8887839093162027E-002           2      373062           0
</event>
<event>
      5   9999  3.79277E-02  2.96872E+01 -1.00000E+00  1.53357E-01
      -3    -1     0     0     0   501  0.000000000E+00  0.000000000E+00  1.597103586E+02  1.597103586E+02  0.000000000E+00  0.00000E+00  9.000E+00
      21    -1     0     0   501   502  0.000000000E+00  0.000000000E+00 -5.741658012E+02  5.741658012E+02  0.000000000E+00  0.00000E+00  9.000E+00
      25     1     1     2     0     0  2.036725329E+02  9.454697638E+01 -2.263985041E+02  3.424951300E+02  1.250000000E+02  0.00000E+00  9.000E+00
      25     1     1     2     0     0 -1.846550088E+02 -7.175081481E+01 -2.375815999E+02  3.336400280E+02  1.250000000E+02  0.00000E+00  9.000E+00
      -3     1     1     2     0   502 -1.901752413E+01 -2.279616156E+01  4.952466142E+01  5.774100185E+01  6.743495762E-07  0.00000E+00  9.000E+00
#rwgt            1           1   3.0951840789009942E-002           2      373355           0
</event>
<event>
      5   9999  3.79277E-02  3.89048E+01 -1.00000E+00  1.45592E-01
      21    -1     0     0   511   501  0.000000000E+00  0.000000000E+00  6.931278437E+01  6.931278437E+01  0.000000000E+00  0.00000E+00  9.000E+00
      21    -1     0     0   501   502  0.000000000E+00  0.000000000E+00 -1.545231544E+03  1.545231544E+03  0.000000000E+00  0.00000E+00  9.000E+00
      25     1     1     2     0     0 -8.881399885E+01 -1.557048223E+02 -8.637333285E+02  8.909501562E+02  1.250000000E+02  0.00000E+00  9.000E+00
      25     1     1     2     0     0  5.947081887E+01  1.301595315E+02 -6.451828903E+02  6.725802881E+02  1.250000000E+02  0.00000E+00  9.000E+00
      21     1     1     2   511   502  2.934317998E+01  2.554529079E+01  3.299745898E+01  5.101388431E+01  1.966049969E-06  0.00000E+00  9.000E+00
#rwgt            1           1   4.3270609036920683E-002           2      373507           0
</event>
<event>
      5   9999  3.79277E-02  9.16877E+01 -1.00000E+00  1.25547E-01
      21    -1     0     0   502   501  0.000000000E+00  0.000000000E+00  1.169283861E+02  1.169283861E+02  0.000000000E+00  0.00000E+00  9.000E+00
       2    -1     0     0   501     0  0.000000000E+00  0.000000000E+00 -1.215044759E+03  1.215044759E+03  0.000000000E+00  0.00000E+00  9.000E+00
      25     1     1     2     0     0 -2.788528808E+00  1.806878783E+02 -2.420916604E+01  2.210587455E+02  1.250000000E+02  0.00000E+00  9.000E+00
      25     1     1     2     0     0  5.776698843E+01 -1.073120829E+02 -4.970812929E+02  5.268469605E+02  1.250000000E+02  0.00000E+00  9.000E+00
       2     1     1     2   502     0 -5.497845962E+01 -7.337579538E+01 -5.768259137E+02  5.840674388E+02  7.629394531E-06  0.00000E+00  9.000E+00
#rwgt            1           1   3.6415051159489231E-002           2      373655           0
</event>
<event>
      5   9999  3.79277E-02  1.80727E+02 -1.00000E+00  1.13274E-01
      21    -1     0     0   502   501  0.000000000E+00  0.000000000E+00  5.574114603E+02  5.574114603E+02  0.000000000E+00  0.00000E+00  9.000E+00
      21    -1     0     0   511   502  0.000000000E+00  0.000000000E+00 -2.086679240E+03  2.086679240E+03  0.000000000E+00  0.00000E+00  9.000E+00
      25     1     1     2     0     0  3.204571356E+01 -1.541993925E+02  4.486458642E+02  4.916426466E+02  1.250000000E+02  0.00000E+00  9.000E+00
      25     1     1     2     0     0  1.182921719E+02  5.389636231E+01 -1.470618496E+01  1.809395692E+02  1.250000000E+02  0.00000E+00  9.000E+00
      21     1     1     2   511   501 -1.503378855E+02  1.003030302E+02 -1.963207459E+03  1.971508484E+03  3.051757812E-05  0.00000E+00  9.000E+00
#rwgt            1           1   4.2768882575639350E-002           2      373800           0
</event>
<event>
      5   9999  3.79277E-02  8.14773E+01 -1.00000E+00  1.27966E-01
      21    -1     0     0   502   501  0.000000000E+00  0.000000000E+00  1.298374275E+02  1.298374275E+02  0.000000000E+00  0.00000E+00  9.000E+00
       2    -1     0     0   501     0  0.000000000E+00  0.000000000E+00 -2.397285094E+03  2.397285094E+03  0.000000000E+00  0.00000E+00  9.000E+00
      25     1     1     2     0     0 -4.106014309E+02  2.565314781E+01 -4.519171142E+02  6.237833736E+02  1.250000000E+02  0.00000E+00  9.000E+00
      25     1     1     2     0     0  3.623621657E+02  4.000905117E+01 -8.375041226E+02  9.219247359E+02  1.250000000E+02  0.00000E+00  9.000E+00
       2     1     1     2   502     0  4.823926524E+01 -6.566219898E+01 -9.780264299E+02  9.814144123E+02  0.000000000E+00  0.00000E+00  9.000E+00
#rwgt            1           1   4.2164236349045266E-002           2      373866           0
</event>
<event>
      5   9999  3.79277E-02  1.05455E+01 -1.00000E+00  1.93128E-01
      21    -1     0     0   511   501  0.000000000E+00  0.000000000E+00  3.502905694E+01  3.502905694E+01  0.000000000E+00  0.00000E+00  9.000E+00
      21    -1     0     0   501   502  0.000000000E+00  0.000000000E+00 -1.708905998E+03  1.708905998E+03  0.000000000E+00  0.00000E+00  9.000E+00
      25     1     1     2     0     0  1.750386501E+02  3.093721647E+01 -4.857204274E+02  5.321136852E+02  1.250000000E+02  0.00000E+00  9.000E+00
      25     1     1     2     0     0 -1.678145468E+02 -3.861963444E+01 -1.178390917E+03  1.197448684E+03  1.250000000E+02  0.00000E+00  9.000E+00
      21     1     1     2   511   502 -7.224103281E+00  7.682417966E+00 -9.765597333E+00  1.437268608E+01  1.192092896E-07  0.00000E+00  9.000E+00
#rwgt            1           1   3.6849342932257889E-002           2      374080           0
</event>
<event>
      5   9999  3.79277E-02  1.08637E+02 -1.00000E+00  1.22231E-01
      21    -1     0     0   502   512  0.000000000E+00  0.000000000E+00  1.939939559E+02  1.939939559E+02  0.000000000E+00  0.00000E+00  9.000E+00
      21    -1     0     0   501   502  0.000000000E+00  0.000000000E+00 -6.208719683E+02  6.208719683E+02  0.000000000E+00  0.00000E+00  9.000E+00
      25     1     1     2     0     0 -9.829466149E+01  1.547638675E+02  5.591351848E+01  2.288340375E+02  1.250000000E+02  0.00000E+00  9.000E+00
      25     1     1     2     0     0  3.468255479E+01 -6.669879434E+01 -4.492470016E+02  4.723340738E+02  1.250000000E+02  0.00000E+00  9.000E+00
      21     1     1     2   501   512  6.361210670E+01 -8.806507312E+01 -3.354452933E+01  1.136978130E+02  4.768371582E-07  0.00000E+00  9.000E+00
#rwgt            1           1   4.0923623571743402E-002           2      374342           0
</event>
<event>
      5   9999  3.79277E-02  1.36682E+01 -1.00000E+00  1.81274E-01
      21    -1     0     0   511   501  0.000000000E+00  0.000000000E+00  6.495732422E+01  6.495732422E+01  0.000000000E+00  0.00000E+00  9.000E+00
      21    -1     0     0   501   502  0.000000000E+00  0.000000000E+00 -1.853187447E+03  1.853187447E+03  0.000000000E+00  0.00000E+00  9.000E+00
      25     1     1     2     0     0 -1.097876959E+02  7.659912886E+01 -5.314969960E+02  5.621697443E+02  1.250000000E+02  0.00000E+00  9.000E+00
      25     1     1     2     0     0  1.234105062E+02 -7.771238943E+01 -1.298190043E+03  1.312323038E+03  1.250000000E+02  0.00000E+00  9.000E+00
      21     1     1     2   511   502 -1.362281030E+01  1.113260571E+00  4.145691571E+01  4.365198930E+01  1.651812370E-06  0.00000E+00  9.000E+00
#rwgt            1           1  0.13302125651921787                2      374452           0
</event>
<event>
      5   9999  3.79277E-02  2.43698E+01 -1.00000E+00  1.59586E-01
      21    -1     0     0   502   501  0.000000000E+00  0.000000000E+00  1.010504095E+03  1.010504095E+03  0.000000000E+00  0.00000E+00  9.000E+00
      21    -1     0     0   512   502  0.000000000E+00  0.000000000E+00 -2.656891648E+03  2.656891648E+03  0.000000000E+00  0.00000E+00  9.000E+00
      25     1     1     2     0     0 -1.914636274E+02 -5.632400728E+01  4.835617479E+02  5.378547001E+02  1.250000000E+02  0.00000E+00  9.000E+00
      25     1     1     2     0     0  1.767494069E+02  7.575030516E+01  4.734233659E+02  5.260543175E+02  1.250000000E+02  0.00000E+00  9.000E+00
      21     1     1     2   512   501  1.471422045E+01 -1.942629787E+01 -2.603372667E+03  2.603486726E+03  4.315837288E-05  0.00000E+00  9.000E+00
#rwgt            1           1   4.2352436885809919E-002           2      374632           0
</event>
<event>
      5   9999  3.79277E-02  1.10001E+02 -1.00000E+00  1.21994E-01
      21    -1     0     0   502   511  0.000000000E+00  0.000000000E+00  5.904485380E+02  5.904485380E+02  0.000000000E+00  0.00000E+00  9.000E+00
      21    -1     0     0   501   502  0.000000000E+00  0.000000000E+00 -2.058432131E+02  2.058432131E+02  0.000000000E+00  0.00000E+00  9.000E+00
      25     1     1     2     0     0 -1.227822300E+02 -1.581394738E+02  1.098988389E+02  2.603580687E+02  1.250000000E+02  0.00000E+00  9.000E+00
      25     1     1     2     0     0  2.177478988E+02  2.136533308E+02  1.305102617E+02  3.545699108E+02  1.250000000E+02  0.00000E+00  9.000E+00
      21     1     1     2   501   511 -9.496566875E+01 -5.551385709E+01  1.441962243E+02  1.813637716E+02  1.907348633E-06  0.00000E+00  9.000E+00
#rwgt            1           1   4.8330885971283592E-002           2      374820           0
</event>
<event>
      5   9999  3.79277E-02  9.82408E+01 -1.00000E+00  1.24176E-01
      -4    -1     0     0     0   501  0.000000000E+00  0.000000000E+00  3.655795015E+02  3.655795015E+02  0.000000000E+00  0.00000E+00  9.000E+00
      21    -1     0     0   501   502  0.000000000E+00  0.000000000E+00 -4.878570751E+02  4.878570751E+02  0.000000000E+00  0.00000E+00  9.000E+00
      25     1     1     2     0     0 -7.954693784E+01 -8.125271732E+01 -4.786909291E+01  1.756307759E+02  1.250000000E+02  0.00000E+00  9.000E+00
      25     1     1     2     0     0  9.513038033E+01  1.782496737E+02 -3.284830383E+02  4.053996076E+02  1.250000000E+02  0.00000E+00  9.000E+00
      -4     1     1     2     0   502 -1.558344249E+01 -9.699695633E+01  2.540745576E+02  2.724061931E+02  0.000000000E+00  0.00000E+00  9.000E+00
#rwgt            1           1   4.1921281133575281E-002           2      374914           0
</event>
<event>
      5   9999  3.79277E-02  1.23751E+02 -1.00000E+00  1.19804E-01
      21    -1     0     0   502   501  0.000000000E+00  0.000000000E+00  6.602864108E+01  6.602864108E+01  0.000000000E+00  0.00000E+00  9.000E+00
      21    -1     0     0   501   511  0.000000000E+00  0.000000000E+00 -3.284367332E+03  3.284367332E+03  0.000000000E+00  0.00000E+00  9.000E+00
      25     1     1     2     0     0 -2.639886073E+02  7.305593815E+01 -1.296408020E+03  1.330911683E+03  1.250000000E+02  0.00000E+00  9.000E+00
      25     1     1     2     0     0  1.407840268E+02 -6.144356822E+01 -1.637998357E+02  2.570035806E+02  1.250000000E+02  0.00000E+00  9.000E+00
      21     1     1     2   502   511  1.232045805E+02 -1.161236993E+01 -1.758130835E+03  1.762480709E+03  2.157918644E-05  0.00000E+00  9.000E+00
#rwgt            1           1   3.2351370752215121E-002           2      375059           0
</event>
<event>
      5   9999  3.79277E-02  3.15375E+01 -1.00000E+00  1.51547E-01
      21    -1     0     0   502   501  0.000000000E+00  0.000000000E+00  4.939407936E+02  4.939407936E+02  0.000000000E+00  0.00000E+00  9.000E+00
      21    -1     0     0   512   502  0.000000000E+00  0.000000000E+00 -8.750073715E+01  8.750073715E+01  0.000000000E+00  0.00000E+00  9.000E+00
      25     1     1     2     0     0  5.905172110E+01 -1.462392710E+02  2.068409317E+02  2.885848249E+02  1.250000000E+02  0.00000E+00  9.000E+00
      25     1     1     2     0     0 -3.320412927E+01  1.281695086E+02  1.779774304E+02  2.546191329E+02  1.250000000E+02  0.00000E+00  9.000E+00
      21     1     1     2   512   501 -2.584759183E+01  1.806976239E+01  2.162169440E+01  3.823757295E+01  4.129530925E-07  0.00000E+00  9.000E+00
#rwgt            1           1   3.0506228562611835E-002           2      375117           0
</event>
<event>
      5   9999  3.79277E-02  2.14806E+01 -1.00000E+00  1.63850E-01
      21    -1     0     0   502   511  0.000000000E+00  0.000000000E+00  1.617772840E+02  1.617772840E+02  0.000000000E+00  0.00000E+00  9.000E+00
      21    -1     0     0   501   502  0.000000000E+00  0.000000000E+00 -8.835894938E+02  8.835894938E+02  0.000000000E+00  0.00000E+00  9.000E+00
      25     1     1     2     0     0 -1.838958647E+01 -7.915440344E+01 -8.232744896E+02  8.366656929E+02  1.250000000E+02  0.00000E+00  9.000E+00
      25     1     1     2     0     0  6.059170739E-02  9.035538502E+01  6.715246003E+01  1.682217351E+02  1.250000000E+02  0.00000E+00  9.000E+00
      21     1     1     2   501   511  1.832899476E+01 -1.120098158E+01  3.430981966E+01  4.047934983E+01  1.066240300E-06  0.00000E+00  9.000E+00
#rwgt            1           1   4.6623815010001686E-002           2      375315           0
</event>
<event>
      5   9999  3.79277E-02  5.61133E+01 -1.00000E+00  1.36276E-01
      21    -1     0     0   512   501  0.000000000E+00  0.000000000E+00  9.498870016E+02  9.498870016E+02  0.000000000E+00  0.00000E+00  9.000E+00
      21    -1     0     0   501   502  0.000000000E+00  0.000000000E+00 -1.790527963E+02  1.790527963E+02  0.000000000E+00  0.00000E+00  9.000E+00
      25     1     1     2     0     0  1.322099588E+02  6.829215083E+01  1.265365687E+02  2.319047095E+02  1.250000000E+02  0.00000E+00  9.000E+00
      25     1     1     2     0     0 -1.266033973E+02 -1.241246853E+02 -3.123921011E+01  2.191717270E+02  1.250000000E+02  0.00000E+00  9.000E+00
      21     1     1     2   512   502 -5.606561562E+00  5.583253443E+01  6.755368467E+02  6.778633613E+02  7.629394531E-06  0.00000E+00  9.000E+00
#rwgt            1           1   3.7331789020247093E-002           2      375589           0
</event>
<event>
      5   9999  3.79277E-02  8.24390E+01 -1.00000E+00  1.27721E-01
       2    -1     0     0   502     0  0.000000000E+00  0.000000000E+00  1.756192261E+02  1.756192261E+02  0.000000000E+00  0.00000E+00  9.000E+00
      21    -1     0     0   501   502  0.000000000E+00  0.000000000E+00 -4.105505970E+02  4.105505970E+02  0.000000000E+00  0.00000E+00  9.000E+00
      25     1     1     2     0     0 -1.462765109E+02  2.231398091E+01 -1.587578384E+02  2.504471654E+02  1.250000000E+02  0.00000E+00  9.000E+00
      25     1     1     2     0     0  1.333353995E+02 -1.037308779E+02  1.757296353E+01  2.108844063E+02  1.250000000E+02  0.00000E+00  9.000E+00
       2     1     1     2   501     0  1.294111141E+01  8.141689699E+01 -9.374649608E+01  1.248382514E+02  1.907348633E-06  0.00000E+00  9.000E+00
#rwgt            1           1   3.8563923797390993E-002           2      375663           0
</event>
<event>
      5   9999  3.79277E-02  1.37026E+01 -1.00000E+00  1.81166E-01
      21    -1     0     0   502   511  0.000000000E+00  0.000000000E+00  2.661177774E+02  2.661177774E+02  0.000000000E+00  0.00000E+00  9.000E+00
      21    -1     0     0   501   502  0.000000000E+00  0.000000000E+00 -3.703426719E+02  3.703426719E+02  0.000000000E+00  0.00000E+00  9.000E+00
      25     1     1     2     0     0 -5.121989893E+01 -2.133210115E+02  1.266189893E+02  2.824653969E+02  1.250000000E+02  0.00000E+00  9.000E+00
      25     1     1     2     0     0  4.862714820E+01  1.998658959E+02 -2.380340012E+02  3.385205483E+02  1.250000000E+02  0.00000E+00  9.000E+00
      21     1     1     2   501   511  2.592750729E+00  1.345511557E+01  7.190117395E+00  1.547450418E+01  1.460009660E-07  0.00000E+00  9.000E+00
#rwgt            1           1   3.9013299007144099E-002           2      375798           0
</event>
<event>
      5   9999  3.79277E-02  8.40878E+01 -1.00000E+00  1.27311E-01
       2    -1     0     0   502     0  0.000000000E+00  0.000000000E+00  3.989390183E+03  3.989390183E+03  0.000000000E+00  0.00000E+00  9.000E+00
      21    -1     0     0   501   502  0.000000000E+00  0.000000000E+00 -1.631633505E+02  1.631633505E+02  0.000000000E+00  0.00000E+00  9.000E+00
      25     1     1     2     0     0  5.426534942E+01 -3.926832918E+01 -8.411970542E+01  1.648874000E+02  1.250000000E+02  0.00000E+00  9.000E+00
      25     1     1     2     0     0 -2.574337556E+01 -3.983446835E+01  7.878583130E+01  1.551828388E+02  1.250000000E+02  0.00000E+00  9.000E+00
       2     1     1     2   501     0 -2.852197386E+01  7.910279754E+01  3.831560707E+03  3.832483295E+03  7.475249459E-05  0.00000E+00  9.000E+00
#rwgt            1           1   4.3464167436280982E-002           2      376134           0
</event>
<event>
      5   9999  3.79277E-02  5.49246E+01 -1.00000E+00  1.36787E-01
      21    -1     0     0   502   501  0.000000000E+00  0.000000000E+00  1.428652283E+02  1.428652283E+02  0.000000000E+00  0.00000E+00  9.000E+00
       2    -1     0     0   501     0  0.000000000E+00  0.000000000E+00 -8.649331934E+02  8.649331934E+02  0.000000000E+00  0.00000E+00  9.000E+00
      25     1     1     2     0     0  1.161980157E+02 -9.682260131E+01 -2.165733779E+01  1.974098155E+02  1.250000000E+02  0.00000E+00  9.000E+00
      25     1     1     2     0     0 -9.001772373E+01  1.451062302E+02 -1.552360302E+02  2.624542507E+02  1.250000000E+02  0.00000E+00  9.000E+00
       2     1     1     2   502     0 -2.618029200E+01 -4.828362893E+01 -5.451745971E+02  5.479343554E+02  0.000000000E+00  0.00000E+00  9.000E+00
#rwgt            1           1   4.9335186682170469E-002           2      376227           0
</event>
<event>
      5   9999  3.79277E-02  9.39209E+01 -1.00000E+00  1.25066E-01
      21    -1     0     0   511   501  0.000000000E+00  0.000000000E+00  5.622912967E+01  5.622912967E+01  0.000000000E+00  0.00000E+00  9.000E+00
      21    -1     0     0   501   502  0.000000000E+00  0.000000000E+00 -2.423793982E+03  2.423793982E+03  0.000000000E+00  0.00000E+00  9.000E+00
      25     1     1     2     0     0 -2.020021179E+02  9.864984835E+01 -8.310658315E+02  8.699609557E+02  1.250000000E+02  0.00000E+00  9.000E+00
      25     1     1     2     0     0  2.956911867E+02 -1.052445835E+02 -1.423924329E+03  1.463453175E+03  1.250000000E+02  0.00000E+00  9.000E+00
      21     1     1     2   511   502 -9.368906872E+01  6.594735185E+00 -1.125746924E+02  1.466089816E+02  2.697398305E-06  0.00000E+00  9.000E+00
#rwgt            1           1   8.7151565219445851E-002           2      376439           0
</event>
<event>
      5   9999  3.79277E-02  2.99198E+01 -1.00000E+00  1.53121E-01
      21    -1     0     0   502   501  0.000000000E+00  0.000000000E+00  2.263266244E+02  2.263266244E+02  0.000000000E+00  0.00000E+00  9.000E+00
      21    -1     0     0   512   502  0.000000000E+00  0.000000000E+00 -4.549947822E+02  4.549947822E+02  0.000000000E+00  0.00000E+00  9.000E+00
      25     1     1     2     0     0  9.399758414E+01  8.844183560E+01 -5.872629878E+01  1.890271998E+02  1.250000000E+02  0.00000E+00  9.000E+00
      25     1     1     2     0     0 -9.734445486E+01 -1.181738155E+02  9.943977201E+01  2.212561001E+02  1.250000000E+02  0.00000E+00  9.000E+00
      21     1     1     2   512   501  3.346870729E+00  2.973197989E+01 -2.693816311E+02  2.710381068E+02  0.000000000E+00  0.00000E+00  9.000E+00
#rwgt            1           1   2.1955237617190270E-002           2      376685           0
</event>
<event>
      5   9999  3.79277E-02  1.50850E+02 -1.00000E+00  1.16296E-01
      21    -1     0     0   502   501  0.000000000E+00  0.000000000E+00  3.418623726E+02  3.418623726E+02  0.000000000E+00  0.00000E+00  9.000E+00
      21    -1     0     0   511   502  0.000000000E+00  0.000000000E+00 -8.901644479E+02  8.901644479E+02  0.000000000E+00  0.00000E+00  9.000E+00
      25     1     1     2     0     0 -1.091081919E+02 -1.112126623E+02  1.475974766E+02  2.483603609E+02  1.250000000E+02  0.00000E+00  9.000E+00
      25     1     1     2     0     0  7.008107325E+00  2.222589617E+02  1.634977258E+01  2.556178293E+02  1.250000000E+02  0.00000E+00  9.000E+00
      21     1     1     2   511   501  1.021000846E+02 -1.110462993E+02 -7.122493244E+02  7.280486303E+02  1.705984480E-05  0.00000E+00  9.000E+00
#rwgt            1           1   3.9534624658466813E-002           2      376853           0
</event>
<event>
      5   9999  3.79277E-02  5.41412E+01 -1.00000E+00  1.37132E-01
      21    -1     0     0   502   501  0.000000000E+00  0.000000000E+00  2.840017706E+02  2.840017706E+02  0.000000000E+00  0.00000E+00  9.000E+00
      21    -1     0     0   512   502  0.000000000E+00  0.000000000E+00 -2.687642743E+02  2.687642743E+02  0.000000000E+00  0.00000E+00  9.000E+00
      25     1     1     2     0     0 -1.887575195E+02  3.657645266E+01  1.296726329E+01  2.296962951E+02  1.250000000E+02  0.00000E+00  9.000E+00
      25     1     1     2     0     0  1.793153925E+02  1.673504895E+01  7.562254876E+01  2.319004996E+02  1.250000000E+02  0.00000E+00  9.000E+00
      21     1     1     2   512   501  9.442126962E+00 -5.331150161E+01 -7.335231567E+01  9.116925018E+01  0.000000000E+00  0.00000E+00  9.000E+00
#rwgt            1           1   9.0542244701904306E-002           2      376913           0
</event>
<event>
      5   9999  3.79277E-02  3.10312E+01 -1.00000E+00  1.52027E-01
      21    -1     0     0   511   501  0.000000000E+00  0.000000000E+00  2.809828230E+02  2.809828230E+02  0.000000000E+00  0.00000E+00  9.000E+00
      21    -1     0     0   501   502  0.000000000E+00  0.000000000E+00 -2.686242414E+02  2.686242414E+02  0.000000000E+00  0.00000E+00  9.000E+00
      25     1     1     2     0     0 -1.806021238E+02 -2.611704086E+00 -1.190964304E+02  2.498657797E+02  1.250000000E+02  0.00000E+00  9.000E+00
      25     1     1     2     0     0  1.773204308E+02 -2.824546594E+01  6.800073465E+01  2.291057429E+02  1.250000000E+02  0.00000E+00  9.000E+00
      21     1     1     2   511   502  3.281693026E+00  3.085717003E+01  6.345427739E+01  7.063554183E+01  6.743495762E-07  0.00000E+00  9.000E+00
#rwgt            1           1   4.7231142372648798E-002           2      377027           0
</event>
<event>
      5   9999  3.79277E-02  7.35315E+01 -1.00000E+00  1.30147E-01
      21    -1     0     0   502   501  0.000000000E+00  0.000000000E+00  4.855880887E+02  4.855880887E+02  0.000000000E+00  0.00000E+00  9.000E+00
      21    -1     0     0   512   502  0.000000000E+00  0.000000000E+00 -2.481096990E+02  2.481096990E+02  0.000000000E+00  0.00000E+00  9.000E+00
      25     1     1     2     0     0  2.218886576E+02  5.584696583E+00 -2.840647305E+01  2.563156119E+02  1.250000000E+02  0.00000E+00  9.000E+00
      25     1     1     2     0     0 -2.480287523E+02  6.314355531E+01  2.833894238E+02  4.017958886E+02  1.250000000E+02  0.00000E+00  9.000E+00
      21     1     1     2   512   501  2.614009473E+01 -6.872825190E+01 -1.750456107E+01  7.558628725E+01  5.840038640E-07  0.00000E+00  9.000E+00
#rwgt            1           1   4.6270372631446677E-002           2      377253           0
</event>
<event>
      5   9999 -3.79277E-02  1.03315E+02 -1.00000E+00  1.23194E-01
      21    -1     0     0   502   501  0.000000000E+00  0.000000000E+00  5.877842529E+02  5.877842529E+02  0.000000000E+00  0.00000E+00  9.000E+00
      21    -1     0     0   511   502  0.000000000E+00  0.000000000E+00 -3.564201583E+02  3.564201583E+02  0.000000000E+00  0.00000E+00  9.000E+00
      25     1     1     2     0     0 -1.657979831E+02 -1.994474829E+01  2.706549271E+02  3.417101898E+02  1.250000000E+02  0.00000E+00  9.000E+00
      25     1     1     2     0     0  7.752247547E+01 -3.373440333E+01  2.518305986E+02  2.935837096E+02  1.250000000E+02  0.00000E+00  9.000E+00
      21     1     1     2   511   501  8.827550768E+01  5.367915162E+01 -2.911214312E+02  3.089105118E+02  3.814697266E-06  0.00000E+00  9.000E+00
#rwgt            1           1  -4.2092639986234359E-002           2      377466           0
</event>
<event>
      5   9999  3.79277E-02  3.39117E+01 -1.00000E+00  1.49432E-01
      21    -1     0     0   512   501  0.000000000E+00  0.000000000E+00  3.345709620E+02  3.345709620E+02  0.000000000E+00  0.00000E+00  9.000E+00
      21    -1     0     0   501   502  0.000000000E+00  0.000000000E+00 -2.725361539E+02  2.725361539E+02  0.000000000E+00  0.00000E+00  9.000E+00
      25     1     1     2     0     0  6.588810007E+01  1.864505643E+02 -1.460403342E+02  2.757858478E+02  1.250000000E+02  0.00000E+00  9.000E+00
      25     1     1     2     0     0 -8.964693668E+01 -1.622530489E+02  1.746770414E+02  2.837246798E+02  1.250000000E+02  0.00000E+00  9.000E+00
      21     1     1     2   512   502  2.375883661E+01 -2.419751541E+01  3.339810101E+01  4.759658832E+01  4.768371582E-07  0.00000E+00  9.000E+00
#rwgt            1           1   3.2975608998275480E-002           2      377667           0
</event>
<event>
      5   9999 -3.79277E-02  8.69263E+01 -1.00000E+00  1.26628E-01
      21    -1     0     0   502   511  0.000000000E+00  0.000000000E+00  1.028703016E+03  1.028703016E+03  0.000000000E+00  0.00000E+00  9.000E+00
      21    -1     0     0   501   502  0.000000000E+00  0.000000000E+00 -1.355961163E+02  1.355961163E+02  0.000000000E+00  0.00000E+00  9.000E+00
      25     1     1     2     0     0  1.635162177E+02  1.381150928E+02  3.354163444E+02  4.170640915E+02  1.250000000E+02  0.00000E+00  9.000E+00
      25     1     1     2     0     0 -9.145327109E+01 -1.867269424E+02  7.090800475E+01  2.527520464E+02  1.250000000E+02  0.00000E+00  9.000E+00
      21     1     1     2   501   511 -7.206294666E+01  4.861184954E+01  4.867825511E+02  4.944829949E+02  0.000000000E+00  0.00000E+00  9.000E+00
#rwgt            1           1  -8.8545520386309987E-002           2      377871           0
</event>
<event>
      5   9999 -3.79277E-02  1.52769E+02 -1.00000E+00  1.16080E-01
      21    -1     0     0   502   501  0.000000000E+00  0.000000000E+00  1.563816440E+03  1.563816440E+03  0.000000000E+00  0.00000E+00  9.000E+00
      21    -1     0     0   501   512  0.000000000E+00  0.000000000E+00 -6.616705463E+01  6.616705463E+01  0.000000000E+00  0.00000E+00  9.000E+00
      25     1     1     2     0     0  1.767605432E+01 -1.766438772E+02  6.110828409E+02  6.485080884E+02  1.250000000E+02  0.00000E+00  9.000E+00
      25     1     1     2     0     0  1.343585957E+02  1.916084617E+02  6.170903574E+02  6.717079306E+02  1.250000000E+02  0.00000E+00  9.000E+00
      21     1     1     2   502   512 -1.520346500E+02 -1.496458454E+01  2.694761873E+02  3.097674758E+02  0.000000000E+00  0.00000E+00  9.000E+00
#rwgt            1           1  -2.6837582271964727E-002           2      377998           0
</event>
<event>
      5   9999  3.79277E-02  6.49502E+01 -1.00000E+00  1.32889E-01
      21    -1     0     0   502   501  0.000000000E+00  0.000000000E+00  2.157482677E+02  2.157482677E+02  0.000000000E+00  0.00000E+00  9.000E+00
      21    -1     0     0   501   511  0.000000000E+00  0.000000000E+00 -2.729672443E+02  2.729672443E+02  0.000000000E+00  0.00000E+00  9.000E+00
      25     1     1     2     0     0 -8.728613873E+01  9.540626411E+01  1.668749136E+01  1.806230816E+02  1.250000000E+02  0.00000E+00  9.000E+00
      25     1     1     2     0     0  1.247041730E+02 -1.484951035E+02 -3.781505542E+01  2.337881626E+02  1.250000000E+02  0.00000E+00  9.000E+00
      21     1     1     2   502   511 -3.741803428E+01  5.308883943E+01 -3.609141255E+01  7.430426785E+01  6.743495762E-07  0.00000E+00  9.000E+00
#rwgt            1           1   7.6826285225110577E-002           2      378152           0
</event>
<event>
      5   9999  3.79277E-02  5.97183E+01 -1.00000E+00  1.34813E-01
      21    -1     0     0   502   501  0.000000000E+00  0.000000000E+00  2.947244268E+02  2.947244268E+02  0.000000000E+00  0.00000E+00  9.000E+00
      21    -1     0     0   501   512  0.000000000E+00  0.000000000E+00 -1.664632772E+02  1.664632772E+02  0.000000000E+00  0.00000E+00  9.000E+00
      25     1     1     2     0     0  1.486196360E+01  8.314787321E+01  1.752073062E+02  2.312078003E+02  1.250000000E+02  0.00000E+00  9.000E+00
      25     1     1     2     0     0  4.265636681E+01 -9.920768700E+01 -3.906949212E+01  1.697443843E+02  1.250000000E+02  0.00000E+00  9.000E+00
      21     1     1     2   502   512 -5.751833042E+01  1.605981379E+01 -7.876664534E+00  6.023551940E+01  1.556583030E-06  0.00000E+00  9.000E+00
#rwgt            1           1   3.2794198152133677E-002           2      378264           0
</event>
<event>
      5   9999  3.79277E-02  4.12487E+01 -1.00000E+00  1.44017E-01
       2    -1     0     0   502     0  0.000000000E+00  0.000000000E+00  8.933839510E+02  8.933839510E+02  0.000000000E+00  0.00000E+00  9.000E+00
      21    -1     0     0   501   502  0.000000000E+00  0.000000000E+00 -1.215554563E+02  1.215554563E+02  0.000000000E+00  0.00000E+00  9.000E+00
      25     1     1     2     0     0  9.403440575E+01  1.667975494E+01  1.219875809E+02  1.990644458E+02  1.250000000E+02  0.00000E+00  9.000E+00
      25     1     1     2     0     0 -1.320996463E+02 -3.256976975E+01  2.130149116E+01  1.859834939E+02  1.250000000E+02  0.00000E+00  9.000E+00
       2     1     1     2   501     0  3.806524059E+01  1.589001481E+01  6.285394226E+02  6.298914676E+02  1.078959322E-05  0.00000E+00  9.000E+00
#rwgt            1           1   3.6185635157858068E-002           2      378553           0
</event>
<event>
      5   9999  3.79277E-02  2.25578E+01 -1.00000E+00  1.62169E-01
      21    -1     0     0   502   501  0.000000000E+00  0.000000000E+00  2.755234916E+02  2.755234916E+02  0.000000000E+00  0.00000E+00  9.000E+00
      21    -1     0     0   511   502  0.000000000E+00  0.000000000E+00 -1.408333000E+02  1.408333000E+02  0.000000000E+00  0.00000E+00  9.000E+00
      25     1     1     2     0     0  2.843371658E+01  3.639535436E+01  1.998486114E+02  2.402031755E+02  1.250000000E+02  0.00000E+00  9.000E+00
      25     1     1     2     0     0 -4.973231007E+01 -2.896414444E+01 -6.785992652E+01  1.534346570E+02  1.250000000E+02  0.00000E+00  9.000E+00
      21     1     1     2   511   501  2.129859349E+01 -7.431209922E+00  2.701506805E+00  2.271895915E+01  4.140270945E-07  0.00000E+00  9.000E+00
#rwgt            1           1   4.6108679852420204E-002           2      378648           0
</event>
<event>
      5   9999 -3.79277E-02  3.97146E+01 -1.00000E+00  1.45033E-01
      21    -1     0     0   502   512  0.000000000E+00  0.000000000E+00  7.492338999E+02  7.492338999E+02  0.000000000E+00  0.00000E+00  9.000E+00
      21    -1     0     0   501   502  0.000000000E+00  0.000000000E+00 -2.497122646E+02  2.497122646E+02  0.000000000E+00  0.00000E+00  9.000E+00
      25     1     1     2     0     0 -1.246814005E+02  2.203087118E+02  2.168752682E+02  3.560073905E+02  1.250000000E+02  0.00000E+00  9.000E+00
      25     1     1     2     0     0  1.192144878E+02 -2.596452455E+02 -4.306669598E+01  3.148134176E+02  1.250000000E+02  0.00000E+00  9.000E+00
      21     1     1     2   501   512  5.466912661E+00  3.933653368E+01  3.257130631E+02  3.281253563E+02  0.000000000E+00  0.00000E+00  9.000E+00
#rwgt            1           1 -0.10227465302281752                2      378891           0
</event>
<event>
      5   9999  3.79277E-02  2.12970E+02 -1.00000E+00  1.10664E-01
      21    -1     0     0   502   511  0.000000000E+00  0.000000000E+00  2.510521075E+02  2.510521075E+02  0.000000000E+00  0.00000E+00  9.000E+00
      21    -1     0     0   501   502  0.000000000E+00  0.000000000E+00 -5.431230112E+02  5.431230112E+02  0.000000000E+00  0.00000E+00  9.000E+00
      25     1     1     2     0     0  1.168640806E+02 -1.873349974E+01  1.232831847E+01  1.725837326E+02  1.250000000E+02  0.00000E+00  9.000E+00
      25     1     1     2     0     0  9.418710562E+01  4.725643265E+01 -3.651890470E+02  4.001155100E+02  1.250000000E+02  0.00000E+00  9.000E+00
      21     1     1     2   501   511 -2.110511862E+02 -2.852293291E+01  6.078982477E+01  2.214758761E+02  1.348699152E-06  0.00000E+00  9.000E+00
#rwgt            1           1   3.6052788353649265E-002           2      379043           0
</event>
<event>
      5   9999  3.79277E-02  9.46735E+01 -1.00000E+00  1.24907E-01
      21    -1     0     0   502   501  0.000000000E+00  0.000000000E+00  1.247423933E+02  1.247423933E+02  0.000000000E+00  0.00000E+00  9.000E+00
      21    -1     0     0   501   512  0.000000000E+00  0.000000000E+00 -5.091770138E+02  5.091770138E+02  0.000000000E+00  0.00000E+00  9.000E+00
      25     1     1     2     0     0  1.242210715E+02 -4.709866698E+01 -1.879919896E+02  2.619449316E+02  1.250000000E+02  0.00000E+00  9.000E+00
      25     1     1     2     0     0 -1.714195139E+02 -3.497068453E+01 -1.010583225E+02  2.375823712E+02  1.250000000E+02  0.00000E+00  9.000E+00
      21     1     1     2   502   512  4.719844239E+01  8.206935151E+01 -9.538430848E+01  1.343921044E+02  2.336015456E-06  0.00000E+00  9.000E+00
#rwgt            1           1   4.7058222209403741E-002           2      379118           0
</event>
<event>
      5   9999  3.79277E-02  7.15735E+01 -1.00000E+00  1.30734E-01
       2    -1     0     0   502     0  0.000000000E+00  0.000000000E+00  2.405804400E+03  2.405804400E+03  0.000000000E+00  0.00000E+00  9.000E+00
      21    -1     0     0   501   502  0.000000000E+00  0.000000000E+00 -1.115314951E+02  1.115314951E+02  0.000000000E+00  0.00000E+00  9.000E+00
      25     1     1     2     0     0 -3.853003051E+01 -2.199109058E+02  2.313041824E+02  3.449231719E+02  1.250000000E+02  0.00000E+00  9.000E+00
      25     1     1     2     0     0 -2.685959939E+01  1.908083056E+02  1.900203087E+02  2.980972413E+02  1.250000000E+02  0.00000E+00  9.000E+00
       2     1     1     2   501     0  6.538962989E+01  2.910260017E+01  1.872948414E+03  1.874315482E+03  3.051757812E-05  0.00000E+00  9.000E+00
#rwgt            1           1   3.3794473047108947E-002           2      379237           0
</event>
<event>
      5   9999  3.79277E-02  2.72127E+01 -1.00000E+00  1.56041E-01
      21    -1     0     0   511   501  0.000000000E+00  0.000000000E+00  1.848861550E+03  1.848861550E+03  0.000000000E+00  0.00000E+00  9.000E+00
      21    -1     0     0   501   502  0.000000000E+00  0.000000000E+00 -7.540862210E+02  7.540862210E+02  0.000000000E+00  0.00000E+00  9.000E+00
      25     1     1     2     0     0 -1.344562777E+02 -2.391739971E+02 -2.678981623E+02  4.033325140E+02  1.250000000E+02  0.00000E+00  9.000E+00
      25     1     1     2     0     0  1.210274987E+02  2.628425340E+02 -3.589898188E+02  4.777368974E+02  1.250000000E+02  0.00000E+00  9.000E+00
      21     1     1     2   511   502  1.342877902E+01 -2.366853682E+01  1.721663310E+03  1.721878360E+03  0.000000000E+00  0.00000E+00  9.000E+00
#rwgt            1           1  0.13983898701740410                2      379358           0
</event>
<event>
      5   9999  3.79277E-02  9.56229E+00 -1.00000E+00  1.98031E-01
      21    -1     0     0   502   501  0.000000000E+00  0.000000000E+00  2.407292313E+02  2.407292313E+02  0.000000000E+00  0.00000E+00  9.000E+00
      21    -1     0     0   501   512  0.000000000E+00  0.000000000E+00 -1.794322619E+02  1.794322619E+02  0.000000000E+00  0.00000E+00  9.000E+00
      25     1     1     2     0     0 -7.438882400E+01  1.172953316E+02 -3.648871686E+01  1.903899115E+02  1.250000000E+02  0.00000E+00  9.000E+00
      25     1     1     2     0     0  7.292214086E+01 -1.267444690E+02  1.036863419E+02  2.185352524E+02  1.250000000E+02  0.00000E+00  9.000E+00
      21     1     1     2   502   512  1.466683139E+00  9.449137456E+00 -5.900655608E+00  1.123632924E+01  2.064765462E-07  0.00000E+00  9.000E+00
#rwgt            1           1   1.6928127534761122E-002           2      379698           0
</event>
<event>
      5   9999  3.79277E-02  2.78138E+01 -1.00000E+00  1.55358E-01
      21    -1     0     0   511   501  0.000000000E+00  0.000000000E+00  1.664315304E+02  1.664315304E+02  0.000000000E+00  0.00000E+00  9.000E+00
      21    -1     0     0   501   502  0.000000000E+00  0.000000000E+00 -3.136270992E+02  3.136270992E+02  0.000000000E+00  0.00000E+00  9.000E+00
      25     1     1     2     0     0 -6.071164197E+01  7.305329480E+01  1.845272038E+01  1.580765329E+02  1.250000000E+02  0.00000E+00  9.000E+00
      25     1     1     2     0     0  8.460226540E+01 -5.881093947E+01 -2.126771281E+02  2.673440306E+02  1.250000000E+02  0.00000E+00  9.000E+00
      21     1     1     2   511   502 -2.389062344E+01 -1.424235533E+01  4.702883896E+01  5.463806611E+01  6.743495762E-07  0.00000E+00  9.000E+00
#rwgt            1           1   4.5981108163494391E-002           2      380004           0
</event>
<event>
      5   9999  3.79277E-02  4.92343E+01 -1.00000E+00  1.39459E-01
      21    -1     0     0   502   512  0.000000000E+00  0.000000000E+00  3.203082675E+02  3.203082675E+02  0.000000000E+00  0.00000E+00  9.000E+00
      21    -1     0     0   501   502  0.000000000E+00  0.000000000E+00 -3.542142118E+02  3.542142118E+02  0.000000000E+00  0.00000E+00  9.000E+00
      25     1     1     2     0     0 -7.756555397E+01  5.618545446E+01  1.744247843E+02  2.349940975E+02  1.250000000E+02  0.00000E+00  9.000E+00
      25     1     1     2     0     0  1.197638584E+02 -8.154914154E+01 -2.880566298E+02  3.458254852E+02  1.250000000E+02  0.00000E+00  9.000E+00
      21     1     1     2   501   512 -4.219830445E+01  2.536368707E+01  7.972590118E+01  9.370289664E+01  1.651812370E-06  0.00000E+00  9.000E+00
#rwgt            1           1   3.9968781089100798E-002           2      380372           0
</event>
<event>
      5   9999  3.79277E-02  2.16215E+01 -1.00000E+00  1.63623E-01
      21    -1     0     0   502   501  0.000000000E+00  0.000000000E+00  5.083582209E+02  5.083582209E+02  0.000000000E+00  0.00000E+00  9.000E+00
       2    -1     0     0   501     0  0.000000000E+00  0.000000000E+00 -3.682405407E+02  3.682405407E+02  0.000000000E+00  0.00000E+00  9.000E+00
      25     1     1     2     0     0 -5.587941479E+01  8.264836930E+01 -6.286882931E+01  1.718451386E+02  1.250000000E+02  0.00000E+00  9.000E+00
      25     1     1     2     0     0  3.485600564E+01 -8.769880471E+01  4.398508600E+02  4.669044876E+02  1.250000000E+02  0.00000E+00  9.000E+00
       2     1     1     2   502     0  2.102340915E+01  5.050435411E+00 -2.368643505E+02  2.378491353E+02  0.000000000E+00  0.00000E+00  9.000E+00
#rwgt            1           1   4.9099158057831188E-002           2      380533           0
</event>
<event>
      5   9999  3.79277E-02  1.00481E+01 -1.00000E+00  1.95517E-01
      21    -1     0     0   502   501  0.000000000E+00  0.000000000E+00  7.671557106E+01  7.671557106E+01  0.000000000E+00  0.00000E+00  9.000E+00
      21    -1     0     0   501   511  0.000000000E+00  0.000000000E+00 -5.481076411E+02  5.481076411E+02  0.000000000E+00  0.00000E+00  9.000E+00
      25     1     1     2     0     0  1.115162812E+02  9.950416448E+01 -2.348551558E+02  3.051539020E+02  1.250000000E+02  0.00000E+00  9.000E+00
      25     1     1     2     0     0 -1.193622434E+02 -1.057814869E+02 -2.125645897E+02  2.936763064E+02  1.250000000E+02  0.00000E+00  9.000E+00
      21     1     1     2   502   511  7.845962244E+00  6.277322466E+00 -2.397232451E+01  2.599300373E+01  4.768371582E-07  0.00000E+00  9.000E+00
#rwgt            1           1   5.7118233546083072E-002           2      380787           0
</event>
<event>
      5   9999  3.79277E-02  8.57330E+01 -1.00000E+00  1.26911E-01
      21    -1     0     0   502   501  0.000000000E+00  0.000000000E+00  3.127595716E+02  3.127595716E+02  0.000000000E+00  0.00000E+00  9.000E+00
      21    -1     0     0   512   502  0.000000000E+00  0.000000000E+00 -3.857227046E+02  3.857227046E+02  0.000000000E+00  0.00000E+00  9.000E+00
      25     1     1     2     0     0 -1.997618344E+02 -1.793305284E+01  1.699858527E+02  2.911126500E+02  1.250000000E+02  0.00000E+00  9.000E+00
      25     1     1     2     0     0  1.390103977E+02 -4.256006789E+01 -5.292420146E+01  1.989000280E+02  1.250000000E+02  0.00000E+00  9.000E+00
      21     1     1     2   512   501  6.075143670E+01  6.049312073E+01 -1.900247842E+02  2.084695981E+02  2.697398305E-06  0.00000E+00  9.000E+00
#rwgt            1           1   3.5857152678271484E-002           2      381055           0
</event>
<event>
      5   9999  3.79277E-02  1.89727E+01 -1.00000E+00  1.68281E-01
      21    -1     0     0   502   501  0.000000000E+00  0.000000000E+00  4.561406384E+02  4.561406384E+02  0.000000000E+00  0.00000E+00  9.000E+00
      21    -1     0     0   511   502  0.000000000E+00  0.000000000E+00 -1.655552985E+02  1.655552985E+02  0.000000000E+00  0.00000E+00  9.000E+00
      25     1     1     2     0     0 -1.925141475E+01  5.855633804E+01  3.683899433E+02  3.938725834E+02  1.250000000E+02  0.00000E+00  9.000E+00
      25     1     1     2     0     0  1.487174151E+01 -7.701664915E+01  1.708411296E-01  1.475729045E+02  1.250000000E+02  0.00000E+00  9.000E+00
      21     1     1     2   511   501  4.379673241E+00  1.846031111E+01 -7.797544450E+01  8.025044902E+01  1.348699152E-06  0.00000E+00  9.000E+00
#rwgt            1           1   4.9438028521173169E-002           2      381179           0
</event>
<event>
      5   9999  3.79277E-02  2.58274E+01 -1.00000E+00  1.57699E-01
      21    -1     0     0   502   512  0.000000000E+00  0.000000000E+00  7.742984283E+02  7.742984283E+02  0.000000000E+00  0.00000E+00  9.000E+00
      21    -1     0     0   501   502  0.000000000E+00  0.000000000E+00 -5.988485463E+01  5.988485463E+01  0.000000000E+00  0.00000E+00  9.000E+00
      25     1     1     2     0     0  1.197658595E+02  8.093033867E+01  3.719458573E+02  4.181653998E+02  1.250000000E+02  0.00000E+00  9.000E+00
      25     1     1     2     0     0 -1.319712983E+02 -5.816896761E+01  2.217651735E+02  2.925830558E+02  1.250000000E+02  0.00000E+00  9.000E+00
      21     1     1     2   501   512  1.220543881E+01 -2.276137106E+01  1.207025429E+02  1.234348273E+02  1.907348633E-06  0.00000E+00  9.000E+00
#rwgt            1           1   4.4967878707590850E-002           2      381332           0
</event>
<event>
      5   9999  3.79277E-02  2.38653E+02 -1.00000E+00  1.08924E-01
      21    -1     0     0   511   501  0.000000000E+00  0.000000000E+00  3.150620643E+02  3.150620643E+02  0.000000000E+00  0.00000E+00  9.000E+00
      21    -1     0     0   501   502  0.000000000E+00  0.000000000E+00 -4.090013296E+02  4.090013296E+02  0.000000000E+00  0.00000E+00  9.000E+00
      25     1     1     2     0     0  9.170373088E+01 -1.179303334E+01 -2.259864336E+01  1.571125347E+02  1.250000000E+02  0.00000E+00  9.000E+00
      25     1     1     2     0     0 -1.900374826E+02  2.292454363E+02 -5.639309604E+01  3.278305906E+02  1.250000000E+02  0.00000E+00  9.000E+00
      21     1     1     2   511   502  9.833375174E+01 -2.174524030E+02 -1.494752597E+01  2.391202685E+02  1.554298974E-06  0.00000E+00  9.000E+00
#rwgt            1           1   3.7866297003024504E-002           2      381499           0
</event>
<event>
      5   9999  3.79277E-02  2.89015E+01 -1.00000E+00  1.54174E-01
      21    -1     0     0   512   501  0.000000000E+00  0.000000000E+00  1.455510066E+03  1.455510066E+03  0.000000000E+00  0.00000E+00  9.000E+00
      21    -1     0     0   501   502  0.000000000E+00  0.000000000E+00 -5.011467044E+01  5.011467044E+01  0.000000000E+00  0.00000E+00  9.000E+00
      25     1     1     2     0     0  1.089266388E+02  5.706504636E+00  1.689848896E+02  2.368089309E+02  1.250000000E+02  0.00000E+00  9.000E+00
      25     1     1     2     0     0 -1.162940238E+02 -3.365320696E+01  4.591775254E+02  4.910456579E+02  1.250000000E+02  0.00000E+00  9.000E+00
      21     1     1     2   512   502  7.367384968E+00  2.794670232E+01  7.772329802E+02  7.777701474E+02  1.868812365E-05  0.00000E+00  9.000E+00
#rwgt            1           1   3.8636837268393252E-002           2      381574           0
</event>
<event>
      5   9999  3.79277E-02  3.57667E+01 -1.00000E+00  1.47919E-01
      21    -1     0     0   511   501  0.000000000E+00  0.000000000E+00  6.775269615E+01  6.775269615E+01  0.000000000E+00  0.00000E+00  9.000E+00
      21    -1     0     0   501   502  0.000000000E+00  0.000000000E+00 -9.430379138E+02  9.430379138E+02  0.000000000E+00  0.00000E+00  9.000E+00
      25     1     1     2     0     0  1.736939508E+02  4.025508230E+01 -4.980338202E+02  5.435556514E+02  1.250000000E+02  0.00000E+00  9.000E+00
      25     1     1     2     0     0 -1.916250594E+02 -7.120229310E+01 -3.208586060E+02  4.004562085E+02  1.250000000E+02  0.00000E+00  9.000E+00
      21     1     1     2   511   502  1.793110865E+01  3.094721079E+01 -5.639279156E+01  6.677875001E+01  6.743495762E-07  0.00000E+00  9.000E+00
#rwgt            1           1  0.10327288762225699                2      381721           0
</event>
<event>
      5   9999  3.79277E-02  2.14269E+01 -1.00000E+00  1.63937E-01
      21    -1     0     0   512   501  0.000000000E+00  0.000000000E+00  3.213814824E+02  3.213814824E+02  0.000000000E+00  0.00000E+00  9.000E+00
      21    -1     0     0   501   502  0.000000000E+00  0.000000000E+00 -9.869356692E+01  9.869356692E+01  0.000000000E+00  0.00000E+00  9.000E+00
      25     1     1     2     0     0 -4.082166381E+01  8.420139126E+01  1.281145756E+02  2.019767982E+02  1.250000000E+02  0.00000E+00  9.000E+00
      25     1     1     2     0     0  1.972647716E+01 -8.044583095E+01  3.387758207E+01  1.537314418E+02  1.250000000E+02  0.00000E+00  9.000E+00
      21     1     1     2   512   502  2.109518665E+01 -3.755560311E+00  6.069575784E+01  6.436680940E+01  0.000000000E+00  0.00000E+00  9.000E+00
#rwgt            1           1   4.6606526348218172E-002           2      381913           0
</event>
<event>
      5   9999  3.79277E-02  3.06773E+01 -1.00000E+00  1.52369E-01
      21    -1     0     0   502   511  0.000000000E+00  0.000000000E+00  9.125535460E+01  9.125535460E+01  0.000000000E+00  0.00000E+00  9.000E+00
      21    -1     0     0   501   502  0.000000000E+00  0.000000000E+00 -9.012932754E+02  9.012932754E+02  0.000000000E+00  0.00000E+00  9.000E+00
      25     1     1     2     0     0  7.122519336E+01 -5.091119183E+01 -1.169860594E+02  1.922907063E+02  1.250000000E+02  0.00000E+00  9.000E+00
      25     1     1     2     0     0 -9.952856681E+01  3.907832021E+01 -7.322408873E+02  7.504896853E+02  1.250000000E+02  0.00000E+00  9.000E+00
      21     1     1     2   501   511  2.830337345E+01  1.183287162E+01  3.918902593E+01  4.976823839E+01  1.507891493E-06  0.00000E+00  9.000E+00
#rwgt            1           1   3.2074383021168142E-002           2      382188           0
</event>
<event>
      5   9999 -3.79277E-02  1.21700E+01 -1.00000E+00  1.86388E-01
      21    -1     0     0   502   501  0.000000000E+00  0.000000000E+00  2.167938365E+02  2.167938365E+02  0.000000000E+00  0.00000E+00  9.000E+00
      21    -1     0     0   501   512  0.000000000E+00  0.000000000E+00 -7.486879996E+02  7.486879996E+02  0.000000000E+00  0.00000E+00  9.000E+00
      25     1     1     2     0     0  4.272177706E+01 -1.030744196E+02 -1.187963602E+02  2.053948914E+02  1.250000000E+02  0.00000E+00  9.000E+00
      25     1     1     2     0     0 -4.676039260E+01  9.159402659E+01  1.356576326E+02  2.111965751E+02  1.250000000E+02  0.00000E+00  9.000E+00
      21     1     1     2   502   512  4.038615536E+00  1.148039298E+01 -5.487554355E+02  5.488903696E+02  1.078959322E-05  0.00000E+00  9.000E+00
#rwgt            1           1  -8.3669959328928650E-002           2      382282           0
</event>
<event>
      5   9999  3.79277E-02  1.01500E+01 -1.00000E+00  1.95013E-01
      21    -1     0     0   502   501  0.000000000E+00  0.000000000E+00  9.121014388E+01  9.121014388E+01  0.000000000E+00  0.00000E+00  9.000E+00
      21    -1     0     0   501   511  0.000000000E+00  0.000000000E+00 -9.771044500E+02  9.771044500E+02  0.000000000E+00  0.00000E+00  9.000E+00
      25     1     1     2     0     0 -1.230564105E+02  1.993360691E+02 -5.477509779E+02  6.087149434E+02  1.250000000E+02  0.00000E+00  9.000E+00
      25     1     1     2     0     0  1.330222339E+02 -1.974114068E+02 -2.383984385E+02  3.593396635E+02  1.250000000E+02  0.00000E+00  9.000E+00
      21     1     1     2   502   511 -9.965823416E+00 -1.924662256E+00 -9.974488978E+01  1.002599870E+02  1.348699152E-06  0.00000E+00  9.000E+00
#rwgt            1           1   3.5469704167147766E-002           2      382785           0
</event>
<event>
      5   9999  3.79277E-02  1.86011E+01 -1.00000E+00  1.69010E-01
      21    -1     0     0   512   501  0.000000000E+00  0.000000000E+00  1.375963607E+02  1.375963607E+02  0.000000000E+00  0.00000E+00  9.000E+00
      21    -1     0     0   501   502  0.000000000E+00  0.000000000E+00 -4.440713362E+02  4.440713362E+02  0.000000000E+00  0.00000E+00  9.000E+00
      25     1     1     2     0     0  3.900726578E+01 -4.244920658E+01 -3.784472787E+02  4.027044135E+02  1.250000000E+02  0.00000E+00  9.000E+00
      25     1     1     2     0     0 -5.758976970E+01  4.161818397E+01  7.094579647E+01  1.603339042E+02  1.250000000E+02  0.00000E+00  9.000E+00
      21     1     1     2   512   502  1.858250393E+01  8.310226116E-01  1.026506755E+00  1.862937914E+01  3.911377415E-07  0.00000E+00  9.000E+00
#rwgt            1           1   3.3590581567075693E-002           2      383104           0
</event>
<event>
      5   9999  3.79277E-02  5.45225E+01 -1.00000E+00  1.36963E-01
      21    -1     0     0   502   511  0.000000000E+00  0.000000000E+00  7.579381678E+02  7.579381678E+02  0.000000000E+00  0.00000E+00  9.000E+00
      21    -1     0     0   501   502  0.000000000E+00  0.000000000E+00 -6.118959174E+02  6.118959174E+02  0.000000000E+00  0.00000E+00  9.000E+00
      25     1     1     2     0     0 -1.820951134E+02  9.454590678E+01 -1.917721461E+02  3.074070832E+02  1.250000000E+02  0.00000E+00  9.000E+00
      25     1     1     2     0     0  2.342914384E+02 -1.103018097E+02 -3.039137642E+02  4.183868347E+02  1.250000000E+02  0.00000E+00  9.000E+00
      21     1     1     2   501   511 -5.219632502E+01  1.575590289E+01  6.417281608E+02  6.440401673E+02  0.000000000E+00  0.00000E+00  9.000E+00
#rwgt            1           1   8.6197471162837491E-002           2      383356           0
</event>
<event>
      5   9999  3.79277E-02  1.97604E+02 -1.00000E+00  1.11839E-01
      21    -1     0     0   512   501  0.000000000E+00  0.000000000E+00  9.337036557E+01  9.337036557E+01  0.000000000E+00  0.00000E+00  9.000E+00
      21    -1     0     0   501   502  0.000000000E+00  0.000000000E+00 -2.581145570E+03  2.581145570E+03  0.000000000E+00  0.00000E+00  9.000E+00
      25     1     1     2     0     0 -1.440605911E+02  1.299006836E+02 -1.760209738E+03  1.775272081E+03  1.250000000E+02  0.00000E+00  9.000E+00
      25     1     1     2     0     0  4.142459119E+01 -2.987586407E+02 -3.957436326E+02  5.130406854E+02  1.250000000E+02  0.00000E+00  9.000E+00
      21     1     1     2   512   502  1.026359999E+02  1.688579571E+02 -3.318218344E+02  3.862031692E+02  8.529922400E-06  0.00000E+00  9.000E+00
#rwgt            1           1   2.2639556516910082E-002           2      383536           0
</event>
<event>
      5   9999  3.79277E-02  8.29184E+01 -1.00000E+00  1.27601E-01
      21    -1     0     0   502   501  0.000000000E+00  0.000000000E+00  5.725400323E+01  5.725400323E+01  0.000000000E+00  0.00000E+00  9.000E+00
       2    -1     0     0   501     0  0.000000000E+00  0.000000000E+00 -1.400467661E+03  1.400467661E+03  0.000000000E+00  0.00000E+00  9.000E+00
      25     1     1     2     0     0  1.342638987E+01 -1.870678380E+02 -5.093474587E+02  5.569869636E+02  1.250000000E+02  0.00000E+00  9.000E+00
      25     1     1     2     0     0  2.529091726E+00  1.056990018E+02 -1.868555231E+02  2.484324089E+02  1.250000000E+02  0.00000E+00  9.000E+00
       2     1     1     2   502     0 -1.595548160E+01  8.136883625E+01 -6.470106763E+02  6.523022920E+02  7.629394531E-06  0.00000E+00  9.000E+00
#rwgt            1           1   3.7545556283336529E-002           2      383604           0
</event>
<event>
      5   9999  3.79277E-02  7.27096E+01 -1.00000E+00  1.30391E-01
       1    -1     0     0   502     0  0.000000000E+00  0.000000000E+00  4.268393409E+03  4.268393409E+03  0.000000000E+00  0.00000E+00  9.000E+00
      21    -1     0     0   501   502  0.000000000E+00  0.000000000E+00 -5.758795217E+02  5.758795217E+02  0.000000000E+00  0.00000E+00  9.000E+00
      25     1     1     2     0     0  5.121451125E+02  2.632555568E+02  1.633798229E+02  6.114851355E+02  1.250000000E+02  0.00000E+00  9.000E+00
      25     1     1     2     0     0 -4.651772542E+02 -2.077515054E+02 -1.557353357E+02  5.472011153E+02  1.250000000E+02  0.00000E+00  9.000E+00
       1     1     1     2   501     0 -4.696785828E+01 -5.550405143E+01  3.684869400E+03  3.685586680E+03  0.000000000E+00  0.00000E+00  9.000E+00
#rwgt            1           1   3.9677770353302770E-002           2      383739           0
</event>
<event>
      5   9999  3.79277E-02  7.51865E+00 -1.00000E+00  2.11258E-01
      21    -1     0     0   502   511  0.000000000E+00  0.000000000E+00  5.243210754E+02  5.243210754E+02  0.000000000E+00  0.00000E+00  9.000E+00
      21    -1     0     0   501   502  0.000000000E+00  0.000000000E+00 -1.262101024E+02  1.262101024E+02  0.000000000E+00  0.00000E+00  9.000E+00
      25     1     1     2     0     0  1.304770788E+02  1.692904779E+02  1.168036113E+02  2.737729307E+02  1.250000000E+02  0.00000E+00  9.000E+00
      25     1     1     2     0     0 -1.313075838E+02 -1.618178360E+02  2.709288300E+02  3.639424742E+02  1.250000000E+02  0.00000E+00  9.000E+00
      21     1     1     2   501   511  8.305050473E-01 -7.472641861E+00  1.037853167E+01  1.281577289E+01  1.685873940E-07  0.00000E+00  9.000E+00
#rwgt            1           1   3.6185241614302845E-002           2      384089           0
</event>
<event>
      5   9999  3.79277E-02  2.91674E+01 -1.00000E+00  1.53894E-01
      21    -1     0     0   502   501  0.000000000E+00  0.000000000E+00  1.037023754E+03  1.037023754E+03  0.000000000E+00  0.00000E+00  9.000E+00
      21    -1     0     0   501   512  0.000000000E+00  0.000000000E+00 -1.186432918E+02  1.186432918E+02  0.000000000E+00  0.00000E+00  9.000E+00
      25     1     1     2     0     0  1.232186553E+02 -2.199338719E+02  2.620385889E+02  3.845035333E+02  1.250000000E+02  0.00000E+00  9.000E+00
      25     1     1     2     0     0 -1.121498382E+02  1.929483857E+02  6.844314259E+02  7.306695850E+02  1.250000000E+02  0.00000E+00  9.000E+00
      21     1     1     2   502   512 -1.106881712E+01  2.698548629E+01 -2.808955269E+01  4.049392736E+01  9.536743164E-07  0.00000E+00  9.000E+00
#rwgt            1           1   2.7773776482330155E-002           2      384378           0
</event>
<event>
      5   9999  3.79277E-02  5.90906E+00 -1.00000E+00  2.26507E-01
      21    -1     0     0   502   501  0.000000000E+00  0.000000000E+00  1.374036376E+03  1.374036376E+03  0.000000000E+00  0.00000E+00  9.000E+00
      21    -1     0     0   511   502  0.000000000E+00  0.000000000E+00 -1.430285623E+02  1.430285623E+02  0.000000000E+00  0.00000E+00  9.000E+00
      25     1     1     2     0     0 -7.551141300E+01 -1.173239460E+02  4.723813420E+02  5.081692769E+02  1.250000000E+02  0.00000E+00  9.000E+00
      25     1     1     2     0     0  7.941528982E+01  1.128881004E+02  8.738754598E+02  8.934952886E+02  1.250000000E+02  0.00000E+00  9.000E+00
      21     1     1     2   511   501 -3.903876817E+00  4.435845597E+00 -1.152489877E+02  1.154003732E+02  1.907348633E-06  0.00000E+00  9.000E+00
#rwgt            1           1   4.9587671269878481E-002           2      384522           0
</event>
<event>
      5   9999  3.79277E-02  8.58665E+01 -1.00000E+00  1.26879E-01
      21    -1     0     0   502   512  0.000000000E+00  0.000000000E+00  3.583399841E+02  3.583399841E+02  0.000000000E+00  0.00000E+00  9.000E+00
      21    -1     0     0   501   502  0.000000000E+00  0.000000000E+00 -1.040443628E+03  1.040443628E+03  0.000000000E+00  0.00000E+00  9.000E+00
      25     1     1     2     0     0  4.495194401E+01 -1.572052823E+02 -6.131340755E+02  6.467554195E+02  1.250000000E+02  0.00000E+00  9.000E+00
      25     1     1     2     0     0 -7.455135922E+01  2.378088642E+02 -3.561394981E+02  4.522955926E+02  1.250000000E+02  0.00000E+00  9.000E+00
      21     1     1     2   501   512  2.959941521E+01 -8.060358188E+01  2.871699299E+02  2.997325999E+02  3.814697266E-06  0.00000E+00  9.000E+00
#rwgt            2          11   3.1780413634172654E-003           2      384879           0
</event>
<event>
      5   9999 -3.79277E-02  1.37506E+02 -1.00000E+00  1.17910E-01
      21    -1     0     0   502   511  0.000000000E+00  0.000000000E+00  1.344903082E+03  1.344903082E+03  0.000000000E+00  0.00000E+00  9.000E+00
      21    -1     0     0   501   502  0.000000000E+00  0.000000000E+00 -1.735815568E+02  1.735815568E+02  0.000000000E+00  0.00000E+00  9.000E+00
      25     1     1     2     0     0  2.230609646E+02 -3.383056878E+01  1.907741686E+01  2.586303330E+02  1.250000000E+02  0.00000E+00  9.000E+00
      25     1     1     2     0     0 -2.710001033E+02  1.627092767E+02  5.887800365E+02  6.798546140E+02  1.250000000E+02  0.00000E+00  9.000E+00
      21     1     1     2   501   511  4.793913870E+01 -1.288787079E+02  5.634640715E+02  5.799996916E+02  7.629394531E-06  0.00000E+00  9.000E+00
#rwgt            1           1 -0.21848243344390927                2      384989           0
</event>
<event>
      5   9999  3.79277E-02  3.36967E+00 -1.00000E+00  2.82350E-01
      21    -1     0     0   502   501  0.000000000E+00  0.000000000E+00  4.297257876E+02  4.297257876E+02  0.000000000E+00  0.00000E+00  9.000E+00
      21    -1     0     0   501   512  0.000000000E+00  0.000000000E+00 -4.510808128E+02  4.510808128E+02  0.000000000E+00  0.00000E+00  9.000E+00
      25     1     1     2     0     0  1.962512722E+02 -8.112953735E+01  8.472821217E+01  2.605771164E+02  1.250000000E+02  0.00000E+00  9.000E+00
      25     1     1     2     0     0 -1.932732785E+02  8.270631325E+01  1.988877025E+02  3.152399287E+02  1.250000000E+02  0.00000E+00  9.000E+00
      21     1     1     2   502   512 -2.977993649E+00 -1.576775909E+00 -3.049709398E+02  3.049895552E+02  5.394796609E-06  0.00000E+00  9.000E+00
#rwgt            1           1   3.5556981393497535E-002           2      385091           0
</event>
<event>
      5   9999  3.79277E-02  2.09922E+01 -1.00000E+00  1.64653E-01
      21    -1     0     0   511   501  0.000000000E+00  0.000000000E+00  4.551927671E+02  4.551927671E+02  0.000000000E+00  0.00000E+00  9.000E+00
      21    -1     0     0   501   502  0.000000000E+00  0.000000000E+00 -2.429306476E+02  2.429306476E+02  0.000000000E+00  0.00000E+00  9.000E+00
      25     1     1     2     0     0 -8.399916374E+01 -2.471373147E+02 -5.393881121E+01  2.943927771E+02  1.250000000E+02  0.00000E+00  9.000E+00
      25     1     1     2     0     0  6.320085475E+01  2.442905635E+02  2.388425645E+02  3.692465275E+02  1.250000000E+02  0.00000E+00  9.000E+00
      21     1     1     2   511   502  2.079830899E+01  2.846751269E+00  2.735836621E+01  3.448411013E+01  4.768371582E-07  0.00000E+00  9.000E+00
#rwgt            1           1   2.9579917543066603E-002           2      385676           0
</event>
<event>
      5   9999  3.79277E-02  2.48213E+01 -1.00000E+00  1.58985E-01
      21    -1     0     0   502   501  0.000000000E+00  0.000000000E+00  1.227709498E+03  1.227709498E+03  0.000000000E+00  0.00000E+00  9.000E+00
      21    -1     0     0   512   502  0.000000000E+00  0.000000000E+00 -1.326828617E+02  1.326828617E+02  0.000000000E+00  0.00000E+00  9.000E+00
      25     1     1     2     0     0 -1.886807228E+01  3.355489382E+02  2.559999285E+02  4.405792295E+02  1.250000000E+02  0.00000E+00  9.000E+00
      25     1     1     2     0     0  4.067214797E+01 -3.236880769E+02  8.063388218E+02  8.787693044E+02  1.250000000E+02  0.00000E+00  9.000E+00
      21     1     1     2   512   501 -2.180407569E+01 -1.186086130E+01  3.268788633E+01  4.104382609E+01  8.259061849E-07  0.00000E+00  9.000E+00
#rwgt            1           1   5.2683584579699939E-002           2      385863           0
</event>
<event>
      5   9999  3.79277E-02  2.16086E+01 -1.00000E+00  1.63644E-01
      21    -1     0     0   502   501  0.000000000E+00  0.000000000E+00  8.183450695E+02  8.183450695E+02  0.000000000E+00  0.00000E+00  9.000E+00
      21    -1     0     0   501   511  0.000000000E+00  0.000000000E+00 -1.724732436E+02  1.724732436E+02  0.000000000E+00  0.00000E+00  9.000E+00
      25     1     1     2     0     0 -1.276719479E+01 -1.802731061E+02  4.917717534E+02  5.386333183E+02  1.250000000E+02  0.00000E+00  9.000E+00
      25     1     1     2     0     0  1.469447632E+01  2.017955446E+02  2.551774867E+02  3.488236219E+02  1.250000000E+02  0.00000E+00  9.000E+00
      21     1     1     2   502   511 -1.927281529E+00 -2.152243847E+01 -1.010774142E+02  1.033613731E+02  1.907348633E-06  0.00000E+00  9.000E+00
#rwgt            1           1   3.7323117431775105E-002           2      386057           0
</event>
<event>
      5   9999  3.79277E-02  2.47560E+01 -1.00000E+00  1.59071E-01
      21    -1     0     0   502   501  0.000000000E+00  0.000000000E+00  1.267059688E+02  1.267059688E+02  0.000000000E+00  0.00000E+00  9.000E+00
      21    -1     0     0   512   502  0.000000000E+00  0.000000000E+00 -4.640912535E+02  4.640912535E+02  0.000000000E+00  0.00000E+00  9.000E+00
      25     1     1     2     0     0 -1.452793674E+02  9.257760316E+01 -1.196249703E+02  2.441553619E+02  1.250000000E+02  0.00000E+00  9.000E+00
      25     1     1     2     0     0  1.462139043E+02 -1.173159967E+02 -1.405447614E+02  2.655548510E+02  1.250000000E+02  0.00000E+00  9.000E+00
      21     1     1     2   512   501 -9.345368769E-01  2.473839357E+01 -7.721555296E+01  8.108700941E+01  0.000000000E+00  0.00000E+00  9.000E+00
#rwgt            1           1   4.2300751882275438E-002           2      386275           0
</event>
<event>
      5   9999  3.79277E-02  4.25468E+01 -1.00000E+00  1.43197E-01
      21    -1     0     0   502   501  0.000000000E+00  0.000000000E+00  8.198068156E+01  8.198068156E+01  0.000000000E+00  0.00000E+00  9.000E+00
      21    -1     0     0   511   502  0.000000000E+00  0.000000000E+00 -1.027245262E+03  1.027245262E+03  0.000000000E+00  0.00000E+00  9.000E+00
      25     1     1     2     0     0  6.825925079E+01 -2.256224827E+01 -1.599874881E+01  1.450839079E+02  1.250000000E+02  0.00000E+00  9.000E+00
      25     1     1     2     0     0 -1.080266835E+02  3.768784751E+01 -4.170476425E+02  4.501598319E+02  1.250000000E+02  0.00000E+00  9.000E+00
      21     1     1     2   511   501  3.976743266E+01 -1.512559924E+01 -5.122181890E+02  5.139822036E+02  1.078959322E-05  0.00000E+00  9.000E+00
#rwgt            1           1   3.4383704012971257E-002           2      386508           0
</event>
<event>
      5   9999  3.79277E-02  2.66964E+01 -1.00000E+00  1.56644E-01
      21    -1     0     0   502   501  0.000000000E+00  0.000000000E+00  8.149800476E+02  8.149800476E+02  0.000000000E+00  0.00000E+00  9.000E+00
      21    -1     0     0   501   512  0.000000000E+00  0.000000000E+00 -3.097326448E+02  3.097326448E+02  0.000000000E+00  0.00000E+00  9.000E+00
      25     1     1     2     0     0  1.007716309E+01  7.590459051E+01  1.000679062E+02  1.774870191E+02  1.250000000E+02  0.00000E+00  9.000E+00
      25     1     1     2     0     0 -1.254064505E+01 -1.024871092E+02  6.657926887E+02  6.852486992E+02  1.250000000E+02  0.00000E+00  9.000E+00
      21     1     1     2   502   512  2.463481963E+00  2.658251870E+01 -2.606131922E+02  2.619769742E+02  5.394796609E-06  0.00000E+00  9.000E+00
#rwgt            1           1   1.7020448272867961E-002           2      386639           0
</event>
<event>
      5   9999  3.79277E-02  5.63052E+01 -1.00000E+00  1.36195E-01
      21    -1     0     0   511   501  0.000000000E+00  0.000000000E+00  1.083148382E+02  1.083148382E+02  0.000000000E+00  0.00000E+00  9.000E+00
      21    -1     0     0   501   502  0.000000000E+00  0.000000000E+00 -5.549295450E+02  5.549295450E+02  0.000000000E+00  0.00000E+00  9.000E+00
      25     1     1     2     0     0 -1.976832008E+01  1.487627777E+02 -6.930011800E+01  2.072405773E+02  1.250000000E+02  0.00000E+00  9.000E+00
      25     1     1     2     0     0  4.100635788E+01 -9.661657965E+01 -3.628488025E+02  3.978700018E+02  1.250000000E+02  0.00000E+00  9.000E+00
      21     1     1     2   511   502 -2.123803779E+01 -5.214619804E+01 -1.446578628E+01  5.813380421E+01  9.233911863E-07  0.00000E+00  9.000E+00
#rwgt            1           1   3.5974803165799998E-002           2      386832           0
</event>
<event>
      5   9999  3.79277E-02  2.26140E+01 -1.00000E+00  1.62084E-01
      -4    -1     0     0     0   501  0.000000000E+00  0.000000000E+00  4.734257551E+02  4.734257551E+02  0.000000000E+00  0.00000E+00  9.000E+00
      21    -1     0     0   501   502  0.000000000E+00  0.000000000E+00 -1.984438591E+02  1.984438591E+02  0.000000000E+00  0.00000E+00  9.000E+00
      25     1     1     2     0     0  7.101724406E+01  6.503131231E+01 -6.469692765E+01  1.705380104E+02  1.250000000E+02  0.00000E+00  9.000E+00
      25     1     1     2     0     0 -8.858771704E+01 -7.926764949E+01  1.204655020E+01  1.729198174E+02  1.250000000E+02  0.00000E+00  9.000E+00
      -4     1     1     2     0   502  1.757047298E+01  1.423633718E+01  3.276322735E+02  3.284117864E+02  5.394796609E-06  0.00000E+00  9.000E+00
#rwgt            1           1   4.6894314045566009E-002           2      386880           0
</event>
<event>
      5   9999  3.79277E-02  5.34349E+01 -1.00000E+00  1.37449E-01
      21    -1     0     0   502   501  0.000000000E+00  0.000000000E+00  8.910990917E+01  8.910990917E+01  0.000000000E+00  0.00000E+00  9.000E+00
       1    -1     0     0   501     0  0.000000000E+00  0.000000000E+00 -1.731459363E+03  1.731459363E+03  0.000000000E+00  0.00000E+00  9.000E+00
      25     1     1     2     0     0  5.043672479E+01 -1.145114782E+01 -5.107347697E-01  1.352784271E+02  1.250000000E+02  0.00000E+00  9.000E+00
      25     1     1     2     0     0 -9.217214067E+01 -2.191710104E+01 -2.688133550E+02  3.112260957E+02  1.250000000E+02  0.00000E+00  9.000E+00
       1     1     1     2   502     0  4.173541588E+01  3.336824886E+01 -1.373025364E+03  1.374064749E+03  0.000000000E+00  0.00000E+00  9.000E+00
#rwgt            1           1   3.1692414328897467E-002           2      387084           0
</event>
<event>
      5   9999  3.79277E-02  6.18208E+01 -1.00000E+00  1.34013E-01
      21    -1     0     0   511   501  0.000000000E+00  0.000000000E+00  1.351383747E+03  1.351383747E+03  0.000000000E+00  0.00000E+00  9.000E+00
      21    -1     0     0   501   502  0.000000000E+00  0.000000000E+00 -9.016049951E+01  9.016049951E+01  0.000000000E+00  0.00000E+00  9.000E+00
      25     1     1     2     0     0 -1.392384896E+02  1.742688486E+01  5.958348787E+01  1.971452392E+02  1.250000000E+02  0.00000E+00  9.000E+00
      25     1     1     2     0     0  1.072434068E+02 -7.032418394E+01  3.762377293E+02  4.166850946E+02  1.250000000E+02  0.00000E+00  9.000E+00
      21     1     1     2   511   502  3.199508290E+01  5.289729908E+01  8.254020302E+02  8.277139126E+02  1.078959322E-05  0.00000E+00  9.000E+00
#rwgt            1           1   4.3941518751405749E-002           2      387203           0
</event>
<event>
      5   9999  3.79277E-02  1.75546E+02 -1.00000E+00  1.13749E-01
      21    -1     0     0   502   501  0.000000000E+00  0.000000000E+00  1.360364914E+02  1.360364914E+02  0.000000000E+00  0.00000E+00  9.000E+00
      21    -1     0     0   501   512  0.000000000E+00  0.000000000E+00 -1.722416314E+03  1.722416314E+03  0.000000000E+00  0.00000E+00  9.000E+00
      25     1     1     2     0     0  1.127171923E+02 -9.025607661E+01  1.725131644E+01  1.917653064E+02  1.250000000E+02  0.00000E+00  9.000E+00
      25     1     1     2     0     0  3.790119009E+01  1.804262306E+02 -4.767907826E+02  5.262552377E+02  1.250000000E+02  0.00000E+00  9.000E+00
      21     1     1     2   502   512 -1.506183824E+02 -9.017015395E+01 -1.126840357E+03  1.140432262E+03  1.525878906E-05  0.00000E+00  9.000E+00
#rwgt            1           1   3.6952257353753654E-002           2      387429           0
</event>
<event>
      5   9999  3.79277E-02  8.79972E+01 -1.00000E+00  1.26378E-01
      21    -1     0     0   502   501  0.000000000E+00  0.000000000E+00  7.627721923E+02  7.627721923E+02  0.000000000E+00  0.00000E+00  9.000E+00
      21    -1     0     0   511   502  0.000000000E+00  0.000000000E+00 -1.387684559E+02  1.387684559E+02  0.000000000E+00  0.00000E+00  9.000E+00
      25     1     1     2     0     0  1.726148238E+02 -7.063632687E+01  5.286073861E+02  5.743136223E+02  1.250000000E+02  0.00000E+00  9.000E+00
      25     1     1     2     0     0 -9.907821388E+01  2.230549624E+01  1.529258413E+02  2.220930899E+02  1.250000000E+02  0.00000E+00  9.000E+00
      21     1     1     2   511   501 -7.353660993E+01  4.833083064E+01 -5.752949103E+01  1.051339361E+02  3.693564745E-06  0.00000E+00  9.000E+00
#rwgt            1           1   4.6376383885294518E-002           2      387474           0
</event>
<event>
      5   9999  3.79277E-02  5.00737E+01 -1.00000E+00  1.39039E-01
      21    -1     0     0   502   501  0.000000000E+00  0.000000000E+00  8.569784741E+01  8.569784741E+01  0.000000000E+00  0.00000E+00  9.000E+00
       2    -1     0     0   501     0  0.000000000E+00  0.000000000E+00 -1.853496561E+03  1.853496561E+03  0.000000000E+00  0.00000E+00  9.000E+00
      25     1     1     2     0     0  4.864465211E+00  1.301603801E+02 -6.749790118E+01  1.927338949E+02  1.250000000E+02  0.00000E+00  9.000E+00
      25     1     1     2     0     0 -5.258420770E+01 -1.149879672E+02 -3.267047311E+02  3.719520303E+02  1.250000000E+02  0.00000E+00  9.000E+00
       2     1     1     2   502     0  4.771974249E+01 -1.517241294E+01 -1.373596081E+03  1.374508483E+03  1.525878906E-05  0.00000E+00  9.000E+00
#rwgt            1           1   4.1207755731817480E-002           2      387589           0
</event>
<event>
      5   9999  3.79277E-02  6.36519E+01 -1.00000E+00  1.33346E-01
      21    -1     0     0   502   501  0.000000000E+00  0.000000000E+00  3.362618292E+02  3.362618292E+02  0.000000000E+00  0.00000E+00  9.000E+00
      21    -1     0     0   501   511  0.000000000E+00  0.000000000E+00 -3.362475909E+02  3.362475909E+02  0.000000000E+00  0.00000E+00  9.000E+00
      25     1     1     2     0     0 -7.724275250E+01 -1.370439432E+02  2.340505037E+02  3.084673783E+02  1.250000000E+02  0.00000E+00  9.000E+00
      25     1     1     2     0     0  1.321140448E+02  1.047838852E+02 -1.471855730E+02  2.563637578E+02  1.250000000E+02  0.00000E+00  9.000E+00
      21     1     1     2   502   511 -5.487129230E+01  3.226005798E+01 -8.685069244E+01  1.076782840E+02  0.000000000E+00  0.00000E+00  9.000E+00
#rwgt            1           1   2.6367739146570601E-002           2      387764           0
</event>
<event>
      5   9999  3.79277E-02  1.10583E+02 -1.00000E+00  1.21894E-01
      21    -1     0     0   502   501  0.000000000E+00  0.000000000E+00  1.031523771E+02  1.031523771E+02  0.000000000E+00  0.00000E+00  9.000E+00
      21    -1     0     0   501   512  0.000000000E+00  0.000000000E+00 -1.053206981E+03  1.053206981E+03  0.000000000E+00  0.00000E+00  9.000E+00
      25     1     1     2     0     0 -1.669460280E+02 -1.046251673E+02 -1.084797093E+02  2.573135232E+02  1.250000000E+02  0.00000E+00  9.000E+00
      25     1     1     2     0     0  1.266581090E+02  1.641980185E+00 -3.226968768E+02  3.685149210E+02  1.250000000E+02  0.00000E+00  9.000E+00
      21     1     1     2   502   512  4.028791898E+01  1.029831872E+02 -5.188780182E+02  5.305309143E+02  7.629394531E-06  0.00000E+00  9.000E+00
#rwgt            1           1   3.4039590923890223E-002           2      387913           0
</event>
<event>
      5   9999  3.79277E-02  2.32383E+02 -1.00000E+00  1.09326E-01
      21    -1     0     0   502   511  0.000000000E+00  0.000000000E+00  2.464037513E+03  2.464037513E+03  0.000000000E+00  0.00000E+00  9.000E+00
      21    -1     0     0   501   502  0.000000000E+00  0.000000000E+00 -6.914751118E+02  6.914751118E+02  0.000000000E+00  0.00000E+00  9.000E+00
      25     1     1     2     0     0  1.700645269E+02  2.299112887E+02 -3.850984484E+02  4.956883688E+02  1.250000000E+02  0.00000E+00  9.000E+00
      25     1     1     2     0     0 -5.033142404E+01 -3.074866531E+01 -2.259719389E+02  2.648906375E+02  1.250000000E+02  0.00000E+00  9.000E+00
      21     1     1     2   501   511 -1.197331028E+02 -1.991626234E+02  2.383632789E+03  2.394933619E+03  4.315837288E-05  0.00000E+00  9.000E+00
#rwgt            1           1   3.7600130476593989E-002           2      388142           0
</event>
<event>
      5   9999  3.79277E-02  4.25341E+01 -1.00000E+00  1.43205E-01
      21    -1     0     0   512   501  0.000000000E+00  0.000000000E+00  6.525800824E+02  6.525800824E+02  0.000000000E+00  0.00000E+00  9.000E+00
      21    -1     0     0   501   502  0.000000000E+00  0.000000000E+00 -2.029752352E+02  2.029752352E+02  0.000000000E+00  0.00000E+00  9.000E+00
      25     1     1     2     0     0 -1.661173332E+02  4.172234392E+01  2.689851807E+02  3.425109485E+02  1.250000000E+02  0.00000E+00  9.000E+00
      25     1     1     2     0     0  1.698149142E+02  6.507073062E-01 -9.705892143E+01  2.321270401E+02  1.250000000E+02  0.00000E+00  9.000E+00
      21     1     1     2   512   502 -3.697580984E+00 -4.237305122E+01  2.776785879E+02  2.809173291E+02  3.814697266E-06  0.00000E+00  9.000E+00
#rwgt            1           1  0.11120541142620538                2      388217           0
</event>
<event>
      5   9999 -3.79277E-02  1.66513E+01 -1.00000E+00  1.73215E-01
      21    -1     0     0   502   501  0.000000000E+00  0.000000000E+00  5.873919729E+01  5.873919729E+01  0.000000000E+00  0.00000E+00  9.000E+00
      21    -1     0     0   501   511  0.000000000E+00  0.000000000E+00 -1.110841713E+03  1.110841713E+03  0.000000000E+00  0.00000E+00  9.000E+00
      25     1     1     2     0     0 -1.995295421E+01 -1.707060835E+02 -7.805110029E+02  8.089259008E+02  1.250000000E+02  0.00000E+00  9.000E+00
      25     1     1     2     0     0  4.605338197E+00  1.771649939E+02 -2.313597136E+02  3.171134833E+02  1.250000000E+02  0.00000E+00  9.000E+00
      21     1     1     2   502   511  1.534761602E+01 -6.458910428E+00 -4.023179950E+01  4.354152653E+01  4.768371582E-07  0.00000E+00  9.000E+00
#rwgt            1           1 -0.13628763658904947                2      388435           0
</event>
<event>
      5   9999  3.79277E-02  3.16919E+01 -1.00000E+00  1.51403E-01
      21    -1     0     0   502   512  0.000000000E+00  0.000000000E+00  5.329175836E+02  5.329175836E+02  0.000000000E+00  0.00000E+00  9.000E+00
      21    -1     0     0   501   502  0.000000000E+00  0.000000000E+00 -2.074665113E+02  2.074665113E+02  0.000000000E+00  0.00000E+00  9.000E+00
      25     1     1     2     0     0 -8.060172629E+01  7.675997621E+01 -1.430310785E+02  2.201627163E+02  1.250000000E+02  0.00000E+00  9.000E+00
      25     1     1     2     0     0  4.893450787E+01 -7.550975092E+01  2.133810486E+02  2.631592302E+02  1.250000000E+02  0.00000E+00  9.000E+00
      21     1     1     2   501   512  3.166721842E+01 -1.250225292E+00  2.551011023E+02  2.570621484E+02  2.697398305E-06  0.00000E+00  9.000E+00
#rwgt            1           1   3.2304651356623741E-002           2      388715           0
</event>
<event>
      5   9999 -3.79277E-02  2.26515E+01 -1.00000E+00  1.62028E-01
      21    -1     0     0   511   501  0.000000000E+00  0.000000000E+00  3.829207384E+01  3.829207384E+01  0.000000000E+00  0.00000E+00  9.000E+00
      21    -1     0     0   501   502  0.000000000E+00  0.000000000E+00 -1.396170719E+03  1.396170719E+03  0.000000000E+00  0.00000E+00  9.000E+00
      25     1     1     2     0     0  3.270970837E+01 -1.662542157E+02 -6.366192353E+02  6.705366806E+02  1.250000000E+02  0.00000E+00  9.000E+00
      25     1     1     2     0     0 -4.129731871E+01  1.872146979E+02 -6.647966496E+02  7.030891814E+02  1.250000000E+02  0.00000E+00  9.000E+00
      21     1     1     2   511   502  8.587610341E+00 -2.096048221E+01 -5.646276055E+01  6.083693118E+01  6.743495762E-07  0.00000E+00  9.000E+00
#rwgt            1           1 -0.14550920640915310                2      388985           0
</event>
<event>
      5   9999  3.79277E-02  3.70883E+01 -1.00000E+00  1.46906E-01
      21    -1     0     0   502   512  0.000000000E+00  0.000000000E+00  2.256163640E+03  2.256163640E+03  0.000000000E+00  0.00000E+00  9.000E+00
      21    -1     0     0   501   502  0.000000000E+00  0.000000000E+00 -3.509723988E+01  3.509723988E+01  0.000000000E+00  0.00000E+00  9.000E+00
      25     1     1     2     0     0 -2.236329406E+01  1.720924308E+02  3.780182219E+02  4.343255666E+02  1.250000000E+02  0.00000E+00  9.000E+00
      25     1     1     2     0     0  2.450384061E+01 -1.350659965E+02  1.645073962E+03  1.655517020E+03  1.250000000E+02  0.00000E+00  9.000E+00
      21     1     1     2   501   512 -2.140546552E+00 -3.702643430E+01  1.979742160E+02  2.014182936E+02  0.000000000E+00  0.00000E+00  9.000E+00
#rwgt            1           1  0.27182277856808423                2      389222           0
</event>
<event>
      5   9999  3.79277E-02  3.65642E+01 -1.00000E+00  1.47301E-01
      21    -1     0     0   502   501  0.000000000E+00  0.000000000E+00  4.911384783E+02  4.911384783E+02  0.000000000E+00  0.00000E+00  9.000E+00
      21    -1     0     0   501   511  0.000000000E+00  0.000000000E+00 -7.033303200E+01  7.033303200E+01  0.000000000E+00  0.00000E+00  9.000E+00
      25     1     1     2     0     0  1.055244295E+02  2.363608344E+01  1.481851289E+02  2.219862656E+02  1.250000000E+02  0.00000E+00  9.000E+00
      25     1     1     2     0     0 -7.537378038E+01 -4.432123674E+01  2.587671198E+02  3.003847551E+02  1.250000000E+02  0.00000E+00  9.000E+00
      21     1     1     2   502   511 -3.015064913E+01  2.068515330E+01  1.385319759E+01  3.910048968E+01  5.331201500E-07  0.00000E+00  9.000E+00
#rwgt            1           1   2.1721823499386120E-002           2      389332           0
</event>
<event>
      5   9999  3.79277E-02  3.04865E+01 -1.00000E+00  1.52556E-01
      21    -1     0     0   512   501  0.000000000E+00  0.000000000E+00  2.130181678E+03  2.130181678E+03  0.000000000E+00  0.00000E+00  9.000E+00
      21    -1     0     0   501   502  0.000000000E+00  0.000000000E+00 -6.307085778E+01  6.307085778E+01  0.000000000E+00  0.00000E+00  9.000E+00
      25     1     1     2     0     0  1.461386145E+02  1.334991366E+02  1.967852889E+02  3.058234197E+02  1.250000000E+02  0.00000E+00  9.000E+00
      25     1     1     2     0     0 -1.160229811E+02 -1.382401965E+02  1.518892763E+03  1.534676484E+03  1.250000000E+02  0.00000E+00  9.000E+00
      21     1     1     2   512   502 -3.011563335E+01  4.741059938E+00  3.514327685E+02  3.527526326E+02  5.394796609E-06  0.00000E+00  9.000E+00
#rwgt            2          11   8.6404188032346144E-004           2      389536           0
</event>
<event>
      5   9999  3.79277E-02  1.89670E+02 -1.00000E+00  1.12493E-01
      21    -1     0     0   511   501  0.000000000E+00  0.000000000E+00  9.731793780E+02  9.731793780E+02  0.000000000E+00  0.00000E+00  9.000E+00
      21    -1     0     0   501   502  0.000000000E+00  0.000000000E+00 -7.268616246E+02  7.268616246E+02  0.000000000E+00  0.00000E+00  9.000E+00
      25     1     1     2     0     0  7.115429638E+00  1.576635593E+02 -3.072291164E+02  3.673188768E+02  1.250000000E+02  0.00000E+00  9.000E+00
      25     1     1     2     0     0  1.800174981E+02 -1.885844773E+02 -3.243850489E+02  4.345354584E+02  1.250000000E+02  0.00000E+00  9.000E+00
      21     1     1     2   511   502 -1.871329277E+02  3.092091791E+01  8.779319187E+02  8.981866674E+02  0.000000000E+00  0.00000E+00  9.000E+00
#rwgt            1           1   3.9089939206676694E-002           2      389571           0
</event>
<event>
      5   9999  3.79277E-02  4.23306E+01 -1.00000E+00  1.43331E-01
      21    -1     0     0   512   501  0.000000000E+00  0.000000000E+00  2.175059952E+02  2.175059952E+02  0.000000000E+00  0.00000E+00  9.000E+00
      21    -1     0     0   501   502  0.000000000E+00  0.000000000E+00 -5.988535648E+02  5.988535648E+02  0.000000000E+00  0.00000E+00  9.000E+00
      25     1     1     2     0     0  9.667549762E+01 -1.289563510E+02 -4.567178029E+02  5.001920069E+02  1.250000000E+02  0.00000E+00  9.000E+00
      25     1     1     2     0     0 -6.465099039E+01  1.566385960E+02 -2.030290512E+01  2.115481228E+02  1.250000000E+02  0.00000E+00  9.000E+00
      21     1     1     2   512   502 -3.202450723E+01 -2.768224500E+01  9.567313846E+01  1.046194302E+02  2.697398305E-06  0.00000E+00  9.000E+00
#rwgt            1           1   6.4750466732013026E-002           2      389603           0
</event>
<event>
      5   9999  3.79277E-02  5.91073E+01 -1.00000E+00  1.35052E-01
      21    -1     0     0   511   501  0.000000000E+00  0.000000000E+00  2.245316644E+02  2.245316644E+02  0.000000000E+00  0.00000E+00  9.000E+00
      21    -1     0     0   501   502  0.000000000E+00  0.000000000E+00 -3.164944284E+02  3.164944284E+02  0.000000000E+00  0.00000E+00  9.000E+00
      25     1     1     2     0     0  1.131861080E+01 -5.456324552E+01  1.416727853E+02  1.969808032E+02  1.250000000E+02  0.00000E+00  9.000E+00
      25     1     1     2     0     0  1.745153141E+01  1.061960821E+02 -2.323234950E+02  2.849234461E+02  1.250000000E+02  0.00000E+00  9.000E+00
      21     1     1     2   511   502 -2.877014221E+01 -5.163283660E+01 -1.312054449E+00  5.912184355E+01  6.431711273E-07  0.00000E+00  9.000E+00
#rwgt            1           1   5.1429732378128014E-002           2      389822           0
</event>
<event>
      5   9999  3.79277E-02  5.08138E+01 -1.00000E+00  1.38677E-01
      21    -1     0     0   502   501  0.000000000E+00  0.000000000E+00  2.334625851E+02  2.334625851E+02  0.000000000E+00  0.00000E+00  9.000E+00
       2    -1     0     0   501     0  0.000000000E+00  0.000000000E+00 -1.265298357E+03  1.265298357E+03  0.000000000E+00  0.00000E+00  9.000E+00
      25     1     1     2     0     0 -5.649769663E+01  1.686946909E+02  2.227690981E+01  2.185661208E+02  1.250000000E+02  0.00000E+00  9.000E+00
      25     1     1     2     0     0  4.609574531E+01 -1.189570127E+02  4.153191368E+01  1.833725401E+02  1.250000000E+02  0.00000E+00  9.000E+00
       2     1     1     2   502     0  1.040195132E+01 -4.973767813E+01 -1.095644595E+03  1.096822281E+03  1.525878906E-05  0.00000E+00  9.000E+00
#rwgt            1           1   3.7063589225538061E-002           2      390058           0
</event>
<event>
      5   9999  3.79277E-02  3.30882E+01 -1.00000E+00  1.50142E-01
      21    -1     0     0   502   501  0.000000000E+00  0.000000000E+00  7.735946582E+01  7.735946582E+01  0.000000000E+00  0.00000E+00  9.000E+00
      21    -1     0     0   511   502  0.000000000E+00  0.000000000E+00 -9.082481737E+02  9.082481737E+02  0.000000000E+00  0.00000E+00  9.000E+00
      25     1     1     2     0     0  4.520609186E+01 -1.090959701E+02 -5.979586274E+01  1.820606125E+02  1.250000000E+02  0.00000E+00  9.000E+00
      25     1     1     2     0     0 -2.116316890E+01  8.636345779E+01 -3.625626286E+02  3.936790396E+02  1.250000000E+02  0.00000E+00  9.000E+00
      21     1     1     2   511   501 -2.404292296E+01  2.273251231E+01 -4.085302165E+02  4.098679874E+02  5.394796609E-06  0.00000E+00  9.000E+00
#rwgt            1           1   5.0117738207495294E-002           2      390180           0
</event>
<event>
      5   9999  3.79277E-02  7.80351E+00 -1.00000E+00  2.09093E-01
      21    -1     0     0   512   501  0.000000000E+00  0.000000000E+00  3.305420543E+02  3.305420543E+02  0.000000000E+00  0.00000E+00  9.000E+00
      21    -1     0     0   501   502  0.000000000E+00  0.000000000E+00 -3.280614645E+02  3.280614645E+02  0.000000000E+00  0.00000E+00  9.000E+00
      25     1     1     2     0     0  3.048726580E+00 -4.808151653E+01 -2.749450065E+02  3.058445415E+02  1.250000000E+02  0.00000E+00  9.000E+00
      25     1     1     2     0     0  4.015808401E+00  4.476684464E+01  7.976423050E+01  1.549436335E+02  1.250000000E+02  0.00000E+00  9.000E+00
      21     1     1     2   512   502 -7.064534981E+00  3.314671883E+00  1.976613658E+02  1.978153438E+02  0.000000000E+00  0.00000E+00  9.000E+00
#rwgt            1           1   3.7219882232590797E-002           2      390459           0
</event>
<event>
      5   9999  3.79277E-02  2.87400E+01 -1.00000E+00  1.54345E-01
      21    -1     0     0   502   511  0.000000000E+00  0.000000000E+00  5.529446323E+01  5.529446323E+01  0.000000000E+00  0.00000E+00  9.000E+00
      21    -1     0     0   501   502  0.000000000E+00  0.000000000E+00 -1.496873197E+03  1.496873197E+03  0.000000000E+00  0.00000E+00  9.000E+00
      25     1     1     2     0     0  1.748948962E+02 -6.482400303E+01 -2.484336248E+02  3.348651102E+02  1.250000000E+02  0.00000E+00  9.000E+00
      25     1     1     2     0     0 -1.490462261E+02  5.226072718E+01 -1.131486072E+03  1.149274420E+03  1.250000000E+02  0.00000E+00  9.000E+00
      21     1     1     2   501   511 -2.584867013E+01  1.256327586E+01 -6.165903678E+01  6.802812995E+01  6.743495762E-07  0.00000E+00  9.000E+00
#rwgt            1           1   4.7791791944111185E-002           2      390964           0
</event>
<event>
      5   9999  3.79277E-02  5.83725E+01 -1.00000E+00  1.35345E-01
      21    -1     0     0   502   501  0.000000000E+00  0.000000000E+00  1.037045353E+03  1.037045353E+03  0.000000000E+00  0.00000E+00  9.000E+00
      21    -1     0     0   512   502  0.000000000E+00  0.000000000E+00 -2.530903331E+02  2.530903331E+02  0.000000000E+00  0.00000E+00  9.000E+00
      25     1     1     2     0     0 -7.596319439E+00  1.587564919E+02  4.147034804E+02  4.613732811E+02  1.250000000E+02  0.00000E+00  9.000E+00
      25     1     1     2     0     0  6.408434012E+00 -1.003960727E+02  5.843009419E+02  6.059315392E+02  1.250000000E+02  0.00000E+00  9.000E+00
      21     1     1     2   512   501  1.187885427E+00 -5.836041915E+01 -2.150494021E+02  2.228308662E+02  5.394796609E-06  0.00000E+00  9.000E+00
#rwgt            1           1   3.8300293199555288E-002           2      391161           0
</event>
<event>
      5   9999  3.79277E-02  3.15820E+01 -1.00000E+00  1.51506E-01
      21    -1     0     0   502   501  0.000000000E+00  0.000000000E+00  3.720932167E+01  3.720932167E+01  0.000000000E+00  0.00000E+00  9.000E+00
      21    -1     0     0   511   502  0.000000000E+00  0.000000000E+00 -1.521957512E+03  1.521957512E+03  0.000000000E+00  0.00000E+00  9.000E+00
      25     1     1     2     0     0  1.708568692E+02 -9.786899400E+01 -6.383467861E+02  6.796190323E+02  1.250000000E+02  0.00000E+00  9.000E+00
      25     1     1     2     0     0 -1.418193731E+02  8.544942336E+01 -7.445007785E+02  7.728652843E+02  1.250000000E+02  0.00000E+00  9.000E+00
      21     1     1     2   511   501 -2.903749614E+01  1.241957065E+01 -1.019006256E+02  1.066825169E+02  2.336015456E-06  0.00000E+00  9.000E+00
#rwgt            1           1   1.7536196890255058E-002           2      391227           0
</event>
<event>
      5   9999  3.79277E-02  6.67434E+01 -1.00000E+00  1.32277E-01
      21    -1     0     0   502   501  0.000000000E+00  0.000000000E+00  1.322243607E+02  1.322243607E+02  0.000000000E+00  0.00000E+00  9.000E+00
      21    -1     0     0   501   512  0.000000000E+00  0.000000000E+00 -5.572361425E+02  5.572361425E+02  0.000000000E+00  0.00000E+00  9.000E+00
      25     1     1     2     0     0 -1.003904971E+02  1.565512505E+02 -1.352708770E+02  2.617436840E+02  1.250000000E+02  0.00000E+00  9.000E+00
      25     1     1     2     0     0  8.753210919E+01 -9.105812645E+01 -5.857455518E+01  1.871080732E+02  1.250000000E+02  0.00000E+00  9.000E+00
      21     1     1     2   502   512  1.285838788E+01 -6.549312406E+01 -2.311663497E+02  2.406087460E+02  2.697398305E-06  0.00000E+00  9.000E+00
#rwgt            1           1   2.1355066037262230E-002           2      391408           0
</event>
<event>
      5   9999  3.79277E-02  5.86041E+01 -1.00000E+00  1.35252E-01
      21    -1     0     0   502   511  0.000000000E+00  0.000000000E+00  5.959037217E+02  5.959037217E+02  0.000000000E+00  0.00000E+00  9.000E+00
      21    -1     0     0   501   502  0.000000000E+00  0.000000000E+00 -2.258674452E+02  2.258674452E+02  0.000000000E+00  0.00000E+00  9.000E+00
      25     1     1     2     0     0  2.732259247E+02  1.091828436E+01 -1.220506038E+01  3.009079234E+02  1.250000000E+02  0.00000E+00  9.000E+00
      25     1     1     2     0     0 -2.587247733E+02 -6.769998526E+01  3.173515899E+02  4.334268426E+02  1.250000000E+02  0.00000E+00  9.000E+00
      21     1     1     2   501   511 -1.450115136E+01  5.678170090E+01  6.488974701E+01  8.743640097E+01  9.536743164E-07  0.00000E+00  9.000E+00
#rwgt            1           1   2.3283124638480469E-002           2      391504           0
</event>
<event>
      5   9999  3.79277E-02  3.92659E+01 -1.00000E+00  1.45341E-01
      21    -1     0     0   502   501  0.000000000E+00  0.000000000E+00  1.255429206E+02  1.255429206E+02  0.000000000E+00  0.00000E+00  9.000E+00
       1    -1     0     0   501     0  0.000000000E+00  0.000000000E+00 -1.397973537E+03  1.397973537E+03  0.000000000E+00  0.00000E+00  9.000E+00
      25     1     1     2     0     0  3.371587525E+01 -1.010677662E+02 -3.102847366E+02  3.510741679E+02  1.250000000E+02  0.00000E+00  9.000E+00
      25     1     1     2     0     0 -1.742695748E+00  1.238608615E+02  3.085436747E+01  1.786660068E+02  1.250000000E+02  0.00000E+00  9.000E+00
       1     1     1     2   502     0 -3.197317950E+01 -2.279309526E+01 -9.930002474E+02  9.937762831E+02  1.078959322E-05  0.00000E+00  9.000E+00
#rwgt            1           1   3.5968568055907001E-002           2      391628           0
</event>
<event>
      5   9999  3.79277E-02  3.40682E+01 -1.00000E+00  1.49300E-01
      21    -1     0     0   502   511  0.000000000E+00  0.000000000E+00  4.605957318E+01  4.605957318E+01  0.000000000E+00  0.00000E+00  9.000E+00
      21    -1     0     0   501   502  0.000000000E+00  0.000000000E+00 -1.298212238E+03  1.298212238E+03  0.000000000E+00  0.00000E+00  9.000E+00
      25     1     1     2     0     0 -1.201485324E+02 -8.276475661E+01 -8.703933473E+02  8.913446325E+02  1.250000000E+02  0.00000E+00  9.000E+00
      25     1     1     2     0     0  1.377271114E+02  5.358199256E+01 -3.687437981E+02  4.164574117E+02  1.250000000E+02  0.00000E+00  9.000E+00
      21     1     1     2   501   511 -1.757857906E+01  2.918276405E+01 -1.301551943E+01  3.646976701E+01  1.066240300E-06  0.00000E+00  9.000E+00
#rwgt            1           1   3.9485897035538155E-002           2      391846           0
</event>
<event>
      5   9999  3.79277E-02  6.45508E+01 -1.00000E+00  1.33028E-01
      21    -1     0     0   502   501  0.000000000E+00  0.000000000E+00  1.333975911E+02  1.333975911E+02  0.000000000E+00  0.00000E+00  9.000E+00
      21    -1     0     0   512   502  0.000000000E+00  0.000000000E+00 -5.364085211E+02  5.364085211E+02  0.000000000E+00  0.00000E+00  9.000E+00
      25     1     1     2     0     0 -9.577014812E+01  1.380309138E+02 -3.125778145E+02  3.762370856E+02  1.250000000E+02  0.00000E+00  9.000E+00
      25     1     1     2     0     0  5.365365815E+01 -8.911249147E+01  2.182357848E+01  1.640762620E+02  1.250000000E+02  0.00000E+00  9.000E+00
      21     1     1     2   512   501  4.211648997E+01 -4.891842236E+01 -1.122566939E+02  1.294927647E+02  0.000000000E+00  0.00000E+00  9.000E+00
#rwgt            1           1   4.3211901184242084E-002           2      392041           0
</event>
<event>
      5   9999 -3.79277E-02  4.87006E+01 -1.00000E+00  1.39731E-01
      21    -1     0     0   502   501  0.000000000E+00  0.000000000E+00  2.615244292E+02  2.615244292E+02  0.000000000E+00  0.00000E+00  9.000E+00
      21    -1     0     0   511   502  0.000000000E+00  0.000000000E+00 -1.761464269E+02  1.761464269E+02  0.000000000E+00  0.00000E+00  9.000E+00
      25     1     1     2     0     0 -9.351881854E+01 -1.899357759E+01 -6.724421787E+01  1.710359911E+02  1.250000000E+02  0.00000E+00  9.000E+00
      25     1     1     2     0     0  9.507070465E+01 -2.968227790E+01  1.478090320E+02  2.176970060E+02  1.250000000E+02  0.00000E+00  9.000E+00
      21     1     1     2   511   501 -1.551886105E+00  4.867585550E+01  4.813188170E+00  4.893785895E+01  7.001960352E-07  0.00000E+00  9.000E+00
#rwgt            1           1  -2.0036073624699509E-002           2      392158           0
</event>
<event>
      5   9999  3.79277E-02  1.20795E+02 -1.00000E+00  1.20247E-01
      21    -1     0     0   502   512  0.000000000E+00  0.000000000E+00  5.509943849E+02  5.509943849E+02  0.000000000E+00  0.00000E+00  9.000E+00
      21    -1     0     0   501   502  0.000000000E+00  0.000000000E+00 -3.658165570E+02  3.658165570E+02  0.000000000E+00  0.00000E+00  9.000E+00
      25     1     1     2     0     0  4.451531277E+01  1.582734383E+02 -2.487081543E+02  3.232844573E+02  1.250000000E+02  0.00000E+00  9.000E+00
      25     1     1     2     0     0  4.253413635E+01 -2.420218481E+02  3.540550214E+02  4.487356525E+02  1.250000000E+02  0.00000E+00  9.000E+00
      21     1     1     2   501   512 -8.704944912E+01  8.374840972E+01  7.983096083E+01  1.447908320E+02  2.697398305E-06  0.00000E+00  9.000E+00
#rwgt            1           1   3.4237179625624246E-002           2      392238           0
</event>
<event>
      5   9999  3.79277E-02  7.44456E+01 -1.00000E+00  1.29881E-01
      21    -1     0     0   502   501  0.000000000E+00  0.000000000E+00  3.507833601E+02  3.507833601E+02  0.000000000E+00  0.00000E+00  9.000E+00
      21    -1     0     0   501   511  0.000000000E+00  0.000000000E+00 -4.250036081E+02  4.250036081E+02  0.000000000E+00  0.00000E+00  9.000E+00
      25     1     1     2     0     0  7.140751719E+01  7.918794046E+01  1.624840283E+02  2.310753619E+02  1.250000000E+02  0.00000E+00  9.000E+00
      25     1     1     2     0     0 -7.526568907E+00 -1.174157557E+02  1.008166265E+02  1.990781281E+02  1.250000000E+02  0.00000E+00  9.000E+00
      21     1     1     2   502   511 -6.388094828E+01  3.822781521E+01 -3.375209028E+02  3.456334782E+02  5.394796609E-06  0.00000E+00  9.000E+00
#rwgt            2          11   2.9343145539697823E-003           2      392337           0
</event>
<event>
      5   9999  3.79277E-02  5.43358E+01 -1.00000E+00  1.37046E-01
      21    -1     0     0   512   501  0.000000000E+00  0.000000000E+00  5.788837271E+02  5.788837271E+02  0.000000000E+00  0.00000E+00  9.000E+00
      21    -1     0     0   501   502  0.000000000E+00  0.000000000E+00 -1.887929890E+02  1.887929890E+02  0.000000000E+00  0.00000E+00  9.000E+00
      25     1     1     2     0     0 -8.768824163E+01 -1.355884238E+02 -9.512307040E+01  2.252706082E+02  1.250000000E+02  0.00000E+00  9.000E+00
      25     1     1     2     0     0  9.468117113E+01  8.170447468E+01  2.889382807E+02  3.387483954E+02  1.250000000E+02  0.00000E+00  9.000E+00
      21     1     1     2   512   502 -6.992929495E+00  5.388394913E+01  1.962755278E+02  2.036577125E+02  2.697398305E-06  0.00000E+00  9.000E+00
#rwgt            1           1   4.1983102533321763E-002           2      392372           0
</event>
<event>
      5   9999  3.79277E-02  8.56508E+01 -1.00000E+00  1.26931E-01
      21    -1     0     0   502   501  0.000000000E+00  0.000000000E+00  1.064210834E+02  1.064210834E+02  0.000000000E+00  0.00000E+00  9.000E+00
      21    -1     0     0   511   502  0.000000000E+00  0.000000000E+00 -8.891141231E+02  8.891141231E+02  0.000000000E+00  0.00000E+00  9.000E+00
      25     1     1     2     0     0 -6.471822968E+01 -1.407036555E+01  3.618652263E+01  1.460167417E+02  1.250000000E+02  0.00000E+00  9.000E+00
      25     1     1     2     0     0  1.093333014E+01 -5.258727228E+01 -4.177336832E+02  4.393306147E+02  1.250000000E+02  0.00000E+00  9.000E+00
      21     1     1     2   511   501  5.378489954E+01  6.665763784E+01 -4.011458791E+02  4.101878502E+02  0.000000000E+00  0.00000E+00  9.000E+00
#rwgt            1           1   4.7107557275039735E-002           2      392520           0
</event>
<event>
      5   9999  3.79277E-02  4.99410E+01 -1.00000E+00  1.39105E-01
      21    -1     0     0   512   501  0.000000000E+00  0.000000000E+00  7.770767131E+01  7.770767131E+01  0.000000000E+00  0.00000E+00  9.000E+00
      21    -1     0     0   501   502  0.000000000E+00  0.000000000E+00 -1.759262764E+03  1.759262764E+03  0.000000000E+00  0.00000E+00  9.000E+00
      25     1     1     2     0     0  8.740257413E+01 -1.713465838E+01 -3.943579609E+01  1.584707812E+02  1.250000000E+02  0.00000E+00  9.000E+00
      25     1     1     2     0     0 -1.115701098E+02  6.083864441E+01 -1.608385281E+03  1.618232814E+03  1.250000000E+02  0.00000E+00  9.000E+00
      21     1     1     2   512   502  2.416753568E+01 -4.370398603E+01 -3.373401633E+01  6.026684025E+01  6.743495762E-07  0.00000E+00  9.000E+00
#rwgt            1           1   2.7598572303510465E-002           2      392645           0
</event>
<event>
      5   9999  3.79277E-02  2.65817E+01 -1.00000E+00  1.56781E-01
      21    -1     0     0   502   501  0.000000000E+00  0.000000000E+00  4.120674607E+02  4.120674607E+02  0.000000000E+00  0.00000E+00  9.000E+00
      21    -1     0     0   501   511  0.000000000E+00  0.000000000E+00 -1.359803064E+02  1.359803064E+02  0.000000000E+00  0.00000E+00  9.000E+00
      25     1     1     2     0     0 -3.173272792E+01  2.980774340E+01  3.314685067E+02  3.569199329E+02  1.250000000E+02  0.00000E+00  9.000E+00
      25     1     1     2     0     0  5.827838045E+01 -2.842394884E+01 -1.341873157E+01  1.414544197E+02  1.250000000E+02  0.00000E+00  9.000E+00
      21     1     1     2   502   511 -2.654565253E+01 -1.383794559E+00 -4.196262086E+01  4.967341447E+01  1.261592536E-06  0.00000E+00  9.000E+00
#rwgt            1           1   4.2545746947663166E-002           2      392865           0
</event>
<event>
      5   9999  3.79277E-02  1.70953E+02 -1.00000E+00  1.14187E-01
      21    -1     0     0   502   501  0.000000000E+00  0.000000000E+00  2.869384865E+02  2.869384865E+02  0.000000000E+00  0.00000E+00  9.000E+00
       2    -1     0     0   501     0  0.000000000E+00  0.000000000E+00 -4.164832612E+03  4.164832612E+03  0.000000000E+00  0.00000E+00  9.000E+00
      25     1     1     2     0     0  8.971140650E+01 -1.775563612E+02 -9.187384867E+01  2.522700971E+02  1.250000000E+02  0.00000E+00  9.000E+00
      25     1     1     2     0     0 -6.965928710E+01  3.473288243E+02  3.259237400E+01  3.770636436E+02  1.250000000E+02  0.00000E+00  9.000E+00
       2     1     1     2   502     0 -2.005211940E+01 -1.697724632E+02 -3.818612651E+03  3.822437358E+03  0.000000000E+00  0.00000E+00  9.000E+00
#rwgt            2          13   2.7925489332891072E-003           2      393065           0
</event>
<event>
      5   9999  3.79277E-02  1.48735E+01 -1.00000E+00  1.77731E-01
      21    -1     0     0   502   511  0.000000000E+00  0.000000000E+00  1.224141596E+02  1.224141596E+02  0.000000000E+00  0.00000E+00  9.000E+00
      21    -1     0     0   501   502  0.000000000E+00  0.000000000E+00 -3.463645185E+02  3.463645185E+02  0.000000000E+00  0.00000E+00  9.000E+00
      25     1     1     2     0     0  8.190358053E+01  7.923839251E+01 -1.574882560E+02  2.311157073E+02  1.250000000E+02  0.00000E+00  9.000E+00
      25     1     1     2     0     0 -6.902345724E+01 -7.180047667E+01 -1.084307789E+02  1.931366871E+02  1.250000000E+02  0.00000E+00  9.000E+00
      21     1     1     2   501   511 -1.288012329E+01 -7.437915845E+00  4.196867607E+01  4.452628369E+01  9.536743164E-07  0.00000E+00  9.000E+00
#rwgt            1           1   3.7438042408665287E-002           2      393144           0
</event>
<event>
      5   9999  3.79277E-02  8.81518E+01 -1.00000E+00  1.26342E-01
      21    -1     0     0   512   501  0.000000000E+00  0.000000000E+00  3.247762212E+02  3.247762212E+02  0.000000000E+00  0.00000E+00  9.000E+00
      21    -1     0     0   501   502  0.000000000E+00  0.000000000E+00 -3.296282314E+02  3.296282314E+02  0.000000000E+00  0.00000E+00  9.000E+00
      25     1     1     2     0     0  1.432101516E+01 -1.082311846E+02 -1.715736058E+02  2.387081544E+02  1.250000000E+02  0.00000E+00  9.000E+00
      25     1     1     2     0     0 -7.660957101E+01  1.706080178E+02 -2.422167524E+00  2.249599720E+02  1.250000000E+02  0.00000E+00  9.000E+00
      21     1     1     2   512   502  6.228855584E+01 -6.237683327E+01  1.691437631E+02  1.907363262E+02  2.697398305E-06  0.00000E+00  9.000E+00
#rwgt            1           1   4.9390128950449377E-002           2      393331           0
</event>
<event>
      5   9999  3.79277E-02  1.38111E+01 -1.00000E+00  1.80830E-01
      21    -1     0     0   502   511  0.000000000E+00  0.000000000E+00  6.011255130E+02  6.011255130E+02  0.000000000E+00  0.00000E+00  9.000E+00
      21    -1     0     0   501   502  0.000000000E+00  0.000000000E+00 -1.514122072E+03  1.514122072E+03  0.000000000E+00  0.00000E+00  9.000E+00
      25     1     1     2     0     0  3.130875999E+02  2.728868617E+01 -5.892945878E+02  6.794568631E+02  1.250000000E+02  0.00000E+00  9.000E+00
      25     1     1     2     0     0 -3.090003680E+02 -4.048109561E+01 -8.476129785E+02  9.116977064E+02  1.250000000E+02  0.00000E+00  9.000E+00
      21     1     1     2   501   511 -4.087231881E+00  1.319240944E+01  5.239110074E+02  5.240930154E+02  7.629394531E-06  0.00000E+00  9.000E+00
#rwgt            1           1   3.9454828435473564E-002           2      393426           0
</event>
<event>
      5   9999  3.79277E-02  6.72642E+01 -1.00000E+00  1.32104E-01
      21    -1     0     0   502   501  0.000000000E+00  0.000000000E+00  1.423157696E+03  1.423157696E+03  0.000000000E+00  0.00000E+00  9.000E+00
      21    -1     0     0   512   502  0.000000000E+00  0.000000000E+00 -1.134767464E+02  1.134767464E+02  0.000000000E+00  0.00000E+00  9.000E+00
      25     1     1     2     0     0  1.974998211E+02  2.695848883E+02  7.777542343E+02  8.556920242E+02  1.250000000E+02  0.00000E+00  9.000E+00
      25     1     1     2     0     0 -2.439420329E+02 -2.209269408E+02  4.833547712E+02  5.979743000E+02  1.250000000E+02  0.00000E+00  9.000E+00
      21     1     1     2   512   501  4.644221188E+01 -4.865794746E+01  4.857194421E+01  8.296811834E+01  1.168007728E-06  0.00000E+00  9.000E+00
#rwgt            1           1   4.0530311036289110E-002           2      393704           0
</event>
<event>
      5   9999  3.79277E-02  2.35382E+01 -1.00000E+00  1.60736E-01
      21    -1     0     0   502   501  0.000000000E+00  0.000000000E+00  1.877113291E+02  1.877113291E+02  0.000000000E+00  0.00000E+00  9.000E+00
      21    -1     0     0   501   511  0.000000000E+00  0.000000000E+00 -2.974744302E+02  2.974744302E+02  0.000000000E+00  0.00000E+00  9.000E+00
      25     1     1     2     0     0  1.189603319E+02  1.277967955E+02 -6.162119188E+01  2.233959552E+02  1.250000000E+02  0.00000E+00  9.000E+00
      25     1     1     2     0     0 -1.401969378E+02 -1.379482452E+02 -3.784416182E+01  2.360976076E+02  1.250000000E+02  0.00000E+00  9.000E+00
      21     1     1     2   502   511  2.123660585E+01  1.015144976E+01 -1.029774741E+01  2.569219652E+01  3.576278687E-07  0.00000E+00  9.000E+00
#rwgt            1           1   3.2684185554339759E-002           2      393820           0
</event>
<event>
      5   9999  3.79277E-02  5.25497E+01 -1.00000E+00  1.37854E-01
      21    -1     0     0   502   501  0.000000000E+00  0.000000000E+00  1.109052421E+02  1.109052421E+02  0.000000000E+00  0.00000E+00  9.000E+00
      -3    -1     0     0     0   502  0.000000000E+00  0.000000000E+00 -9.476926219E+02  9.476926219E+02  0.000000000E+00  0.00000E+00  9.000E+00
      25     1     1     2     0     0  2.012991752E+02  4.239671518E+01 -1.683528826E+02  2.937456935E+02  1.250000000E+02  0.00000E+00  9.000E+00
      25     1     1     2     0     0 -2.158407831E+02  8.100943512E+00 -2.891719115E+02  3.819663118E+02  1.250000000E+02  0.00000E+00  9.000E+00
      -3     1     1     2     0   501  1.454160788E+01 -5.049765869E+01 -3.792625857E+02  3.828858587E+02  5.394796609E-06  0.00000E+00  9.000E+00
#rwgt            1           1  0.13390764384768877                2      394029           0
</event>
<event>
      5   9999  3.79277E-02  5.66204E+01 -1.00000E+00  1.36063E-01
      21    -1     0     0   502   511  0.000000000E+00  0.000000000E+00  1.256131451E+03  1.256131451E+03  0.000000000E+00  0.00000E+00  9.000E+00
      21    -1     0     0   501   502  0.000000000E+00  0.000000000E+00 -3.831208017E+02  3.831208017E+02  0.000000000E+00  0.00000E+00  9.000E+00
      25     1     1     2     0     0 -1.743655747E+01 -1.161663460E+02 -2.980646363E+02  3.438985038E+02  1.250000000E+02  0.00000E+00  9.000E+00
      25     1     1     2     0     0  4.756922390E+01  6.822997198E+01  3.029557861E+01  1.531697823E+02  1.250000000E+02  0.00000E+00  9.000E+00
      21     1     1     2   501   511 -3.013266643E+01  4.793637402E+01  1.140779707E+03  1.142183966E+03  0.000000000E+00  0.00000E+00  9.000E+00
#rwgt            1           1   4.5163807173084373E-002           2      394169           0
</event>
<event>
      5   9999  3.79277E-02  5.91493E+01 -1.00000E+00  1.35036E-01
      21    -1     0     0   502   501  0.000000000E+00  0.000000000E+00  8.459769096E+01  8.459769096E+01  0.000000000E+00  0.00000E+00  9.000E+00
       2    -1     0     0   501     0  0.000000000E+00  0.000000000E+00 -2.610740678E+03  2.610740678E+03  0.000000000E+00  0.00000E+00  9.000E+00
      25     1     1     2     0     0  1.380264134E+02  1.445228177E+02 -4.236026728E+02  4.847704199E+02  1.250000000E+02  0.00000E+00  9.000E+00
      25     1     1     2     0     0 -9.488186784E+01 -1.849849799E+02 -2.211852697E+02  3.282833154E+02  1.250000000E+02  0.00000E+00  9.000E+00
       2     1     1     2   502     0 -4.314454555E+01  4.046216220E+01 -1.881355044E+03  1.882284633E+03  2.157918644E-05  0.00000E+00  9.000E+00
#rwgt            1           1   4.2523664003161918E-002           2      394329           0
</event>
<event>
      5   9999  3.79277E-02  2.46551E+02 -1.00000E+00  1.08437E-01
      21    -1     0     0   511   501  0.000000000E+00  0.000000000E+00  6.557976761E+02  6.557976761E+02  0.000000000E+00  0.00000E+00  9.000E+00
      21    -1     0     0   501   502  0.000000000E+00  0.000000000E+00 -7.089483519E+02  7.089483519E+02  0.000000000E+00  0.00000E+00  9.000E+00
      25     1     1     2     0     0  6.194388866E+01 -2.479756430E+02 -4.965842104E+02  5.723197034E+02  1.250000000E+02  0.00000E+00  9.000E+00
      25     1     1     2     0     0 -1.535808209E+02  1.908646363E+01 -7.953945877E+01  2.142495908E+02  1.250000000E+02  0.00000E+00  9.000E+00
      21     1     1     2   511   502  9.163693227E+01  2.288891793E+02  5.229729934E+02  5.781767339E+02  1.525878906E-05  0.00000E+00  9.000E+00
#rwgt            1           1   4.2862041945456855E-002           2      394463           0
</event>
<event>
      5   9999  3.79277E-02  4.45922E+01 -1.00000E+00  1.41972E-01
      21    -1     0     0   502   501  0.000000000E+00  0.000000000E+00  4.194812662E+02  4.194812662E+02  0.000000000E+00  0.00000E+00  9.000E+00
      21    -1     0     0   501   512  0.000000000E+00  0.000000000E+00 -4.390682767E+02  4.390682767E+02  0.000000000E+00  0.00000E+00  9.000E+00
      25     1     1     2     0     0  2.305735444E+02  1.689658914E+02  2.310471531E+02  3.882285651E+02  1.250000000E+02  0.00000E+00  9.000E+00
      25     1     1     2     0     0 -2.732820335E+02 -1.817896293E+02 -2.369536529E+02  4.236774395E+02  1.250000000E+02  0.00000E+00  9.000E+00
      21     1     1     2   502   512  4.270848911E+01  1.282373783E+01 -1.368051071E+01  4.664353832E+01  1.168007728E-06  0.00000E+00  9.000E+00
#rwgt            1           1   3.7580309719862259E-002           2      394614           0
</event>
<event>
      5   9999  3.79277E-02  4.08018E+01 -1.00000E+00  1.44308E-01
      21    -1     0     0   502   501  0.000000000E+00  0.000000000E+00  6.885567016E+01  6.885567016E+01  0.000000000E+00  0.00000E+00  9.000E+00
      21    -1     0     0   501   511  0.000000000E+00  0.000000000E+00 -5.554894087E+02  5.554894087E+02  0.000000000E+00  0.00000E+00  9.000E+00
      25     1     1     2     0     0  4.571731789E+01  6.225689432E+01 -1.742120627E+02  2.279053243E+02  1.250000000E+02  0.00000E+00  9.000E+00
      25     1     1     2     0     0 -5.541856706E+01 -2.262518629E+01 -7.909994088E+01  1.595773082E+02  1.250000000E+02  0.00000E+00  9.000E+00
      21     1     1     2   502   511  9.701249170E+00 -3.963170804E+01 -2.333217350E+02  2.368624464E+02  3.814697266E-06  0.00000E+00  9.000E+00
#rwgt            1           1   5.8067319636651557E-002           2      394742           0
</event>
<event>
      5   9999  3.79277E-02  1.54456E+02 -1.00000E+00  1.15892E-01
      21    -1     0     0   502   501  0.000000000E+00  0.000000000E+00  1.606116512E+02  1.606116512E+02  0.000000000E+00  0.00000E+00  9.000E+00
      21    -1     0     0   512   502  0.000000000E+00  0.000000000E+00 -2.088444503E+03  2.088444503E+03  0.000000000E+00  0.00000E+00  9.000E+00
      25     1     1     2     0     0  6.390983956E+01 -7.455204630E-01 -2.874914999E+02  3.199396598E+02  1.250000000E+02  0.00000E+00  9.000E+00
      25     1     1     2     0     0 -8.323340441E+01 -1.524968530E+02  5.960079186E+01  2.221718798E+02  1.250000000E+02  0.00000E+00  9.000E+00
      21     1     1     2   512   501  1.932356485E+01  1.532423735E+02 -1.699942144E+03  1.706944615E+03  2.157918644E-05  0.00000E+00  9.000E+00
#rwgt            2          11   8.8241444905000983E-004           2      394842           0
</event>
<event>
      5   9999  3.79277E-02  6.07782E+01 -1.00000E+00  1.34405E-01
      21    -1     0     0   511   501  0.000000000E+00  0.000000000E+00  2.715582133E+02  2.715582133E+02  0.000000000E+00  0.00000E+00  9.000E+00
      21    -1     0     0   501   502  0.000000000E+00  0.000000000E+00 -1.622836025E+03  1.622836025E+03  0.000000000E+00  0.00000E+00  9.000E+00
      25     1     1     2     0     0 -1.558120309E+02 -1.033749913E+02 -7.329699133E+02  7.667031183E+02  1.250000000E+02  0.00000E+00  9.000E+00
      25     1     1     2     0     0  1.165118276E+02  1.497375085E+02 -8.543008537E+02  8.839973281E+02  1.250000000E+02  0.00000E+00  9.000E+00
      21     1     1     2   511   502  3.930020334E+01 -4.636251717E+01  2.359929556E+02  2.436937917E+02  6.607249480E-06  0.00000E+00  9.000E+00
#rwgt            1           1   3.9790890988766918E-002           2      394922           0
</event>
<event>
      5   9999  3.79277E-02  6.27199E+01 -1.00000E+00  1.33682E-01
      -3    -1     0     0     0   501  0.000000000E+00  0.000000000E+00  7.502407895E+01  7.502407895E+01  0.000000000E+00  0.00000E+00  9.000E+00
      21    -1     0     0   501   502  0.000000000E+00  0.000000000E+00 -2.145630981E+03  2.145630981E+03  0.000000000E+00  0.00000E+00  9.000E+00
      25     1     1     2     0     0 -2.474996297E+02  1.744544727E+02 -5.788750592E+02  6.651404091E+02  1.250000000E+02  0.00000E+00  9.000E+00
      25     1     1     2     0     0  2.684690770E+02 -2.335651332E+02 -1.313000927E+03  1.366098368E+03  1.250000000E+02  0.00000E+00  9.000E+00
      -3     1     1     2     0   502 -2.096944729E+01  5.911066057E+01 -1.787309158E+02  1.894162828E+02  0.000000000E+00  0.00000E+00  9.000E+00
#rwgt            1           1   2.2095555091667798E-002           2      395040           0
</event>
<event>
      5   9999  3.79277E-02  1.39548E+02 -1.00000E+00  1.17651E-01
      21    -1     0     0   502   511  0.000000000E+00  0.000000000E+00  1.354520977E+03  1.354520977E+03  0.000000000E+00  0.00000E+00  9.000E+00
      21    -1     0     0   501   502  0.000000000E+00  0.000000000E+00 -1.223133349E+03  1.223133349E+03  0.000000000E+00  0.00000E+00  9.000E+00
      25     1     1     2     0     0 -6.499745761E+02  2.561620253E+02  1.801868946E+02  7.322419339E+02  1.250000000E+02  0.00000E+00  9.000E+00
      25     1     1     2     0     0  5.897358014E+02 -1.302858031E+02 -8.399398326E+02  1.042058841E+03  1.250000000E+02  0.00000E+00  9.000E+00
      21     1     1     2   501   511  6.023877472E+01 -1.258762222E+02  7.911405655E+02  8.033535508E+02  1.078959322E-05  0.00000E+00  9.000E+00
#rwgt            1           1   7.2683914726750067E-003           2      395214           0
</event>
<event>
      5   9999  3.79277E-02  1.05120E+01 -1.00000E+00  1.93283E-01
      21    -1     0     0   502   501  0.000000000E+00  0.000000000E+00  9.668640519E+01  9.668640519E+01  0.000000000E+00  0.00000E+00  9.000E+00
       1    -1     0     0   501     0  0.000000000E+00  0.000000000E+00 -2.943744187E+03  2.943744187E+03  0.000000000E+00  0.00000E+00  9.000E+00
      25     1     1     2     0     0 -1.303802716E+01  2.517251760E+02 -3.720112548E+02  4.664256941E+02  1.250000000E+02  0.00000E+00  9.000E+00
      25     1     1     2     0     0  2.859527623E+00 -2.490984879E+02 -3.431412006E+02  4.420736558E+02  1.250000000E+02  0.00000E+00  9.000E+00
       1     1     1     2   502     0  1.017849954E+01 -2.626688060E+00 -2.131905326E+03  2.131931242E+03  3.051757812E-05  0.00000E+00  9.000E+00
#rwgt            1           1   3.8505682503557931E-002           2      395378           0
</event>
<event>
      5   9999  3.79277E-02  5.58552E+01 -1.00000E+00  1.36386E-01
      21    -1     0     0   502   501  0.000000000E+00  0.000000000E+00  4.035697084E+02  4.035697084E+02  0.000000000E+00  0.00000E+00  9.000E+00
      21    -1     0     0   501   511  0.000000000E+00  0.000000000E+00 -1.230898927E+02  1.230898927E+02  0.000000000E+00  0.00000E+00  9.000E+00
      25     1     1     2     0     0  1.144194343E+02  8.323724119E+00  2.065989438E+02  2.673372681E+02  1.250000000E+02  0.00000E+00  9.000E+00
      25     1     1     2     0     0 -1.297432431E+02 -6.203581040E+01  4.239038161E+01  1.952016787E+02  1.250000000E+02  0.00000E+00  9.000E+00
      21     1     1     2   502   511  1.532380880E+01  5.371208628E+01  3.149049034E+01  6.412065432E+01  1.066240300E-06  0.00000E+00  9.000E+00
#rwgt            1           1   3.6367610302610313E-002           2      395740           0
</event>
<event>
      5   9999  3.79277E-02  5.49866E+01 -1.00000E+00  1.36760E-01
      21    -1     0     0   512   501  0.000000000E+00  0.000000000E+00  3.861650988E+02  3.861650988E+02  0.000000000E+00  0.00000E+00  9.000E+00
      21    -1     0     0   501   502  0.000000000E+00  0.000000000E+00 -3.164010918E+02  3.164010918E+02  0.000000000E+00  0.00000E+00  9.000E+00
      25     1     1     2     0     0 -2.080113961E+02 -3.725709553E+01  6.272030959E+01  2.534081082E+02  1.250000000E+02  0.00000E+00  9.000E+00
      25     1     1     2     0     0  1.860516027E+02 -1.315418809E+01 -1.584239333E+02  2.747933299E+02  1.250000000E+02  0.00000E+00  9.000E+00
      21     1     1     2   512   502  2.195979341E+01  5.041128362E+01  1.654676308E+02  1.743647524E+02  0.000000000E+00  0.00000E+00  9.000E+00
#rwgt            1           1   4.5547233927669767E-002           2      395942           0
</event>
<event>
      5   9999  3.79277E-02  1.41417E+01 -1.00000E+00  1.79829E-01
      21    -1     0     0   502   501  0.000000000E+00  0.000000000E+00  1.621289346E+02  1.621289346E+02  0.000000000E+00  0.00000E+00  9.000E+00
      21    -1     0     0   501   511  0.000000000E+00  0.000000000E+00 -6.011089201E+02  6.011089201E+02  0.000000000E+00  0.00000E+00  9.000E+00
      25     1     1     2     0     0  1.937510536E+02 -1.755594349E+02 -7.944088961E+01  3.004936620E+02  1.250000000E+02  0.00000E+00  9.000E+00
      25     1     1     2     0     0 -1.830837072E+02  1.662752667E+02 -3.440094352E+02  4.417404211E+02  1.250000000E+02  0.00000E+00  9.000E+00
      21     1     1     2   502   511 -1.066734638E+01  9.284168195E+00 -1.552966073E+01  2.100377158E+01  3.769728732E-07  0.00000E+00  9.000E+00
#rwgt            1           1   2.8336222389602556E-002           2      396149           0
</event>
<event>
      5   9999  3.79277E-02  4.22903E+01 -1.00000E+00  1.43356E-01
      21    -1     0     0   502   501  0.000000000E+00  0.000000000E+00  4.453806071E+02  4.453806071E+02  0.000000000E+00  0.00000E+00  9.000E+00
      21    -1     0     0   512   502  0.000000000E+00  0.000000000E+00 -1.273176298E+02  1.273176298E+02  0.000000000E+00  0.00000E+00  9.000E+00
      25     1     1     2     0     0  1.290544808E+02 -2.521868096E+01  3.108368707E+02  3.599105459E+02  1.250000000E+02  0.00000E+00  9.000E+00
      25     1     1     2     0     0 -9.434253589E+01  1.061870756E+00  3.718145875E+01  1.609630471E+02  1.250000000E+02  0.00000E+00  9.000E+00
      21     1     1     2   512   501 -3.471194490E+01  2.415681020E+01 -2.995535213E+01  5.182464394E+01  1.507891493E-06  0.00000E+00  9.000E+00
#rwgt            1           1   4.5278651257594817E-002           2      396370           0
</event>
<event>
      5   9999  3.79277E-02  1.15534E+01 -1.00000E+00  1.88777E-01
      21    -1     0     0   502   511  0.000000000E+00  0.000000000E+00  9.751576901E+02  9.751576901E+02  0.000000000E+00  0.00000E+00  9.000E+00
      21    -1     0     0   501   502  0.000000000E+00  0.000000000E+00 -4.825292974E+02  4.825292974E+02  0.000000000E+00  0.00000E+00  9.000E+00
      25     1     1     2     0     0 -4.674632896E+01 -1.083574403E+02 -4.672138928E+01  1.781416357E+02  1.250000000E+02  0.00000E+00  9.000E+00
      25     1     1     2     0     0  3.705499979E+01  1.020678207E+02 -3.515390835E+02  3.885815748E+02  1.250000000E+02  0.00000E+00  9.000E+00
      21     1     1     2   501   511  9.691329169E+00  6.289619633E+00  8.908888656E+02  8.909637770E+02  1.078959322E-05  0.00000E+00  9.000E+00
#rwgt            1           1   3.6983455625533970E-002           2      396536           0
</event>
<event>
      5   9999  3.79277E-02  1.01698E+02 -1.00000E+00  1.23500E-01
       3    -1     0     0   502     0  0.000000000E+00  0.000000000E+00  1.025615604E+02  1.025615604E+02  0.000000000E+00  0.00000E+00  9.000E+00
      21    -1     0     0   501   502  0.000000000E+00  0.000000000E+00 -1.016190084E+03  1.016190084E+03  0.000000000E+00  0.00000E+00  9.000E+00
      25     1     1     2     0     0  7.445621263E+00  5.303587373E+01 -3.294086257E+02  3.563752010E+02  1.250000000E+02  0.00000E+00  9.000E+00
      25     1     1     2     0     0 -1.302618597E+01 -1.545811256E+02 -6.225839393E+02  6.536824668E+02  1.250000000E+02  0.00000E+00  9.000E+00
       3     1     1     2   501     0  5.580564706E+00  1.015452519E+02  3.836404144E+01  1.086939767E+02  2.336015456E-06  0.00000E+00  9.000E+00
#rwgt            1           1   3.2588710849786720E-002           2      396869           0
</event>
<event>
      5   9999  3.79277E-02  4.23277E+01 -1.00000E+00  1.43333E-01
      21    -1     0     0   502   501  0.000000000E+00  0.000000000E+00  3.690564435E+02  3.690564435E+02  0.000000000E+00  0.00000E+00  9.000E+00
      21    -1     0     0   501   511  0.000000000E+00  0.000000000E+00 -3.317164688E+02  3.317164688E+02  0.000000000E+00  0.00000E+00  9.000E+00
      25     1     1     2     0     0  6.342721259E+01  2.814897811E+01 -2.202730397E+02  2.626034811E+02  1.250000000E+02  0.00000E+00  9.000E+00
      25     1     1     2     0     0 -1.027378856E+02 -4.384299285E+01  3.208905464E+02  3.620400861E+02  1.250000000E+02  0.00000E+00  9.000E+00
      21     1     1     2   502   511  3.931067305E+01  1.569401474E+01 -6.327753209E+01  7.612934507E+01  1.348699152E-06  0.00000E+00  9.000E+00
#rwgt            1           1   4.1051762790447956E-002           2      396961           0
</event>
<event>
      5   9999  3.79277E-02  7.62104E+01 -1.00000E+00  1.29378E-01
      21    -1     0     0   502   501  0.000000000E+00  0.000000000E+00  4.184712407E+02  4.184712407E+02  0.000000000E+00  0.00000E+00  9.000E+00
      21    -1     0     0   512   502  0.000000000E+00  0.000000000E+00 -5.154144944E+02  5.154144944E+02  0.000000000E+00  0.00000E+00  9.000E+00
      25     1     1     2     0     0  3.747186951E+01  2.092846527E+02  1.976473469E+02  3.160596156E+02  1.250000000E+02  0.00000E+00  9.000E+00
      25     1     1     2     0     0 -7.210490632E+01 -1.413981050E+02  9.328811903E+01  2.225313793E+02  1.250000000E+02  0.00000E+00  9.000E+00
      21     1     1     2   512   501  3.463303682E+01 -6.788654766E+01 -3.878787196E+02  3.952947403E+02  0.000000000E+00  0.00000E+00  9.000E+00
#rwgt            1           1   3.7153789456536405E-002           2      397124           0
</event>
<event>
      5   9999  3.79277E-02  4.17227E+01 -1.00000E+00  1.43714E-01
      21    -1     0     0   511   501  0.000000000E+00  0.000000000E+00  1.195419137E+03  1.195419137E+03  0.000000000E+00  0.00000E+00  9.000E+00
      21    -1     0     0   501   502  0.000000000E+00  0.000000000E+00 -8.982589638E+01  8.982589638E+01  0.000000000E+00  0.00000E+00  9.000E+00
      25     1     1     2     0     0 -2.194247812E+02  8.970454035E+01  5.028780980E+02  5.698293785E+02  1.250000000E+02  0.00000E+00  9.000E+00
      25     1     1     2     0     0  1.999530450E+02 -5.280419694E+01  2.089900153E+02  3.194860403E+02  1.250000000E+02  0.00000E+00  9.000E+00
      21     1     1     2   511   502  1.947173616E+01 -3.690034341E+01  3.937251275E+02  3.959296148E+02  5.394796609E-06  0.00000E+00  9.000E+00
#rwgt            1           1   3.7503367830347460E-002           2      397198           0
</event>
<event>
      5   9999  3.79277E-02  6.24894E+01 -1.00000E+00  1.33767E-01
      21    -1     0     0   512   501  0.000000000E+00  0.000000000E+00  1.671010392E+03  1.671010392E+03  0.000000000E+00  0.00000E+00  9.000E+00
      21    -1     0     0   501   502  0.000000000E+00  0.000000000E+00 -2.622754584E+01  2.622754584E+01  0.000000000E+00  0.00000E+00  9.000E+00
      25     1     1     2     0     0  4.421452904E+01  9.454990208E+00  2.024241619E+02  2.421670141E+02  1.250000000E+02  0.00000E+00  9.000E+00
      25     1     1     2     0     0  1.665764690E+01  4.669597337E+00  1.082048802E+03  1.089382345E+03  1.250000000E+02  0.00000E+00  9.000E+00
      21     1     1     2   512   502 -6.087217595E+01 -1.412458754E+01  3.603098820E+02  3.656885790E+02  5.394796609E-06  0.00000E+00  9.000E+00
#rwgt            1           1   5.0028271329593213E-002           2      397313           0
</event>
<event>
      5   9999  3.79277E-02  1.18573E+02 -1.00000E+00  1.20589E-01
      21    -1     0     0   502   501  0.000000000E+00  0.000000000E+00  5.655915190E+02  5.655915190E+02  0.000000000E+00  0.00000E+00  9.000E+00
      21    -1     0     0   501   511  0.000000000E+00  0.000000000E+00 -2.318680800E+02  2.318680800E+02  0.000000000E+00  0.00000E+00  9.000E+00
      25     1     1     2     0     0 -6.215103496E+01 -1.241852409E+01  4.653438526E+02  4.859906090E+02  1.250000000E+02  0.00000E+00  9.000E+00
      25     1     1     2     0     0 -1.185345227E+01  1.050625611E+02 -7.676404003E+01  1.808213591E+02  1.250000000E+02  0.00000E+00  9.000E+00
      21     1     1     2   502   511  7.400448723E+01 -9.264403700E+01 -5.485637363E+01  1.306476309E+02  1.507891493E-06  0.00000E+00  9.000E+00
#rwgt            1           1   4.6051506642008112E-002           2      397468           0
</event>
<event>
      5   9999  3.79277E-02  1.23583E+01 -1.00000E+00  1.85695E-01
      21    -1     0     0   502   501  0.000000000E+00  0.000000000E+00  1.046612385E+02  1.046612385E+02  0.000000000E+00  0.00000E+00  9.000E+00
      21    -1     0     0   501   512  0.000000000E+00  0.000000000E+00 -2.230481038E+02  2.230481038E+02  0.000000000E+00  0.00000E+00  9.000E+00
      25     1     1     2     0     0  2.679070156E+01  5.712254707E+01 -9.163972972E+01  1.673426638E+02  1.250000000E+02  0.00000E+00  9.000E+00
      25     1     1     2     0     0 -3.758464283E+01 -6.314062740E+01 -2.025099798E+01  1.464050789E+02  1.250000000E+02  0.00000E+00  9.000E+00
      21     1     1     2   502   512  1.079394128E+01  6.018080329E+00 -6.496137652E+00  1.396159961E+01  1.884864366E-07  0.00000E+00  9.000E+00
#rwgt            1           1   7.5847544836056546E-002           2      397517           0
</event>
<event>
      5   9999  3.79277E-02  1.19166E+02 -1.00000E+00  1.20497E-01
      21    -1     0     0   511   501  0.000000000E+00  0.000000000E+00  1.965788617E+02  1.965788617E+02  0.000000000E+00  0.00000E+00  9.000E+00
      21    -1     0     0   501   502  0.000000000E+00  0.000000000E+00 -8.131573577E+02  8.131573577E+02  0.000000000E+00  0.00000E+00  9.000E+00
      25     1     1     2     0     0  4.625572805E+01  2.767238791E+02 -3.809317554E+02  4.893359786E+02  1.250000000E+02  0.00000E+00  9.000E+00
      25     1     1     2     0     0  6.806813659E+01 -3.103470451E+02 -1.462672678E+02  3.714399995E+02  1.250000000E+02  0.00000E+00  9.000E+00
      21     1     1     2   511   502 -1.143238646E+02  3.362316593E+01 -8.937947284E+01  1.489602413E+02  2.336015456E-06  0.00000E+00  9.000E+00
#rwgt            1           1   3.2661235749959244E-002           2      397683           0
</event>
<event>
      5   9999  3.79277E-02  3.64753E+01 -1.00000E+00  1.47369E-01
      21    -1     0     0   512   501  0.000000000E+00  0.000000000E+00  1.960045621E+02  1.960045621E+02  0.000000000E+00  0.00000E+00  9.000E+00
      21    -1     0     0   501   502  0.000000000E+00  0.000000000E+00 -2.087284321E+02  2.087284321E+02  0.000000000E+00  0.00000E+00  9.000E+00
      25     1     1     2     0     0 -6.194363377E+01  1.032604676E+02 -9.010279348E+01  1.955588181E+02  1.250000000E+02  0.00000E+00  9.000E+00
      25     1     1     2     0     0  2.709675828E+01 -9.248351659E+01  6.157490982E+01  1.694222673E+02  1.250000000E+02  0.00000E+00  9.000E+00
      21     1     1     2   512   502  3.484687549E+01 -1.077695097E+01  1.580401364E+01  3.975190876E+01  5.331201500E-07  0.00000E+00  9.000E+00
#rwgt            1           1  0.13166979145236496                2      397761           0
</event>
<event>
      5   9999  3.79277E-02  1.11702E+02 -1.00000E+00  1.21704E-01
      21    -1     0     0   502   511  0.000000000E+00  0.000000000E+00  1.110580316E+02  1.110580316E+02  0.000000000E+00  0.00000E+00  9.000E+00
      21    -1     0     0   501   502  0.000000000E+00  0.000000000E+00 -1.153591270E+03  1.153591270E+03  0.000000000E+00  0.00000E+00  9.000E+00
      25     1     1     2     0     0 -1.504071108E+02  5.494712897E+00 -6.984476428E+02  7.253320623E+02  1.250000000E+02  0.00000E+00  9.000E+00
      25     1     1     2     0     0  8.241308203E+01  8.312843036E+01 -3.841938979E+02  4.206330981E+02  1.250000000E+02  0.00000E+00  9.000E+00
      21     1     1     2   501   511  6.799402873E+01 -8.862314326E+01  4.010830236E+01  1.186841412E+02  3.015782986E-06  0.00000E+00  9.000E+00
#rwgt            1           1   2.4528727219555280E-002           2      397889           0
</event>
<event>
      5   9999  3.79277E-02  2.55921E+02 -1.00000E+00  1.07884E-01
       2    -1     0     0   502     0  0.000000000E+00  0.000000000E+00  1.754570062E+03  1.754570062E+03  0.000000000E+00  0.00000E+00  9.000E+00
      21    -1     0     0   501   502  0.000000000E+00  0.000000000E+00 -7.459006611E+02  7.459006611E+02  0.000000000E+00  0.00000E+00  9.000E+00
      25     1     1     2     0     0 -3.305648476E+02  1.066096584E+02  7.029292181E+01  3.757723148E+02  1.250000000E+02  0.00000E+00  9.000E+00
      25     1     1     2     0     0  5.756496592E+02 -3.292722462E+01 -4.316149082E+02  7.310083182E+02  1.250000000E+02  0.00000E+00  9.000E+00
       2     1     1     2   501     0 -2.450848116E+02 -7.368243377E+01  1.369991387E+03  1.393690090E+03  2.157918644E-05  0.00000E+00  9.000E+00
#rwgt            1           1  0.10634983556212417                2      397961           0
</event>
<event>
      5   9999  3.79277E-02  3.92480E+01 -1.00000E+00  1.45353E-01
      21    -1     0     0   502   501  0.000000000E+00  0.000000000E+00  5.215846708E+01  5.215846708E+01  0.000000000E+00  0.00000E+00  9.000E+00
      21    -1     0     0   511   502  0.000000000E+00  0.000000000E+00 -1.212937832E+03  1.212937832E+03  0.000000000E+00  0.00000E+00  9.000E+00
      25     1     1     2     0     0 -2.893170825E+01 -6.839404140E+01 -8.351456698E+02  8.477075430E+02  1.250000000E+02  0.00000E+00  9.000E+00
      25     1     1     2     0     0  4.357806586E+01  1.048067656E+02 -1.177886608E+02  2.058705286E+02  1.250000000E+02  0.00000E+00  9.000E+00
      21     1     1     2   511   501 -1.464635761E+01 -3.641272419E+01 -2.078450344E+02  2.115182276E+02  2.697398305E-06  0.00000E+00  9.000E+00
#rwgt            1           1   3.4410204277010685E-002           2      398050           0
</event>
<event>
      5   9999  3.79277E-02  7.19425E+01 -1.00000E+00  1.30621E-01
      21    -1     0     0   502   512  0.000000000E+00  0.000000000E+00  3.833052660E+03  3.833052660E+03  0.000000000E+00  0.00000E+00  9.000E+00
      21    -1     0     0   501   502  0.000000000E+00  0.000000000E+00 -2.902434387E+01  2.902434387E+01  0.000000000E+00  0.00000E+00  9.000E+00
      25     1     1     2     0     0  1.489590480E+02  1.112201295E+02  1.770563465E+03  1.784678879E+03  1.250000000E+02  0.00000E+00  9.000E+00
      25     1     1     2     0     0 -1.468457516E+02 -1.831315975E+02  8.252421709E+02  8.670354649E+02  1.250000000E+02  0.00000E+00  9.000E+00
      21     1     1     2   501   512 -2.113296355E+00  7.191146794E+01  1.208222679E+03  1.210362660E+03  2.642899792E-05  0.00000E+00  9.000E+00
#rwgt            1           1   6.4412778650883240E-002           2      398199           0
</event>
<event>
      5   9999 -3.79277E-02  7.80267E+01 -1.00000E+00  1.28877E-01
      21    -1     0     0   502   501  0.000000000E+00  0.000000000E+00  6.905704060E+02  6.905704060E+02  0.000000000E+00  0.00000E+00  9.000E+00
      21    -1     0     0   511   502  0.000000000E+00  0.000000000E+00 -1.631462645E+02  1.631462645E+02  0.000000000E+00  0.00000E+00  9.000E+00
      25     1     1     2     0     0 -1.349707252E+02  6.388554742E+01  4.113860230E+02  4.551504364E+02  1.250000000E+02  0.00000E+00  9.000E+00
      25     1     1     2     0     0  1.914082152E+02 -1.000628749E+01  1.851355644E+02  2.943423311E+02  1.250000000E+02  0.00000E+00  9.000E+00
      21     1     1     2   511   501 -5.643749009E+01 -5.387925993E+01 -6.909744593E+01  1.042239031E+02  2.523185073E-06  0.00000E+00  9.000E+00
#rwgt            1           1 -0.28432817645941566                2      398371           0
</event>
<event>
      5   9999  3.79277E-02  4.29573E+01 -1.00000E+00  1.42945E-01
      21    -1     0     0   512   501  0.000000000E+00  0.000000000E+00  3.753515502E+02  3.753515502E+02  0.000000000E+00  0.00000E+00  9.000E+00
      21    -1     0     0   501   502  0.000000000E+00  0.000000000E+00 -1.219537199E+02  1.219537199E+02  0.000000000E+00  0.00000E+00  9.000E+00
      25     1     1     2     0     0 -8.429188241E+01 -2.266172647E+01  1.362650173E+02  2.044794128E+02  1.250000000E+02  0.00000E+00  9.000E+00
      25     1     1     2     0     0  4.341165953E+01  9.465566751E+00 -3.296972583E+01  1.366973736E+02  1.250000000E+02  0.00000E+00  9.000E+00
      21     1     1     2   512   502  4.088022288E+01  1.319615972E+01  1.501025388E+02  1.561284836E+02  2.697398305E-06  0.00000E+00  9.000E+00
#rwgt            1           1   3.0783573015258723E-002           2      398458           0
</event>
<event>
      5   9999  3.79277E-02  1.58419E+02 -1.00000E+00  1.15461E-01
      -1    -1     0     0     0   501  0.000000000E+00  0.000000000E+00  1.839809491E+02  1.839809491E+02  0.000000000E+00  0.00000E+00  9.000E+00
      21    -1     0     0   501   502  0.000000000E+00  0.000000000E+00 -1.896384264E+03  1.896384264E+03  0.000000000E+00  0.00000E+00  9.000E+00
      25     1     1     2     0     0 -2.281027432E+01 -1.145446081E+02 -1.528284523E+03  1.537829431E+03  1.250000000E+02  0.00000E+00  9.000E+00
      25     1     1     2     0     0  1.068744786E+02 -1.972994714E+01 -3.024262809E+02  3.448160095E+02  1.250000000E+02  0.00000E+00  9.000E+00
      -1     1     1     2     0   502 -8.406420425E+01  1.342745553E+02  1.183074888E+02  1.977197727E+02  3.814697266E-06  0.00000E+00  9.000E+00
#rwgt            1           1   2.8170202385722362E-002           2      398520           0
</event>
<event>
      5   9999  3.79277E-02  1.10306E+02 -1.00000E+00  1.21942E-01
      -3    -1     0     0     0   501  0.000000000E+00  0.000000000E+00  2.009117778E+02  2.009117778E+02  0.000000000E+00  0.00000E+00  9.000E+00
      21    -1     0     0   501   502  0.000000000E+00  0.000000000E+00 -4.913965953E+02  4.913965953E+02  0.000000000E+00  0.00000E+00  9.000E+00
      25     1     1     2     0     0  1.602578429E+01 -9.153894435E+01 -5.632022582E+01  1.656296227E+02  1.250000000E+02  0.00000E+00  9.000E+00
      25     1     1     2     0     0 -2.397833963E+01  2.015576791E+02 -3.112928872E+02  3.920825428E+02  1.250000000E+02  0.00000E+00  9.000E+00
      -3     1     1     2     0   502  7.952555338E+00 -1.100187347E+02  7.712829552E+01  1.345962076E+02  2.132480600E-06  0.00000E+00  9.000E+00
#rwgt            1           1   3.6989045243550858E-002           2      398575           0
</event>
<event>
      5   9999  3.79277E-02  5.32281E+01 -1.00000E+00  1.37543E-01
      21    -1     0     0   502   501  0.000000000E+00  0.000000000E+00  4.030957357E+02  4.030957357E+02  0.000000000E+00  0.00000E+00  9.000E+00
      21    -1     0     0   511   502  0.000000000E+00  0.000000000E+00 -3.154074065E+02  3.154074065E+02  0.000000000E+00  0.00000E+00  9.000E+00
      25     1     1     2     0     0 -5.140424816E+01  2.364637734E+02  2.603453651E+02  3.767787441E+02  1.250000000E+02  0.00000E+00  9.000E+00
      25     1     1     2     0     0  6.361337559E+01 -1.846548290E+02 -1.716254213E+02  2.884863127E+02  1.250000000E+02  0.00000E+00  9.000E+00
      21     1     1     2   511   501 -1.220912743E+01 -5.180894439E+01 -1.031614723E+00  5.323808543E+01  5.575503985E-08  0.00000E+00  9.000E+00
#rwgt            1           1   2.6943914696891679E-002           2      398700           0
</event>
<event>
      5   9999  3.79277E-02  3.93006E+01 -1.00000E+00  1.45317E-01
      21    -1     0     0   502   512  0.000000000E+00  0.000000000E+00  1.297193236E+02  1.297193236E+02  0.000000000E+00  0.00000E+00  9.000E+00
      21    -1     0     0   501   502  0.000000000E+00  0.000000000E+00 -1.095641349E+03  1.095641349E+03  0.000000000E+00  0.00000E+00  9.000E+00
      25     1     1     2     0     0 -8.063245522E+01  1.735393859E+01 -4.641092781E+02  4.876732247E+02  1.250000000E+02  0.00000E+00  9.000E+00
      25     1     1     2     0     0  7.192723078E+01 -5.567831731E+01 -6.064865089E+02  6.258789715E+02  1.250000000E+02  0.00000E+00  9.000E+00
      21     1     1     2   501   512  8.705224436E+00  3.832437872E+01  1.046737618E+02  1.118084762E+02  1.348699152E-06  0.00000E+00  9.000E+00
#rwgt            1           1   7.0233339797733538E-002           2      398930           0
</event>
<event>
      5   9999  3.79277E-02  8.05669E+01 -1.00000E+00  1.28201E-01
      21    -1     0     0   502   501  0.000000000E+00  0.000000000E+00  3.702444934E+02  3.702444934E+02  0.000000000E+00  0.00000E+00  9.000E+00
      21    -1     0     0   501   511  0.000000000E+00  0.000000000E+00 -2.686662259E+02  2.686662259E+02  0.000000000E+00  0.00000E+00  9.000E+00
      25     1     1     2     0     0 -7.367709867E+01 -1.690912310E+01  2.937118318E+02  3.280333420E+02  1.250000000E+02  0.00000E+00  9.000E+00
      25     1     1     2     0     0  1.344861406E+01 -3.660313630E+01 -1.894097160E+02  2.302644031E+02  1.250000000E+02  0.00000E+00  9.000E+00
      21     1     1     2   502   511  6.022848461E+01  5.351225940E+01 -2.723848419E+00  8.061297423E+01  1.370906830E-06  0.00000E+00  9.000E+00
#rwgt            1           1   3.9386435707727555E-002           2      399047           0
</event>
<event>
      5   9999  3.79277E-02  4.20496E+01 -1.00000E+00  1.43507E-01
      21    -1     0     0   502   512  0.000000000E+00  0.000000000E+00  5.630031483E+02  5.630031483E+02  0.000000000E+00  0.00000E+00  9.000E+00
      21    -1     0     0   501   502  0.000000000E+00  0.000000000E+00 -1.981504277E+02  1.981504277E+02  0.000000000E+00  0.00000E+00  9.000E+00
      25     1     1     2     0     0 -2.643729169E+02 -1.648426040E+01  2.776960408E+02  4.036147434E+02  1.250000000E+02  0.00000E+00  9.000E+00
      25     1     1     2     0     0  2.669669001E+02  5.845375329E+01  5.721778201E+01  3.059199922E+02  1.250000000E+02  0.00000E+00  9.000E+00
      21     1     1     2   501   512 -2.593983166E+00 -4.196949289E+01  2.993889789E+01  5.161884045E+01  8.920806376E-07  0.00000E+00  9.000E+00
#rwgt            1           1   3.4792653515648017E-002           2      399191           0
</event>
<event>
      5   9999  3.79277E-02  1.63796E+01 -1.00000E+00  1.73858E-01
      21    -1     0     0   502   501  0.000000000E+00  0.000000000E+00  4.424170991E+01  4.424170991E+01  0.000000000E+00  0.00000E+00  9.000E+00
      21    -1     0     0   511   502  0.000000000E+00  0.000000000E+00 -9.426677877E+02  9.426677877E+02  0.000000000E+00  0.00000E+00  9.000E+00
      25     1     1     2     0     0  3.748837500E+01  6.512140574E+01 -6.084580035E+02  6.256934694E+02  1.250000000E+02  0.00000E+00  9.000E+00
      25     1     1     2     0     0 -2.152332511E+01 -6.878306462E+01 -1.124206054E+02  1.829146140E+02  1.250000000E+02  0.00000E+00  9.000E+00
      21     1     1     2   511   501 -1.596504989E+01  3.661658880E+00 -1.775474689E+02  1.783014142E+02  0.000000000E+00  0.00000E+00  9.000E+00
#rwgt            1           1   5.4340696896222229E-002           2      399522           0
</event>
<event>
      5   9999  3.79277E-02  5.55546E+01 -1.00000E+00  1.36515E-01
      21    -1     0     0   512   501  0.000000000E+00  0.000000000E+00  1.771980120E+02  1.771980120E+02  0.000000000E+00  0.00000E+00  9.000E+00
      21    -1     0     0   501   502  0.000000000E+00  0.000000000E+00 -5.052331219E+02  5.052331219E+02  0.000000000E+00  0.00000E+00  9.000E+00
      25     1     1     2     0     0 -3.657065663E-01  1.354018692E+02  8.463750668E+01  2.027863592E+02  1.250000000E+02  0.00000E+00  9.000E+00
      25     1     1     2     0     0  4.125849574E+01 -9.779747257E+01 -3.830721625E+02  4.166964012E+02  1.250000000E+02  0.00000E+00  9.000E+00
      21     1     1     2   512   502 -4.089278918E+01 -3.760439663E+01 -2.960045401E+01  6.294837353E+01  5.840038640E-07  0.00000E+00  9.000E+00
#rwgt            1           1   4.1994939359534030E-002           2      399688           0
</event>
<event>
      5   9999  3.79277E-02  1.91642E+01 -1.00000E+00  1.67913E-01
      21    -1     0     0   502   501  0.000000000E+00  0.000000000E+00  8.426074056E+01  8.426074056E+01  0.000000000E+00  0.00000E+00  9.000E+00
      21    -1     0     0   511   502  0.000000000E+00  0.000000000E+00 -1.111305128E+03  1.111305128E+03  0.000000000E+00  0.00000E+00  9.000E+00
      25     1     1     2     0     0 -1.857855206E+01  5.401087585E+01 -8.637037824E+02  8.745693575E+02  1.250000000E+02  0.00000E+00  9.000E+00
      25     1     1     2     0     0  2.824330853E+01 -3.746219289E+01  2.143988919E+01  1.352248839E+02  1.250000000E+02  0.00000E+00  9.000E+00
      21     1     1     2   511   501 -9.664756475E+00 -1.654868296E+01 -1.847804945E+02  1.857716275E+02  0.000000000E+00  0.00000E+00  9.000E+00
#rwgt            1           1   4.9105331809366153E-002           2      399801           0
</event>
<event>
      5   9999  3.79277E-02  4.54549E+01 -1.00000E+00  1.41479E-01
      21    -1     0     0   512   501  0.000000000E+00  0.000000000E+00  2.724645790E+02  2.724645790E+02  0.000000000E+00  0.00000E+00  9.000E+00
      21    -1     0     0   501   502  0.000000000E+00  0.000000000E+00 -2.075278563E+02  2.075278563E+02  0.000000000E+00  0.00000E+00  9.000E+00
      25     1     1     2     0     0  9.594210173E+01  1.271464334E+01  5.641753783E+01  1.678525770E+02  1.250000000E+02  0.00000E+00  9.000E+00
      25     1     1     2     0     0 -1.314237136E+02  1.569661925E+01 -9.041045104E+01  2.032673756E+02  1.250000000E+02  0.00000E+00  9.000E+00
      21     1     1     2   512   502  3.548161184E+01 -2.841126259E+01  9.892963592E+01  1.088724827E+02  1.348699152E-06  0.00000E+00  9.000E+00
#rwgt            1           1   3.5258638288386032E-002           2      399927           0
</event>
<event>
      5   9999  3.79277E-02  2.26394E+01 -1.00000E+00  1.62046E-01
      21    -1     0     0   502   511  0.000000000E+00  0.000000000E+00  1.979818468E+02  1.979818468E+02  0.000000000E+00  0.00000E+00  9.000E+00
      21    -1     0     0   501   502  0.000000000E+00  0.000000000E+00 -2.184940766E+02  2.184940766E+02  0.000000000E+00  0.00000E+00  9.000E+00
      25     1     1     2     0     0 -6.232052719E+01  1.049614096E+01  1.247651800E+02  1.875776298E+02  1.250000000E+02  0.00000E+00  9.000E+00
      25     1     1     2     0     0  7.625034575E+01  7.350556419E+00 -1.450835081E+02  2.062580186E+02  1.250000000E+02  0.00000E+00  9.000E+00
      21     1     1     2   501   511 -1.392981855E+01 -1.784669738E+01 -1.939016049E-01  2.264027496E+01  1.752272967E-07  0.00000E+00  9.000E+00
#rwgt            1           1   2.3746164977252952E-002           2      400117           0
</event>
<event>
      5   9999  3.79277E-02  2.88572E+01 -1.00000E+00  1.54221E-01
      21    -1     0     0   502   501  0.000000000E+00  0.000000000E+00  7.589813386E+02  7.589813386E+02  0.000000000E+00  0.00000E+00  9.000E+00
      21    -1     0     0   501   512  0.000000000E+00  0.000000000E+00 -6.870505459E+01  6.870505459E+01  0.000000000E+00  0.00000E+00  9.000E+00
      25     1     1     2     0     0  9.020618232E+00 -6.974917553E+00  6.522377079E+02  6.642055771E+02  1.250000000E+02  0.00000E+00  9.000E+00
      25     1     1     2     0     0 -3.586225765E+01 -3.620498173E+00  3.260198775E+01  1.341159914E+02  1.250000000E+02  0.00000E+00  9.000E+00
      21     1     1     2   502   512  2.684163941E+01  1.059541573E+01  5.436588381E+00  2.936482478E+01  3.371747881E-07  0.00000E+00  9.000E+00
#rwgt            1           1   2.5837960002962724E-002           2      400317           0
</event>
<event>
      5   9999  3.79277E-02  5.97811E+01 -1.00000E+00  1.34788E-01
      21    -1     0     0   502   511  0.000000000E+00  0.000000000E+00  3.936918494E+02  3.936918494E+02  0.000000000E+00  0.00000E+00  9.000E+00
      21    -1     0     0   501   502  0.000000000E+00  0.000000000E+00 -1.607587848E+02  1.607587848E+02  0.000000000E+00  0.00000E+00  9.000E+00
      25     1     1     2     0     0  1.311875391E+02  9.819544970E+01 -1.371185809E+01  2.065563648E+02  1.250000000E+02  0.00000E+00  9.000E+00
      25     1     1     2     0     0 -8.614397105E+01 -5.889080445E+01  1.039492882E+02  1.931822071E+02  1.250000000E+02  0.00000E+00  9.000E+00
      21     1     1     2   501   511 -4.504356809E+01 -3.930464525E+01  1.426956345E+02  1.547120624E+02  1.907348633E-06  0.00000E+00  9.000E+00
#rwgt            1           1   4.1101617068176451E-002           2      400451           0
</event>
<event>
      5   9999  3.79277E-02  9.71449E+00 -1.00000E+00  1.97223E-01
      21    -1     0     0   502   512  0.000000000E+00  0.000000000E+00  5.721204574E+02  5.721204574E+02  0.000000000E+00  0.00000E+00  9.000E+00
      21    -1     0     0   501   502  0.000000000E+00  0.000000000E+00 -1.545216685E+02  1.545216685E+02  0.000000000E+00  0.00000E+00  9.000E+00
      25     1     1     2     0     0  1.685439075E+02 -6.063728850E+01 -3.008431829E+01  2.204858175E+02  1.250000000E+02  0.00000E+00  9.000E+00
      25     1     1     2     0     0 -1.778359416E+02  6.347090158E+01  4.288788062E+02  4.849909359E+02  1.250000000E+02  0.00000E+00  9.000E+00
      21     1     1     2   501   512  9.292034129E+00 -2.833613086E+00  1.880430091E+01  2.116537252E+01  2.384185791E-07  0.00000E+00  9.000E+00
#rwgt            1           1   4.2846958131954986E-002           2      400568           0
</event>
<event>
      5   9999  3.79277E-02  1.17089E+02 -1.00000E+00  1.20823E-01
       4    -1     0     0   502     0  0.000000000E+00  0.000000000E+00  7.547848974E+02  7.547848974E+02  0.000000000E+00  0.00000E+00  9.000E+00
      21    -1     0     0   501   502  0.000000000E+00  0.000000000E+00 -1.430595755E+02  1.430595755E+02  0.000000000E+00  0.00000E+00  9.000E+00
      25     1     1     2     0     0  7.363033741E+01  4.178831474E+01 -4.391120306E+01  1.572287620E+02  1.250000000E+02  0.00000E+00  9.000E+00
      25     1     1     2     0     0 -1.869752280E+02 -1.241498197E+01  4.690475337E+02  5.203311028E+02  1.250000000E+02  0.00000E+00  9.000E+00
       4     1     1     2   501     0  1.133448906E+02 -2.937333276E+01  1.865889912E+02  2.202846081E+02  0.000000000E+00  0.00000E+00  9.000E+00
#rwgt            2          20   7.2137404540484398E-006           2      400839           0
</event>
<event>
      5   9999  3.79277E-02  2.46469E+01 -1.00000E+00  1.59215E-01
      21    -1     0     0   511   501  0.000000000E+00  0.000000000E+00  9.187385300E+01  9.187385300E+01  0.000000000E+00  0.00000E+00  9.000E+00
      21    -1     0     0   501   502  0.000000000E+00  0.000000000E+00 -1.767782547E+03  1.767782547E+03  0.000000000E+00  0.00000E+00  9.000E+00
      25     1     1     2     0     0 -4.561894131E+01 -7.118495462E+01 -4.177937516E+02  4.442127919E+02  1.250000000E+02  0.00000E+00  9.000E+00
      25     1     1     2     0     0  6.093175388E+01  9.049784221E+01 -1.329557207E+03  1.339869361E+03  1.250000000E+02  0.00000E+00  9.000E+00
      21     1     1     2   511   502 -1.531281257E+01 -1.931288759E+01  7.144226390E+01  7.557424777E+01  9.536743164E-07  0.00000E+00  9.000E+00
#rwgt            1           1  0.14729135920806671                2      400903           0
</event>
<event>
      5   9999  3.79277E-02  7.95515E+01 -1.00000E+00  1.28468E-01
      21    -1     0     0   502   501  0.000000000E+00  0.000000000E+00  4.366088417E+02  4.366088417E+02  0.000000000E+00  0.00000E+00  9.000E+00
      21    -1     0     0   501   512  0.000000000E+00  0.000000000E+00 -8.956743275E+01  8.956743275E+01  0.000000000E+00  0.00000E+00  9.000E+00
      25     1     1     2     0     0 -2.922982422E+01  3.229633640E+01  1.876456360E+02  2.296373678E+02  1.250000000E+02  0.00000E+00  9.000E+00
      25     1     1     2     0     0  2.973370623E+01 -1.118461909E+02  1.135056961E+02  2.047002852E+02  1.250000000E+02  0.00000E+00  9.000E+00
      21     1     1     2   502   512 -5.038820075E-01  7.954985449E+01  4.589007683E+01  9.183862150E+01  2.023048729E-06  0.00000E+00  9.000E+00
#rwgt            1           1   8.1329619712436130E-002           2      401138           0
</event>
<event>
      5   9999  3.79277E-02  7.03850E+01 -1.00000E+00  1.31100E-01
      21    -1     0     0   502   501  0.000000000E+00  0.000000000E+00  8.116889842E+01  8.116889842E+01  0.000000000E+00  0.00000E+00  9.000E+00
      21    -1     0     0   501   511  0.000000000E+00  0.000000000E+00 -1.707726683E+03  1.707726683E+03  0.000000000E+00  0.00000E+00  9.000E+00
      25     1     1     2     0     0 -6.505738739E+01 -2.322756877E+02 -2.130533312E+02  3.452552399E+02  1.250000000E+02  0.00000E+00  9.000E+00
      25     1     1     2     0     0  1.515200618E+01  1.826419993E+02 -1.013995320E+03  1.037978416E+03  1.250000000E+02  0.00000E+00  9.000E+00
      21     1     1     2   502   511  4.990538121E+01  4.963368844E+01 -3.995091337E+02  4.056619257E+02  5.394796609E-06  0.00000E+00  9.000E+00
#rwgt            1           1   3.5637718575406367E-002           2      401263           0
</event>
<event>
      5   9999  3.79277E-02  8.09921E+01 -1.00000E+00  1.28091E-01
      21    -1     0     0   502   501  0.000000000E+00  0.000000000E+00  1.552375167E+02  1.552375167E+02  0.000000000E+00  0.00000E+00  9.000E+00
       2    -1     0     0   501     0  0.000000000E+00  0.000000000E+00 -1.041230105E+03  1.041230105E+03  0.000000000E+00  0.00000E+00  9.000E+00
      25     1     1     2     0     0  9.819312986E+01 -2.733967800E+02 -4.902854116E+02  5.834316369E+02  1.250000000E+02  0.00000E+00  9.000E+00
      25     1     1     2     0     0 -2.231379339E+01  2.450764332E+02 -8.039339487E+01  2.874864543E+02  1.250000000E+02  0.00000E+00  9.000E+00
       2     1     1     2   502     0 -7.587933646E+01  2.832034674E+01 -3.153137814E+02  3.255495300E+02  5.394796609E-06  0.00000E+00  9.000E+00
#rwgt            1           1   2.8478922977554316E-002           2      401309           0
</event>
<event>
      5   9999  3.79277E-02  4.02838E+01 -1.00000E+00  1.44650E-01
      21    -1     0     0   511   501  0.000000000E+00  0.000000000E+00  2.911585479E+02  2.911585479E+02  0.000000000E+00  0.00000E+00  9.000E+00
      21    -1     0     0   501   502  0.000000000E+00  0.000000000E+00 -4.196293967E+02  4.196293967E+02  0.000000000E+00  0.00000E+00  9.000E+00
      25     1     1     2     0     0 -6.634238444E+01 -7.118460748E+01 -3.222125204E+02  3.590466107E+02  1.250000000E+02  0.00000E+00  9.000E+00
      25     1     1     2     0     0  1.012453253E+02  9.129854058E+01  3.535356818E+01  1.883106853E+02  1.250000000E+02  0.00000E+00  9.000E+00
      21     1     1     2   511   502 -3.490294088E+01 -2.011393311E+01  1.583881034E+02  1.634306486E+02  1.907348633E-06  0.00000E+00  9.000E+00
#rwgt            1           1   4.2572705212356288E-002           2      401473           0
</event>
<event>
      5   9999  3.79277E-02  5.80163E+01 -1.00000E+00  1.35488E-01
       1    -1     0     0   502     0  0.000000000E+00  0.000000000E+00  3.251179804E+02  3.251179804E+02  0.000000000E+00  0.00000E+00  9.000E+00
      21    -1     0     0   501   502  0.000000000E+00  0.000000000E+00 -2.715092182E+02  2.715092182E+02  0.000000000E+00  0.00000E+00  9.000E+00
      25     1     1     2     0     0 -4.600565414E+01 -7.747724629E+01 -1.855238416E+02  2.411707687E+02  1.250000000E+02  0.00000E+00  9.000E+00
      25     1     1     2     0     0  6.297055181E+00  3.517928180E+01  2.344915321E+01  1.321063873E+02  1.250000000E+02  0.00000E+00  9.000E+00
       1     1     1     2   501     0  3.970859896E+01  4.229796449E+01  2.156834506E+02  2.233500425E+02  3.814697266E-06  0.00000E+00  9.000E+00
#rwgt            1           1   4.1715724022824092E-002           2      401604           0
</event>
<event>
      5   9999  3.79277E-02  3.35133E+01 -1.00000E+00  1.49773E-01
      21    -1     0     0   502   511  0.000000000E+00  0.000000000E+00  2.442367003E+02  2.442367003E+02  0.000000000E+00  0.00000E+00  9.000E+00
      21    -1     0     0   501   502  0.000000000E+00  0.000000000E+00 -2.760093931E+02  2.760093931E+02  0.000000000E+00  0.00000E+00  9.000E+00
      25     1     1     2     0     0 -1.476211144E+02  3.343623835E+01  2.540174962E+00  1.963197085E+02  1.250000000E+02  0.00000E+00  9.000E+00
      25     1     1     2     0     0  1.608952744E+02 -2.663890007E+00 -1.168183014E+02  2.348742242E+02  1.250000000E+02  0.00000E+00  9.000E+00
      21     1     1     2   501   511 -1.327416003E+01 -3.077234834E+01  8.250543366E+01  8.905216072E+01  9.536743164E-07  0.00000E+00  9.000E+00
#rwgt            2          11   9.6036584566210146E-004           2      401653           0
</event>
<event>
      5   9999  3.79277E-02  3.37811E+01 -1.00000E+00  1.49543E-01
      21    -1     0     0   502   501  0.000000000E+00  0.000000000E+00  4.151647631E+02  4.151647631E+02  0.000000000E+00  0.00000E+00  9.000E+00
      21    -1     0     0   512   502  0.000000000E+00  0.000000000E+00 -1.851000320E+02  1.851000320E+02  0.000000000E+00  0.00000E+00  9.000E+00
      25     1     1     2     0     0 -1.112760270E+02 -1.582573046E+02  9.061052742E+01  2.475136285E+02  1.250000000E+02  0.00000E+00  9.000E+00
      25     1     1     2     0     0  1.168102912E+02  1.915820079E+02  1.693369825E+02  3.076496766E+02  1.250000000E+02  0.00000E+00  9.000E+00
      21     1     1     2   512   501 -5.534264224E+00 -3.332470329E+01 -2.988277881E+01  4.510148999E+01  7.539457465E-07  0.00000E+00  9.000E+00
#rwgt            1           1   3.4862870430031924E-002           2      401748           0
</event>
<event>
      5   9999  3.79277E-02  4.40043E+01 -1.00000E+00  1.42316E-01
      21    -1     0     0   502   501  0.000000000E+00  0.000000000E+00  8.568151219E+01  8.568151219E+01  0.000000000E+00  0.00000E+00  9.000E+00
      21    -1     0     0   511   502  0.000000000E+00  0.000000000E+00 -3.000985363E+02  3.000985363E+02  0.000000000E+00  0.00000E+00  9.000E+00
      25     1     1     2     0     0  1.349179010E+00 -2.326913691E+01 -3.779652614E+01  1.326531206E+02  1.250000000E+02  0.00000E+00  9.000E+00
      25     1     1     2     0     0  4.103152776E+01  1.142610791E+01 -1.034886142E+02  1.677767430E+02  1.250000000E+02  0.00000E+00  9.000E+00
      21     1     1     2   511   501 -4.238070677E+01  1.184302900E+01 -7.313188378E+01  8.535018493E+01  9.536743164E-07  0.00000E+00  9.000E+00
#rwgt            1           1   8.2204182308361837E-003           2      401919           0
</event>
<event>
      5   9999  3.79277E-02  4.05859E+01 -1.00000E+00  1.44450E-01
      21    -1     0     0   512   501  0.000000000E+00  0.000000000E+00  6.634984799E+02  6.634984799E+02  0.000000000E+00  0.00000E+00  9.000E+00
      21    -1     0     0   501   502  0.000000000E+00  0.000000000E+00 -2.061329718E+02  2.061329718E+02  0.000000000E+00  0.00000E+00  9.000E+00
      25     1     1     2     0     0  1.438316365E+02  6.910923480E+01  1.367990054E+02  2.445456887E+02  1.250000000E+02  0.00000E+00  9.000E+00
      25     1     1     2     0     0 -1.753224146E+02 -9.471281928E+01 -5.967689120E+01  2.426825056E+02  1.250000000E+02  0.00000E+00  9.000E+00
      21     1     1     2   512   502  3.149077804E+01  2.560358449E+01  3.802433939E+02  3.824032574E+02  5.394796609E-06  0.00000E+00  9.000E+00
#rwgt            1           1   4.4364933790040612E-002           2      402097           0
</event>
<event>
      5   9999  3.79277E-02  1.98227E+01 -1.00000E+00  1.66689E-01
      21    -1     0     0   502   511  0.000000000E+00  0.000000000E+00  3.569986289E+02  3.569986289E+02  0.000000000E+00  0.00000E+00  9.000E+00
      21    -1     0     0   501   502  0.000000000E+00  0.000000000E+00 -4.776434971E+02  4.776434971E+02  0.000000000E+00  0.00000E+00  9.000E+00
      25     1     1     2     0     0  1.126496437E+02  1.248346074E+02 -1.591203150E+02  2.630929418E+02  1.250000000E+02  0.00000E+00  9.000E+00
      25     1     1     2     0     0 -9.696161736E+01 -1.369516962E+02 -2.250412614E+02  3.072879621E+02  1.250000000E+02  0.00000E+00  9.000E+00
      21     1     1     2   501   511 -1.568802630E+01  1.211708887E+01  2.635167082E+02  2.642612221E+02  0.000000000E+00  0.00000E+00  9.000E+00
#rwgt            1           1   3.6039764126211682E-002           2      402246           0
</event>
<event>
      5   9999  3.79277E-02  1.10818E+01 -1.00000E+00  1.90738E-01
      21    -1     0     0   502   512  0.000000000E+00  0.000000000E+00  1.920249660E+02  1.920249660E+02  0.000000000E+00  0.00000E+00  9.000E+00
      21    -1     0     0   501   502  0.000000000E+00  0.000000000E+00 -2.236913579E+02  2.236913579E+02  0.000000000E+00  0.00000E+00  9.000E+00
      25     1     1     2     0     0  3.909360531E+00 -8.143079130E+01  9.494860677E+01  1.768798881E+02  1.250000000E+02  0.00000E+00  9.000E+00
      25     1     1     2     0     0  7.155118619E+00  8.081200365E+01 -1.509390333E+02  2.121069717E+02  1.250000000E+02  0.00000E+00  9.000E+00
      21     1     1     2   501   512 -1.106447915E+01  6.187876474E-01  2.432403460E+01  2.672946420E+01  0.000000000E+00  0.00000E+00  9.000E+00
#rwgt            1           1   3.6761242229912186E-002           2      402426           0
</event>
<event>
      5   9999  3.79277E-02  6.85322E+01 -1.00000E+00  1.31688E-01
      21    -1     0     0   502   501  0.000000000E+00  0.000000000E+00  1.743132688E+03  1.743132688E+03  0.000000000E+00  0.00000E+00  9.000E+00
      21    -1     0     0   511   502  0.000000000E+00  0.000000000E+00 -9.434401705E+01  9.434401705E+01  0.000000000E+00  0.00000E+00  9.000E+00
      25     1     1     2     0     0  4.909451621E+00  1.012682543E+02  1.353871526E+03  1.363404735E+03  1.250000000E+02  0.00000E+00  9.000E+00
      25     1     1     2     0     0 -5.021288160E+01 -1.526906968E+02  3.369362854E+02  3.936836837E+02  1.250000000E+02  0.00000E+00  9.000E+00
      21     1     1     2   511   501  4.530342998E+01  5.142244245E+01 -4.201914084E+01  8.038828616E+01  3.568322551E-06  0.00000E+00  9.000E+00
#rwgt            1           1   3.7107358708437219E-002           2      402570           0
</event>
<event>
      5   9999  3.79277E-02  7.59395E+00 -1.00000E+00  2.10673E-01
      21    -1     0     0   502   501  0.000000000E+00  0.000000000E+00  2.601579676E+03  2.601579676E+03  0.000000000E+00  0.00000E+00  9.000E+00
      21    -1     0     0   501   512  0.000000000E+00  0.000000000E+00 -1.459217741E+01  1.459217741E+01  0.000000000E+00  0.00000E+00  9.000E+00
      25     1     1     2     0     0  1.335391626E+01 -1.388570708E+01  2.252844543E+03  2.256391959E+03  1.250000000E+02  0.00000E+00  9.000E+00
      25     1     1     2     0     0 -1.224280983E+01  6.373480465E+00  3.134200379E+02  3.377093837E+02  1.250000000E+02  0.00000E+00  9.000E+00
      21     1     1     2   502   512 -1.111106428E+00  7.512226612E+00  2.072291760E+01  2.207051019E+01  7.152557373E-07  0.00000E+00  9.000E+00
#rwgt            1           1   6.2982483621362620E-002           2      402620           0
</event>
<event>
      5   9999  3.79277E-02  2.42834E+01 -1.00000E+00  1.59703E-01
      21    -1     0     0   502   511  0.000000000E+00  0.000000000E+00  6.409357063E+02  6.409357063E+02  0.000000000E+00  0.00000E+00  9.000E+00
      21    -1     0     0   501   502  0.000000000E+00  0.000000000E+00 -6.135531653E+01  6.135531653E+01  0.000000000E+00  0.00000E+00  9.000E+00
      25     1     1     2     0     0 -5.788883156E+01  1.035229305E+02  1.285363968E+02  2.149760900E+02  1.250000000E+02  0.00000E+00  9.000E+00
      25     1     1     2     0     0  3.665869045E+01 -9.173452805E+01  3.736277591E+02  4.061794993E+02  1.250000000E+02  0.00000E+00  9.000E+00
      21     1     1     2   501   511  2.123014111E+01 -1.178840246E+01  7.741623379E+01  8.113543356E+01  1.348699152E-06  0.00000E+00  9.000E+00
#rwgt            1           1   4.7931516611263693E-002           2      402921           0
</event>
<event>
      5   9999  3.79277E-02  1.48221E+01 -1.00000E+00  1.77873E-01
      21    -1     0     0   502   501  0.000000000E+00  0.000000000E+00  2.083342437E+02  2.083342437E+02  0.000000000E+00  0.00000E+00  9.000E+00
       1    -1     0     0   501     0  0.000000000E+00  0.000000000E+00 -1.894855106E+03  1.894855106E+03  0.000000000E+00  0.00000E+00  9.000E+00
      25     1     1     2     0     0 -4.364605404E+02  2.560528422E+00 -3.753286204E+02  5.890678509E+02  1.250000000E+02  0.00000E+00  9.000E+00
      25     1     1     2     0     0  4.346017907E+02 -1.726560563E+01 -4.035107958E+02  6.063190414E+02  1.250000000E+02  0.00000E+00  9.000E+00
       1     1     1     2   502     0  1.858749633E+00  1.470507721E+01 -9.076814464E+02  9.078024578E+02  1.078959322E-05  0.00000E+00  9.000E+00
#rwgt            1           1  0.12601707978352020                2      403136           0
</event>
<event>
      5   9999  3.79277E-02  2.47128E+01 -1.00000E+00  1.59128E-01
      21    -1     0     0   502   501  0.000000000E+00  0.000000000E+00  1.834961755E+03  1.834961755E+03  0.000000000E+00  0.00000E+00  9.000E+00
      21    -1     0     0   511   502  0.000000000E+00  0.000000000E+00 -1.922469502E+01  1.922469502E+01  0.000000000E+00  0.00000E+00  9.000E+00
      25     1     1     2     0     0 -9.692074777E+01  2.693902539E+00  1.184380171E+03  1.194898438E+03  1.250000000E+02  0.00000E+00  9.000E+00
      25     1     1     2     0     0  1.043839649E+02 -2.625283608E+01  5.384580092E+02  5.631582826E+02  1.250000000E+02  0.00000E+00  9.000E+00
      21     1     1     2   511   501 -7.463217156E+00  2.355893354E+01  9.289887969E+01  9.612972905E+01  1.348699152E-06  0.00000E+00  9.000E+00
#rwgt            1           1  0.17279527881965376                2      403424           0
</event>
<event>
      5   9999  3.79277E-02  1.46368E+02 -1.00000E+00  1.16817E-01
      21    -1     0     0   502   512  0.000000000E+00  0.000000000E+00  3.229726348E+02  3.229726348E+02  0.000000000E+00  0.00000E+00  9.000E+00
      21    -1     0     0   501   502  0.000000000E+00  0.000000000E+00 -4.046467700E+02  4.046467700E+02  0.000000000E+00  0.00000E+00  9.000E+00
      25     1     1     2     0     0  2.278968438E+02  4.809460096E+01 -4.399246571E+01  2.679746240E+02  1.250000000E+02  0.00000E+00  9.000E+00
      25     1     1     2     0     0 -1.296726735E+02  6.042096611E+01 -1.754786523E+02  2.586183536E+02  1.250000000E+02  0.00000E+00  9.000E+00
      21     1     1     2   501   512 -9.822417031E+01 -1.085155671E+02  1.377969828E+02  2.010264271E+02  3.303624740E-06  0.00000E+00  9.000E+00
#rwgt            1           1   4.0264148707670901E-002           2      403582           0
</event>
<event>
      5   9999  3.79277E-02  4.51583E+01 -1.00000E+00  1.41647E-01
      21    -1     0     0   511   501  0.000000000E+00  0.000000000E+00  7.116068378E+02  7.116068378E+02  0.000000000E+00  0.00000E+00  9.000E+00
      21    -1     0     0   501   502  0.000000000E+00  0.000000000E+00 -6.987724691E+01  6.987724691E+01  0.000000000E+00  0.00000E+00  9.000E+00
      25     1     1     2     0     0 -2.738826505E+01  1.248409738E+02  2.481713352E+02  3.058584597E+02  1.250000000E+02  0.00000E+00  9.000E+00
      25     1     1     2     0     0  2.231385103E+01 -1.697132413E+02  2.648255779E+02  3.392021210E+02  1.250000000E+02  0.00000E+00  9.000E+00
      21     1     1     2   511   502  5.074414012E+00  4.487226750E+01  1.287326779E+02  1.364235040E+02  1.907348633E-06  0.00000E+00  9.000E+00
#rwgt            1           1   3.7715948401087759E-002           2      403654           0
</event>
<event>
      5   9999  3.79277E-02  5.81962E+01 -1.00000E+00  1.35416E-01
      21    -1     0     0   502   501  0.000000000E+00  0.000000000E+00  3.783657254E+02  3.783657254E+02  0.000000000E+00  0.00000E+00  9.000E+00
      21    -1     0     0   501   512  0.000000000E+00  0.000000000E+00 -1.518213918E+02  1.518213918E+02  0.000000000E+00  0.00000E+00  9.000E+00
      25     1     1     2     0     0 -1.149858874E+02  6.468964797E+01  7.769918158E+01  1.976579563E+02  1.250000000E+02  0.00000E+00  9.000E+00
      25     1     1     2     0     0  1.731467911E+02 -6.266346756E+01  1.589134280E+02  2.734684608E+02  1.250000000E+02  0.00000E+00  9.000E+00
      21     1     1     2   502   512 -5.816090366E+01 -2.026180409E+00 -1.006827590E+01  5.906070014E+01  6.307962682E-07  0.00000E+00  9.000E+00
#rwgt            1           1   2.4395836102730419E-002           2      403743           0
</event>
<event>
      5   9999  3.79277E-02  1.64786E+01 -1.00000E+00  1.73622E-01
      21    -1     0     0   511   501  0.000000000E+00  0.000000000E+00  1.214943083E+03  1.214943083E+03  0.000000000E+00  0.00000E+00  9.000E+00
      21    -1     0     0   501   502  0.000000000E+00  0.000000000E+00 -4.326462177E+01  4.326462177E+01  0.000000000E+00  0.00000E+00  9.000E+00
      25     1     1     2     0     0 -1.378017509E+02  8.061641461E+01  4.123530632E+02  4.595088439E+02  1.250000000E+02  0.00000E+00  9.000E+00
      25     1     1     2     0     0  1.537705211E+02 -7.654930760E+01  5.640476117E+02  6.027270344E+02  1.250000000E+02  0.00000E+00  9.000E+00
      21     1     1     2   511   502 -1.596877015E+01 -4.067107014E+00  1.952777861E+02  1.959718263E+02  3.814697266E-06  0.00000E+00  9.000E+00
#rwgt            1           1   3.8628490416431530E-002           2      403851           0
</event>
<event>
      5   9999  3.79277E-02  1.20965E+02 -1.00000E+00  1.20221E-01
      -2    -1     0     0     0   501  0.000000000E+00  0.000000000E+00  2.824002432E+02  2.824002432E+02  0.000000000E+00  0.00000E+00  9.000E+00
      21    -1     0     0   501   502  0.000000000E+00  0.000000000E+00 -6.294247351E+02  6.294247351E+02  0.000000000E+00  0.00000E+00  9.000E+00
      25     1     1     2     0     0 -3.219330278E+01  1.017912776E+02 -4.796478613E+02  5.070354463E+02  1.250000000E+02  0.00000E+00  9.000E+00
      25     1     1     2     0     0 -4.851174539E+01 -1.918983346E+02  1.268681718E+01  2.344446962E+02  1.250000000E+02  0.00000E+00  9.000E+00
      -2     1     1     2     0   502  8.070504817E+01  9.010705696E+01  1.199365522E+02  1.703448357E+02  1.907348633E-06  0.00000E+00  9.000E+00
#rwgt            1           1   5.3441870646715565E-002           2      404026           0
</event>
<event>
      5   9999  3.79277E-02  1.18359E+01 -1.00000E+00  1.87659E-01
      21    -1     0     0   502   501  0.000000000E+00  0.000000000E+00  4.216309118E+02  4.216309118E+02  0.000000000E+00  0.00000E+00  9.000E+00
      21    -1     0     0   501   511  0.000000000E+00  0.000000000E+00 -1.193839803E+02  1.193839803E+02  0.000000000E+00  0.00000E+00  9.000E+00
      25     1     1     2     0     0  1.429408606E+01  6.411637324E+01 -1.919132589E+01  1.425080251E+02  1.250000000E+02  0.00000E+00  9.000E+00
      25     1     1     2     0     0 -1.596635257E+01 -7.583353649E+01  3.433940201E+02  3.735640544E+02  1.250000000E+02  0.00000E+00  9.000E+00
      21     1     1     2   502   511  1.672266511E+00  1.171716325E+01 -2.195576266E+01  2.494281267E+01  3.371747881E-07  0.00000E+00  9.000E+00
#rwgt            1           1   4.3681839826308931E-002           2      404129           0
</event>
<event>
      5   9999  3.79277E-02  5.88412E+01 -1.00000E+00  1.35158E-01
      21    -1     0     0   502   501  0.000000000E+00  0.000000000E+00  1.391987283E+02  1.391987283E+02  0.000000000E+00  0.00000E+00  9.000E+00
       2    -1     0     0   501     0  0.000000000E+00  0.000000000E+00 -1.044437758E+03  1.044437758E+03  0.000000000E+00  0.00000E+00  9.000E+00
      25     1     1     2     0     0 -3.222085289E+01 -1.871660918E+00  9.775612603E+01  1.619350075E+02  1.250000000E+02  0.00000E+00  9.000E+00
      25     1     1     2     0     0 -7.394504194E-01 -4.687163742E+01 -6.197663131E+02  6.339816874E+02  1.250000000E+02  0.00000E+00  9.000E+00
       2     1     1     2   502     0  3.296030331E+01  4.874329834E+01 -3.832288423E+02  3.877197910E+02  7.629394531E-06  0.00000E+00  9.000E+00
#rwgt            1           1   5.6488680628656498E-003           2      404360           0
</event>
<event>
      5   9999  3.79277E-02  1.60204E+01 -1.00000E+00  1.74733E-01
      21    -1     0     0   502   511  0.000000000E+00  0.000000000E+00  5.784271473E+02  5.784271473E+02  0.000000000E+00  0.00000E+00  9.000E+00
      21    -1     0     0   501   502  0.000000000E+00  0.000000000E+00 -1.898315296E+02  1.898315296E+02  0.000000000E+00  0.00000E+00  9.000E+00
      25     1     1     2     0     0  8.672253219E+01 -2.324242013E+02  2.818727548E+01  2.792155609E+02  1.250000000E+02  0.00000E+00  9.000E+00
      25     1     1     2     0     0 -9.595519783E+01  2.193318205E+02  2.217020408E+02  3.494147140E+02  1.250000000E+02  0.00000E+00  9.000E+00
      21     1     1     2   501   511  9.232665642E+00  1.309238082E+01  1.387063015E+02  1.396284019E+02  1.907348633E-06  0.00000E+00  9.000E+00
#rwgt            1           1   3.6575115021220100E-002           2      404498           0
</event>
<event>
      5   9999  3.79277E-02  5.17547E+01 -1.00000E+00  1.38226E-01
      21    -1     0     0   502   501  0.000000000E+00  0.000000000E+00  4.705516286E+02  4.705516286E+02  0.000000000E+00  0.00000E+00  9.000E+00
      21    -1     0     0   501   512  0.000000000E+00  0.000000000E+00 -1.062242531E+02  1.062242531E+02  0.000000000E+00  0.00000E+00  9.000E+00
      25     1     1     2     0     0 -1.054817683E+02  4.395552492E+01  3.164859452E+02  3.589524274E+02  1.250000000E+02  0.00000E+00  9.000E+00
      25     1     1     2     0     0  9.093686762E+01  5.713370398E+00  1.257284779E+01  1.551941784E+02  1.250000000E+02  0.00000E+00  9.000E+00
      21     1     1     2   502   512  1.454490065E+01 -4.966889532E+01  3.526858246E+01  6.262927595E+01  9.536743164E-07  0.00000E+00  9.000E+00
#rwgt            1           1   3.9011676220889559E-002           2      404717           0
</event>
<event>
      5   9999  3.79277E-02  1.90134E+01 -1.00000E+00  1.68202E-01
      21    -1     0     0   502   501  0.000000000E+00  0.000000000E+00  7.352488156E+02  7.352488156E+02  0.000000000E+00  0.00000E+00  9.000E+00
      21    -1     0     0   511   502  0.000000000E+00  0.000000000E+00 -3.442661259E+02  3.442661259E+02  0.000000000E+00  0.00000E+00  9.000E+00
      25     1     1     2     0     0  7.645740518E+01 -2.004465654E+02  5.827806159E+02  6.334688679E+02  1.250000000E+02  0.00000E+00  9.000E+00
      25     1     1     2     0     0 -5.888571235E+01  2.077090996E+02  3.826355489E+00  2.494999763E+02  1.250000000E+02  0.00000E+00  9.000E+00
      21     1     1     2   511   501 -1.757169282E+01 -7.262534205E+00 -1.956242816E+02  1.965460973E+02  4.672030912E-06  0.00000E+00  9.000E+00
#rwgt            1           1   4.2225669011651666E-002           2      404894           0
</event>
<event>
      5   9999  3.79277E-02  5.38455E+01 -1.00000E+00  1.37264E-01
      21    -1     0     0   512   501  0.000000000E+00  0.000000000E+00  1.946171357E+03  1.946171357E+03  0.000000000E+00  0.00000E+00  9.000E+00
      21    -1     0     0   501   502  0.000000000E+00  0.000000000E+00 -9.785267986E+01  9.785267986E+01  0.000000000E+00  0.00000E+00  9.000E+00
      25     1     1     2     0     0  5.270318327E+01 -2.173057356E+02  6.036514608E+02  6.557587166E+02  1.250000000E+02  0.00000E+00  9.000E+00
      25     1     1     2     0     0 -7.178162230E+01  2.676579868E+02  2.540380816E+02  3.961738836E+02  1.250000000E+02  0.00000E+00  9.000E+00
      21     1     1     2   512   502  1.907843903E+01 -5.035225118E+01  9.906291348E+02  9.920914367E+02  1.525878906E-05  0.00000E+00  9.000E+00
#rwgt            1           1   3.8383940828863851E-002           2      405031           0
</event>
<event>
      5   9999  3.79277E-02  6.15762E+01 -1.00000E+00  1.34104E-01
      21    -1     0     0   502   501  0.000000000E+00  0.000000000E+00  5.612993208E+02  5.612993208E+02  0.000000000E+00  0.00000E+00  9.000E+00
      21    -1     0     0   511   502  0.000000000E+00  0.000000000E+00 -2.076827158E+02  2.076827158E+02  0.000000000E+00  0.00000E+00  9.000E+00
      25     1     1     2     0     0 -7.534542408E+00 -1.031580115E+02  3.721366405E+02  4.059667768E+02  1.250000000E+02  0.00000E+00  9.000E+00
      25     1     1     2     0     0  6.365681243E+01  1.284942494E+02  1.105416246E+02  2.200168463E+02  1.250000000E+02  0.00000E+00  9.000E+00
      21     1     1     2   511   501 -5.612227002E+01 -2.533623791E+01 -1.290616601E+02  1.429984135E+02  0.000000000E+00  0.00000E+00  9.000E+00
#rwgt            1           1   4.0706828173357933E-002           2      405203           0
</event>
<event>
      5   9999  3.79277E-02  4.62427E+01 -1.00000E+00  1.41039E-01
      21    -1     0     0   502   501  0.000000000E+00  0.000000000E+00  1.688577345E+03  1.688577345E+03  0.000000000E+00  0.00000E+00  9.000E+00
      21    -1     0     0   512   502  0.000000000E+00  0.000000000E+00 -3.034353556E+01  3.034353556E+01  0.000000000E+00  0.00000E+00  9.000E+00
      25     1     1     2     0     0 -1.820878075E+02 -8.426675617E+00  8.458314903E+02  8.742327427E+02  1.250000000E+02  0.00000E+00  9.000E+00
      25     1     1     2     0     0  1.358461394E+02  8.113288037E+00  6.657097781E+02  6.908795174E+02  1.250000000E+02  0.00000E+00  9.000E+00
      21     1     1     2   512   501  4.624166820E+01  3.133875801E-01  1.466925412E+02  1.538086205E+02  4.264961200E-06  0.00000E+00  9.000E+00
#rwgt            1           1   2.4022119280887953E-002           2      405322           0
</event>
<event>
      5   9999  3.79277E-02  6.37372E+01 -1.00000E+00  1.33316E-01
      21    -1     0     0   502   501  0.000000000E+00  0.000000000E+00  4.915222081E+02  4.915222081E+02  0.000000000E+00  0.00000E+00  9.000E+00
       2    -1     0     0   501     0  0.000000000E+00  0.000000000E+00 -2.777292393E+02  2.777292393E+02  0.000000000E+00  0.00000E+00  9.000E+00
      25     1     1     2     0     0 -1.263875473E+02 -5.732315423E+01  9.544887308E+01  2.097504315E+02  1.250000000E+02  0.00000E+00  9.000E+00
      25     1     1     2     0     0  6.769168264E+01  8.216723520E+01  3.136670189E+02  3.540418297E+02  1.250000000E+02  0.00000E+00  9.000E+00
       2     1     1     2   502     0  5.869586466E+01 -2.484408097E+01 -1.953229232E+02  2.054591862E+02  2.697398305E-06  0.00000E+00  9.000E+00
#rwgt            1           1   4.4227491248946565E-002           2      405441           0
</event>
<event>
      5   9999  3.79277E-02  2.50148E+01 -1.00000E+00  1.58732E-01
      -2    -1     0     0     0   501  0.000000000E+00  0.000000000E+00  2.156202474E+02  2.156202474E+02  0.000000000E+00  0.00000E+00  9.000E+00
      21    -1     0     0   501   502  0.000000000E+00  0.000000000E+00 -1.341530851E+03  1.341530851E+03  0.000000000E+00  0.00000E+00  9.000E+00
      25     1     1     2     0     0  8.167580790E+01  1.326813083E+02 -4.668110180E+02  5.077526895E+02  1.250000000E+02  0.00000E+00  9.000E+00
      25     1     1     2     0     0 -9.051079819E+01 -1.092786967E+02 -8.429264720E+02  8.638773497E+02  1.250000000E+02  0.00000E+00  9.000E+00
      -2     1     1     2     0   502  8.834990293E+00 -2.340261155E+01  1.838268864E+02  1.855210593E+02  3.814697266E-06  0.00000E+00  9.000E+00
#rwgt            1           1   4.2674091196644170E-002           2      405557           0
</event>
<event>
      5   9999  3.79277E-02  1.81935E+02 -1.00000E+00  1.13165E-01
      -2    -1     0     0     0   501  0.000000000E+00  0.000000000E+00  3.746192976E+02  3.746192976E+02  0.000000000E+00  0.00000E+00  9.000E+00
      21    -1     0     0   501   502  0.000000000E+00  0.000000000E+00 -2.492927514E+02  2.492927514E+02  0.000000000E+00  0.00000E+00  9.000E+00
      25     1     1     2     0     0 -2.156625344E+02 -4.055803224E+01  1.694450090E+02  3.041247997E+02  1.250000000E+02  0.00000E+00  9.000E+00
      25     1     1     2     0     0  3.711582662E+01  5.607271527E+00 -4.437411692E+01  1.378516896E+02  1.250000000E+02  0.00000E+00  9.000E+00
      -2     1     1     2     0   502  1.785467077E+02  3.495076071E+01  2.556541384E-01  1.819355597E+02  2.688668754E-06  0.00000E+00  9.000E+00
#rwgt            2           4   5.1585644502846273E-006           2      405659           0
</event>
<event>
      5   9999  3.79277E-02  4.50806E+01 -1.00000E+00  1.41691E-01
       1    -1     0     0   502     0  0.000000000E+00  0.000000000E+00  8.418925145E+02  8.418925145E+02  0.000000000E+00  0.00000E+00  9.000E+00
      21    -1     0     0   501   502  0.000000000E+00  0.000000000E+00 -8.977761972E+01  8.977761972E+01  0.000000000E+00  0.00000E+00  9.000E+00
      25     1     1     2     0     0 -2.235303359E+01  1.200555608E+02  6.047257039E+01  1.849187053E+02  1.250000000E+02  0.00000E+00  9.000E+00
      25     1     1     2     0     0  6.132875051E+01 -9.740264738E+01  2.468504892E+02  2.996809226E+02  1.250000000E+02  0.00000E+00  9.000E+00
       1     1     1     2   501     0 -3.897571693E+01 -2.265291342E+01  4.447918352E+02  4.470705064E+02  0.000000000E+00  0.00000E+00  9.000E+00
#rwgt            1           1   3.1596206317801231E-002           2      405708           0
</event>
<event>
      5   9999  3.79277E-02  2.23054E+01 -1.00000E+00  1.62552E-01
      21    -1     0     0   511   501  0.000000000E+00  0.000000000E+00  1.029011194E+02  1.029011194E+02  0.000000000E+00  0.00000E+00  9.000E+00
      21    -1     0     0   501   502  0.000000000E+00  0.000000000E+00 -5.102587391E+02  5.102587391E+02  0.000000000E+00  0.00000E+00  9.000E+00
      25     1     1     2     0     0 -7.122874352E+01 -1.159313671E+02 -3.299770350E+02  3.781844251E+02  1.250000000E+02  0.00000E+00  9.000E+00
      25     1     1     2     0     0  9.144123666E+01  1.253646136E+02 -7.323600578E+01  2.122882442E+02  1.250000000E+02  0.00000E+00  9.000E+00
      21     1     1     2   511   502 -2.021249314E+01 -9.433246459E+00 -4.144578886E+00  2.268718915E+01  3.908537939E-07  0.00000E+00  9.000E+00
#rwgt            1           1   4.3391403981683153E-002           2      405757           0
</event>
<event>
      5   9999  3.79277E-02  1.95250E+02 -1.00000E+00  1.12029E-01
      21    -1     0     0   502   512  0.000000000E+00  0.000000000E+00  4.234398636E+02  4.234398636E+02  0.000000000E+00  0.00000E+00  9.000E+00
      21    -1     0     0   501   502  0.000000000E+00  0.000000000E+00 -3.732664763E+02  3.732664763E+02  0.000000000E+00  0.00000E+00  9.000E+00
      25     1     1     2     0     0  7.550575608E+01 -1.182738964E+02  2.179203052E+02  2.877570037E+02  1.250000000E+02  0.00000E+00  9.000E+00
      25     1     1     2     0     0 -1.689042396E+02 -5.318832618E+01 -2.179130200E+02  3.073576491E+02  1.250000000E+02  0.00000E+00  9.000E+00
      21     1     1     2   501   512  9.339848351E+01  1.714622226E+02  5.016610205E+01  2.015916870E+02  3.371747881E-06  0.00000E+00  9.000E+00
#rwgt            1           1   3.7022262147325687E-002           2      405931           0
</event>
<event>
      5   9999 -3.79277E-02  7.50538E+01 -1.00000E+00  1.29706E-01
       2    -1     0     0   502     0  0.000000000E+00  0.000000000E+00  1.962437057E+03  1.962437057E+03  0.000000000E+00  0.00000E+00  9.000E+00
      21    -1     0     0   501   502  0.000000000E+00  0.000000000E+00 -6.323305332E+02  6.323305332E+02  0.000000000E+00  0.00000E+00  9.000E+00
      25     1     1     2     0     0 -5.480848650E+01 -1.263997662E+02 -2.484336160E+02  3.103629048E+02  1.250000000E+02  0.00000E+00  9.000E+00
      25     1     1     2     0     0 -1.841467440E+01  1.428750861E+02 -3.263712410E+02  3.780153137E+02  1.250000000E+02  0.00000E+00  9.000E+00
       2     1     1     2   501     0  7.322316090E+01 -1.647531986E+01  1.904911381E+03  1.906389372E+03  3.051757812E-05  0.00000E+00  9.000E+00
#rwgt            1           1  -5.7405143573798063E-002           2      405990           0
</event>
<event>
      5   9999  3.79277E-02  2.93763E+01 -1.00000E+00  1.53676E-01
      21    -1     0     0   502   501  0.000000000E+00  0.000000000E+00  1.899180357E+02  1.899180357E+02  0.000000000E+00  0.00000E+00  9.000E+00
      21    -1     0     0   511   502  0.000000000E+00  0.000000000E+00 -4.916714498E+02  4.916714498E+02  0.000000000E+00  0.00000E+00  9.000E+00
      25     1     1     2     0     0 -2.120621564E+02  2.400348955E+00 -2.361496816E+02  3.411272372E+02  1.250000000E+02  0.00000E+00  9.000E+00
      25     1     1     2     0     0  1.827389946E+02 -6.335152626E-01  4.508127132E+01  2.259452644E+02  1.250000000E+02  0.00000E+00  9.000E+00
      21     1     1     2   511   501  2.932316176E+01 -1.766833692E+00 -1.106850038E+02  1.145169839E+02  1.907348633E-06  0.00000E+00  9.000E+00
#rwgt            1           1   7.0328609405774567E-002           2      406178           0
</event>
<event>
      5   9999  3.79277E-02  9.44734E+01 -1.00000E+00  1.24949E-01
      21    -1     0     0   502   512  0.000000000E+00  0.000000000E+00  5.706263166E+02  5.706263166E+02  0.000000000E+00  0.00000E+00  9.000E+00
      21    -1     0     0   501   502  0.000000000E+00  0.000000000E+00 -2.750876377E+02  2.750876377E+02  0.000000000E+00  0.00000E+00  9.000E+00
      25     1     1     2     0     0  7.551860848E+01 -3.028458208E+02  1.937534773E+01  3.367774570E+02  1.250000000E+02  0.00000E+00  9.000E+00
      25     1     1     2     0     0  1.880079133E+01  2.974541319E+02  1.644476362E+02  3.626299152E+02  1.250000000E+02  0.00000E+00  9.000E+00
      21     1     1     2   501   512 -9.431939982E+01  5.391688920E+00  1.117156950E+02  1.463065822E+02  1.907348633E-06  0.00000E+00  9.000E+00
#rwgt            1           1   2.9528653213177981E-002           2      406325           0
</event>
<event>
      5   9999  3.79277E-02  6.32603E+01 -1.00000E+00  1.33487E-01
      -2    -1     0     0     0   501  0.000000000E+00  0.000000000E+00  7.661011186E+02  7.661011186E+02  0.000000000E+00  0.00000E+00  9.000E+00
      21    -1     0     0   501   502  0.000000000E+00  0.000000000E+00 -2.791612592E+02  2.791612592E+02  0.000000000E+00  0.00000E+00  9.000E+00
      25     1     1     2     0     0  3.141400517E+02  1.669923058E+02  2.240694941E+02  4.386371399E+02  1.250000000E+02  0.00000E+00  9.000E+00
      25     1     1     2     0     0 -2.938552912E+02 -2.269122361E+02  6.274470709E+01  3.967392007E+02  1.250000000E+02  0.00000E+00  9.000E+00
      -2     1     1     2     0   502 -2.028476046E+01  5.991993032E+01  2.001256582E+02  2.098860372E+02  0.000000000E+00  0.00000E+00  9.000E+00
#rwgt            1           1   5.1242661405250099E-002           2      406481           0
</event>
<event>
      5   9999  3.79277E-02  1.66641E+02 -1.00000E+00  1.14611E-01
      21    -1     0     0   502   501  0.000000000E+00  0.000000000E+00  3.154214142E+02  3.154214142E+02  0.000000000E+00  0.00000E+00  9.000E+00
      21    -1     0     0   501   511  0.000000000E+00  0.000000000E+00 -3.738657279E+02  3.738657279E+02  0.000000000E+00  0.00000E+00  9.000E+00
      25     1     1     2     0     0 -9.160966051E+01  1.303830428E+02  1.047077422E+02  2.279929364E+02  1.250000000E+02  0.00000E+00  9.000E+00
      25     1     1     2     0     0  2.226972009E+02 -2.749835302E+01 -5.513565310E+01  2.627073333E+02  1.250000000E+02  0.00000E+00  9.000E+00
      21     1     1     2   502   511 -1.310875404E+02 -1.028846898E+02 -1.080164028E+02  1.985868725E+02  1.907348633E-06  0.00000E+00  9.000E+00
#rwgt            1           1   3.5512971671051677E-002           2      406573           0
</event>
<event>
      5   9999  3.79277E-02  1.42081E+02 -1.00000E+00  1.17335E-01
      21    -1     0     0   502   501  0.000000000E+00  0.000000000E+00  1.150539100E+03  1.150539100E+03  0.000000000E+00  0.00000E+00  9.000E+00
      21    -1     0     0   512   502  0.000000000E+00  0.000000000E+00 -3.722603341E+02  3.722603341E+02  0.000000000E+00  0.00000E+00  9.000E+00
      25     1     1     2     0     0 -2.089006501E+02  3.837600600E+02  8.424461505E+02  9.572104167E+02  1.250000000E+02  0.00000E+00  9.000E+00
      25     1     1     2     0     0  1.612432967E+02 -2.499100840E+02  1.099712751E+02  3.408417994E+02  1.250000000E+02  0.00000E+00  9.000E+00
      21     1     1     2   512   501  4.765735339E+01 -1.338499759E+02 -1.741386595E+02  2.247472183E+02  4.264961200E-06  0.00000E+00  9.000E+00
#rwgt            1           1   1.5125268454660336E-002           2      406675           0
</event>
<event>
      5   9999  3.79277E-02  6.99268E+01 -1.00000E+00  1.31244E-01
      21    -1     0     0   502   501  0.000000000E+00  0.000000000E+00  1.520252593E+02  1.520252593E+02  0.000000000E+00  0.00000E+00  9.000E+00
      21    -1     0     0   501   511  0.000000000E+00  0.000000000E+00 -5.187242025E+02  5.187242025E+02  0.000000000E+00  0.00000E+00  9.000E+00
      25     1     1     2     0     0 -3.057430245E+01  1.960844185E+02 -2.496961468E+01  2.358651496E+02  1.250000000E+02  0.00000E+00  9.000E+00
      25     1     1     2     0     0 -2.173998777E+01 -1.496843195E+02 -2.225132664E+02  2.966735180E+02  1.250000000E+02  0.00000E+00  9.000E+00
      21     1     1     2   502   511  5.231429021E+01 -4.640009899E+01 -1.192160621E+02  1.382107941E+02  2.336015456E-06  0.00000E+00  9.000E+00
#rwgt            1           1   4.5975907157602594E-002           2      406927           0
</event>
<event>
      5   9999  3.79277E-02  1.23295E+02 -1.00000E+00  1.19871E-01
      21    -1     0     0   502   501  0.000000000E+00  0.000000000E+00  4.191752420E+02  4.191752420E+02  0.000000000E+00  0.00000E+00  9.000E+00
      21    -1     0     0   512   502  0.000000000E+00  0.000000000E+00 -7.968751481E+02  7.968751481E+02  0.000000000E+00  0.00000E+00  9.000E+00
      25     1     1     2     0     0 -2.987181672E+01  3.722246430E+02 -2.644463485E+02  4.743420512E+02  1.250000000E+02  0.00000E+00  9.000E+00
      25     1     1     2     0     0  1.530461951E+02 -3.667830882E+02  1.565496792E+02  4.450682798E+02  1.250000000E+02  0.00000E+00  9.000E+00
      21     1     1     2   512   501 -1.231743784E+02 -5.441554802E+00 -2.698032368E+02  2.966400590E+02  5.394796609E-06  0.00000E+00  9.000E+00
#rwgt            1           1  0.19110326089079879                2      406973           0
</event>
<event>
      5   9999  3.79277E-02  1.53272E+02 -1.00000E+00  1.16023E-01
      21    -1     0     0   502   501  0.000000000E+00  0.000000000E+00  9.439902638E+02  9.439902638E+02  0.000000000E+00  0.00000E+00  9.000E+00
      21    -1     0     0   501   511  0.000000000E+00  0.000000000E+00 -1.013458148E+02  1.013458148E+02  0.000000000E+00  0.00000E+00  9.000E+00
      25     1     1     2     0     0 -9.793902699E+01  1.690700941E+02  2.518291367E+02  3.423735735E+02  1.250000000E+02  0.00000E+00  9.000E+00
      25     1     1     2     0     0  1.200970393E+02 -1.740833334E+01  4.886084307E+02  5.187384191E+02  1.250000000E+02  0.00000E+00  9.000E+00
      21     1     1     2   502   511 -2.215801226E+01 -1.516617608E+02  1.022068816E+02  1.842240859E+02  3.303624740E-06  0.00000E+00  9.000E+00
#rwgt            1           1   4.1876297973114873E-002           2      407073           0
</event>
<event>
      5   9999  3.79277E-02  6.24960E+00 -1.00000E+00  2.22757E-01
      21    -1     0     0   502   501  0.000000000E+00  0.000000000E+00  4.351047548E+02  4.351047548E+02  0.000000000E+00  0.00000E+00  9.000E+00
      21    -1     0     0   512   502  0.000000000E+00  0.000000000E+00 -6.695433881E+01  6.695433881E+01  0.000000000E+00  0.00000E+00  9.000E+00
      25     1     1     2     0     0 -4.116973975E+01  3.211743015E+01  6.316162616E+01  1.494686181E+02  1.250000000E+02  0.00000E+00  9.000E+00
      25     1     1     2     0     0  4.440729768E+01 -2.677180890E+01  3.138293676E+02  3.417639680E+02  1.250000000E+02  0.00000E+00  9.000E+00
      21     1     1     2   512   501 -3.237557925E+00 -5.345621252E+00 -8.840577803E+00  1.082650746E+01  2.064765462E-07  0.00000E+00  9.000E+00
#rwgt            1           1   4.0744805155243896E-002           2      407121           0
</event>
<event>
      5   9999  3.79277E-02  1.28900E+02 -1.00000E+00  1.19064E-01
      21    -1     0     0   502   501  0.000000000E+00  0.000000000E+00  1.836357312E+02  1.836357312E+02  0.000000000E+00  0.00000E+00  9.000E+00
      21    -1     0     0   511   502  0.000000000E+00  0.000000000E+00 -5.500601341E+02  5.500601341E+02  0.000000000E+00  0.00000E+00  9.000E+00
      25     1     1     2     0     0 -9.883388940E+01 -1.065536669E+02 -1.488406993E+02  2.426939954E+02  1.250000000E+02  0.00000E+00  9.000E+00
      25     1     1     2     0     0  2.157600091E+01  2.097354951E+02 -8.354224960E+00  2.452535316E+02  1.250000000E+02  0.00000E+00  9.000E+00
      21     1     1     2   511   501  7.725788849E+01 -1.031818282E+02 -2.092294787E+02  2.457483382E+02  2.697398305E-06  0.00000E+00  9.000E+00
#rwgt            1           1   3.8814973878642932E-002           2      407429           0
</event>
<event>
      5   9999  3.79277E-02  2.64434E+01 -1.00000E+00  1.56946E-01
      21    -1     0     0   502   501  0.000000000E+00  0.000000000E+00  6.119400637E+01  6.119400637E+01  0.000000000E+00  0.00000E+00  9.000E+00
      21    -1     0     0   512   502  0.000000000E+00  0.000000000E+00 -7.173084926E+02  7.173084926E+02  0.000000000E+00  0.00000E+00  9.000E+00
      25     1     1     2     0     0 -7.651123775E+01  7.298761732E+01 -1.038495706E+02  1.938837154E+02  1.250000000E+02  0.00000E+00  9.000E+00
      25     1     1     2     0     0  8.815468595E+01 -4.924565180E+01 -4.190175031E+02  4.487728276E+02  1.250000000E+02  0.00000E+00  9.000E+00
      21     1     1     2   512   501 -1.164344820E+01 -2.374196552E+01 -1.332474124E+02  1.358459559E+02  0.000000000E+00  0.00000E+00  9.000E+00
#rwgt            1           1   3.7218161039268269E-002           2      407467           0
</event>
<event>
      5   9999  3.79277E-02  3.01321E+01 -1.00000E+00  1.52907E-01
       4    -1     0     0   502     0  0.000000000E+00  0.000000000E+00  2.614113318E+01  2.614113318E+01  0.000000000E+00  0.00000E+00  9.000E+00
      21    -1     0     0   501   502  0.000000000E+00  0.000000000E+00 -1.983361643E+03  1.983361643E+03  0.000000000E+00  0.00000E+00  9.000E+00
      25     1     1     2     0     0 -1.525789870E+02 -1.058355954E+01 -8.994323833E+02  9.208669671E+02  1.250000000E+02  0.00000E+00  9.000E+00
      25     1     1     2     0     0  1.826939953E+02  9.570031759E+00 -9.893579366E+02  1.013865281E+03  1.250000000E+02  0.00000E+00  9.000E+00
       4     1     1     2   501     0 -3.011500839E+01  1.013527780E+00 -6.843019030E+01  7.477052837E+01  1.907348633E-06  0.00000E+00  9.000E+00
#rwgt            1           1  0.13183848815132693                2      407719           0
</event>
<event>
      5   9999  3.79277E-02  3.64585E+01 -1.00000E+00  1.47382E-01
      21    -1     0     0   502   501  0.000000000E+00  0.000000000E+00  4.836310406E+01  4.836310406E+01  0.000000000E+00  0.00000E+00  9.000E+00
      21    -1     0     0   501   511  0.000000000E+00  0.000000000E+00 -1.800041665E+03  1.800041665E+03  0.000000000E+00  0.00000E+00  9.000E+00
      25     1     1     2     0     0 -4.114572578E+01  5.256799485E+01 -1.351407827E+03  1.358817309E+03  1.250000000E+02  0.00000E+00  9.000E+00
      25     1     1     2     0     0  5.121176212E+01 -1.752663373E+01 -6.252671467E+01  1.498813448E+02  1.250000000E+02  0.00000E+00  9.000E+00
      21     1     1     2   502   511 -1.006603634E+01 -3.504136112E+01 -3.377440196E+02  3.397061154E+02  3.814697266E-06  0.00000E+00  9.000E+00
#rwgt            2          11   1.1713101147376094E-003           2      408105           0
</event>
<event>
      5   9999 -3.79277E-02  2.83572E+01 -1.00000E+00  1.54758E-01
      21    -1     0     0   512   501  0.000000000E+00  0.000000000E+00  7.356531959E+01  7.356531959E+01  0.000000000E+00  0.00000E+00  9.000E+00
      21    -1     0     0   501   502  0.000000000E+00  0.000000000E+00 -1.024894524E+03  1.024894524E+03  0.000000000E+00  0.00000E+00  9.000E+00
      25     1     1     2     0     0 -6.750188453E+01 -1.630670983E+02 -2.586045994E+02  3.371182608E+02  1.250000000E+02  0.00000E+00  9.000E+00
      25     1     1     2     0     0  8.462645604E+01  1.404643935E+02 -7.018814944E+02  7.315425586E+02  1.250000000E+02  0.00000E+00  9.000E+00
      21     1     1     2   512   502 -1.712457151E+01  2.260270490E+01  9.156889332E+00  2.979902415E+01  5.331201500E-07  0.00000E+00  9.000E+00
#rwgt            1           1  -2.9843601144537109E-002           2      408140           0
</event>
<event>
      5   9999  3.79277E-02  4.56210E+01 -1.00000E+00  1.41385E-01
      21    -1     0     0   502   501  0.000000000E+00  0.000000000E+00  2.763283137E+02  2.763283137E+02  0.000000000E+00  0.00000E+00  9.000E+00
      21    -1     0     0   511   502  0.000000000E+00  0.000000000E+00 -3.090305055E+02  3.090305055E+02  0.000000000E+00  0.00000E+00  9.000E+00
      25     1     1     2     0     0 -5.667686107E+01 -2.707074671E+01  2.043148740E+02  2.476179711E+02  1.250000000E+02  0.00000E+00  9.000E+00
      25     1     1     2     0     0  9.615563955E+01  4.993347311E+01 -9.993041171E+01  1.932623759E+02  1.250000000E+02  0.00000E+00  9.000E+00
      21     1     1     2   511   501 -3.947877849E+01 -2.286272640E+01 -1.370866541E+02  1.444784722E+02  1.907348633E-06  0.00000E+00  9.000E+00
#rwgt            1           1   4.8765428138563070E-002           2      408302           0
</event>
<event>
      5   9999  3.79277E-02  1.62319E+01 -1.00000E+00  1.74214E-01
      21    -1     0     0   502   501  0.000000000E+00  0.000000000E+00  4.214173395E+02  4.214173395E+02  0.000000000E+00  0.00000E+00  9.000E+00
      21    -1     0     0   501   512  0.000000000E+00  0.000000000E+00 -1.829835889E+02  1.829835889E+02  0.000000000E+00  0.00000E+00  9.000E+00
      25     1     1     2     0     0 -9.880753100E+01  7.515527479E+01 -4.637759984E+01  1.821733385E+02  1.250000000E+02  0.00000E+00  9.000E+00
      25     1     1     2     0     0  9.728093331E+01 -9.131521016E+01  3.283176755E+02  3.757918888E+02  1.250000000E+02  0.00000E+00  9.000E+00
      21     1     1     2   502   512  1.526597698E+00  1.615993538E+01 -4.350632507E+01  4.643570106E+01  1.261592536E-06  0.00000E+00  9.000E+00
#rwgt            1           1   4.1080071690149267E-002           2      408395           0
</event>
<event>
      5   9999  3.79277E-02  6.22564E+01 -1.00000E+00  1.33852E-01
      21    -1     0     0   511   501  0.000000000E+00  0.000000000E+00  6.355359285E+01  6.355359285E+01  0.000000000E+00  0.00000E+00  9.000E+00
      21    -1     0     0   501   502  0.000000000E+00  0.000000000E+00 -1.566873466E+03  1.566873466E+03  0.000000000E+00  0.00000E+00  9.000E+00
      25     1     1     2     0     0  7.523666733E+01 -1.153317095E+02 -1.253534482E+02  2.242776099E+02  1.250000000E+02  0.00000E+00  9.000E+00
      25     1     1     2     0     0 -5.665375161E+01  5.591345037E+01 -1.289417652E+03  1.297905560E+03  1.250000000E+02  0.00000E+00  9.000E+00
      21     1     1     2   511   502 -1.858291573E+01  5.941825914E+01 -8.854877259E+01  1.082438885E+02  1.348699152E-06  0.00000E+00  9.000E+00
#rwgt            1           1   3.5137149280695557E-002           2      408546           0
</event>
<event>
      5   9999  3.79277E-02  3.34396E+01 -1.00000E+00  1.49836E-01
      21    -1     0     0   502   501  0.000000000E+00  0.000000000E+00  2.443660476E+02  2.443660476E+02  0.000000000E+00  0.00000E+00  9.000E+00
      21    -1     0     0   501   512  0.000000000E+00  0.000000000E+00 -3.430109865E+02  3.430109865E+02  0.000000000E+00  0.00000E+00  9.000E+00
      25     1     1     2     0     0  1.930369437E+02  4.118483615E+01  4.511700159E+00  2.336767164E+02  1.250000000E+02  0.00000E+00  9.000E+00
      25     1     1     2     0     0 -2.251589574E+02 -3.189060907E+01 -1.558844908E+01  2.599645491E+02  1.250000000E+02  0.00000E+00  9.000E+00
      21     1     1     2   502   512  3.212201372E+01 -9.294227081E+00 -8.756818995E+01  9.373576860E+01  1.348699152E-06  0.00000E+00  9.000E+00
#rwgt            1           1  0.11662076546613624                2      408684           0
</event>
<event>
      5   9999  3.79277E-02  1.05711E+01 -1.00000E+00  1.93009E-01
      21    -1     0     0   511   501  0.000000000E+00  0.000000000E+00  7.565528670E+01  7.565528670E+01  0.000000000E+00  0.00000E+00  9.000E+00
      21    -1     0     0   501   502  0.000000000E+00  0.000000000E+00 -6.476184364E+02  6.476184364E+02  0.000000000E+00  0.00000E+00  9.000E+00
      25     1     1     2     0     0  3.818147398E+01 -4.039783923E+01 -1.498556637E+02  2.029076892E+02  1.250000000E+02  0.00000E+00  9.000E+00
      25     1     1     2     0     0 -3.833077712E+01  5.096792630E+01 -4.600512286E+02  4.809772458E+02  1.250000000E+02  0.00000E+00  9.000E+00
      21     1     1     2   511   502  1.493031451E-01 -1.057008707E+01  3.794374262E+01  3.938878820E+01  6.743495762E-07  0.00000E+00  9.000E+00
#rwgt            1           1   3.5885420482963656E-002           2      408826           0
</event>
<event>
      5   9999 -3.79277E-02  7.96158E+01 -1.00000E+00  1.28451E-01
      21    -1     0     0   502   501  0.000000000E+00  0.000000000E+00  1.242145797E+02  1.242145797E+02  0.000000000E+00  0.00000E+00  9.000E+00
       2    -1     0     0   501     0  0.000000000E+00  0.000000000E+00 -1.389582906E+03  1.389582906E+03  0.000000000E+00  0.00000E+00  9.000E+00
      25     1     1     2     0     0 -1.505962002E+02  1.889156625E+02 -2.278809300E+02  3.548563953E+02  1.250000000E+02  0.00000E+00  9.000E+00
      25     1     1     2     0     0  8.597115997E+01 -1.424153822E+02 -1.244896454E+02  2.424785624E+02  1.250000000E+02  0.00000E+00  9.000E+00
       2     1     1     2   502     0  6.462504023E+01 -4.650028031E+01 -9.129977512E+02  9.164625282E+02  1.078959322E-05  0.00000E+00  9.000E+00
#rwgt            1           1  -4.8313632766777463E-002           2      409023           0
</event>
<event>
      5   9999 -3.79277E-02  3.34493E+01 -1.00000E+00  1.49828E-01
      21    -1     0     0   511   501  0.000000000E+00  0.000000000E+00  1.148872828E+03  1.148872828E+03  0.000000000E+00  0.00000E+00  9.000E+00
      21    -1     0     0   501   502  0.000000000E+00  0.000000000E+00 -7.090177005E+01  7.090177005E+01  0.000000000E+00  0.00000E+00  9.000E+00
      25     1     1     2     0     0  4.450595682E+01 -1.576900661E+02  1.296623331E+02  2.434835883E+02  1.250000000E+02  0.00000E+00  9.000E+00
      25     1     1     2     0     0 -1.313187881E+01  1.460917662E+02  8.708382258E+02  8.919077676E+02  1.250000000E+02  0.00000E+00  9.000E+00
      21     1     1     2   511   502 -3.137407801E+01  1.159829987E+01  7.747049869E+01  8.438324180E+01  1.651812370E-06  0.00000E+00  9.000E+00
#rwgt            1           1  -7.5249787641648511E-002           2      409112           0
</event>
<event>
      5   9999  3.79277E-02  5.54147E+01 -1.00000E+00  1.36575E-01
      21    -1     0     0   502   501  0.000000000E+00  0.000000000E+00  3.178584513E+02  3.178584513E+02  0.000000000E+00  0.00000E+00  9.000E+00
      21    -1     0     0   501   512  0.000000000E+00  0.000000000E+00 -2.432851295E+02  2.432851295E+02  0.000000000E+00  0.00000E+00  9.000E+00
      25     1     1     2     0     0  1.789545871E+02  2.630156923E+01  1.525966977E+02  2.676327127E+02  1.250000000E+02  0.00000E+00  9.000E+00
      25     1     1     2     0     0 -1.527895886E+02  2.254696506E+01 -1.085077396E+00  1.986937377E+02  1.250000000E+02  0.00000E+00  9.000E+00
      21     1     1     2   502   512 -2.616499848E+01 -4.884853429E+01 -7.693829848E+01  9.481713042E+01  0.000000000E+00  0.00000E+00  9.000E+00
#rwgt            1           1   2.2163263178865942E-002           2      409230           0
</event>
<event>
      5   9999  3.79277E-02  1.90269E+02 -1.00000E+00  1.12442E-01
      21    -1     0     0   511   501  0.000000000E+00  0.000000000E+00  9.376737134E+02  9.376737134E+02  0.000000000E+00  0.00000E+00  9.000E+00
      21    -1     0     0   501   502  0.000000000E+00  0.000000000E+00 -3.976139557E+02  3.976139557E+02  0.000000000E+00  0.00000E+00  9.000E+00
      25     1     1     2     0     0 -1.541085655E+02  3.064058913E+01 -2.923060067E+02  3.546210614E+02  1.250000000E+02  0.00000E+00  9.000E+00
      25     1     1     2     0     0 -3.615892241E+01 -2.980218398E+01  7.025794860E+00  1.336787180E+02  1.250000000E+02  0.00000E+00  9.000E+00
      21     1     1     2   511   502  1.902674879E+02 -8.384051502E-01  8.253399696E+02  8.469878897E+02  0.000000000E+00  0.00000E+00  9.000E+00
#rwgt            1           1   4.6704419390648698E-002           2      409367           0
</event>
<event>
      5   9999  3.79277E-02  1.43016E+01 -1.00000E+00  1.79357E-01
      21    -1     0     0   502   501  0.000000000E+00  0.000000000E+00  1.121280410E+03  1.121280410E+03  0.000000000E+00  0.00000E+00  9.000E+00
      21    -1     0     0   512   502  0.000000000E+00  0.000000000E+00 -1.827982888E+02  1.827982888E+02  0.000000000E+00  0.00000E+00  9.000E+00
      25     1     1     2     0     0 -2.131100317E+02  3.062786096E+01  7.836902672E+01  2.609993407E+02  1.250000000E+02  0.00000E+00  9.000E+00
      25     1     1     2     0     0  1.988674631E+02 -3.192592500E+01  9.361565869E+02  9.657026911E+02  1.250000000E+02  0.00000E+00  9.000E+00
      21     1     1     2   512   501  1.424256864E+01  1.298064037E+00 -7.604349284E+01  7.737666660E+01  9.536743164E-07  0.00000E+00  9.000E+00
#rwgt            1           1   3.3760340867624583E-002           2      409409           0
</event>
<event>
      5   9999 -3.79277E-02  2.52464E+01 -1.00000E+00  1.58433E-01
      21    -1     0     0   502   501  0.000000000E+00  0.000000000E+00  3.560774337E+02  3.560774337E+02  0.000000000E+00  0.00000E+00  9.000E+00
      21    -1     0     0   501   511  0.000000000E+00  0.000000000E+00 -1.100441679E+03  1.100441679E+03  0.000000000E+00  0.00000E+00  9.000E+00
      25     1     1     2     0     0 -3.332684500E+02 -7.561710414E+01  6.668614214E+00  3.639440570E+02  1.250000000E+02  0.00000E+00  9.000E+00
      25     1     1     2     0     0  3.316197035E+02  5.042461980E+01 -1.727400499E+01  3.583820047E+02  1.250000000E+02  0.00000E+00  9.000E+00
      21     1     1     2   502   511  1.648746467E+00  2.519248434E+01 -7.337588540E+02  7.341930505E+02  1.868812365E-05  0.00000E+00  9.000E+00
#rwgt            1           1  -9.8906577278312882E-002           2      409692           0
</event>
<event>
      5   9999  3.79277E-02  4.63455E+01 -1.00000E+00  1.40983E-01
      21    -1     0     0   502   501  0.000000000E+00  0.000000000E+00  3.053544510E+02  3.053544510E+02  0.000000000E+00  0.00000E+00  9.000E+00
      21    -1     0     0   512   502  0.000000000E+00  0.000000000E+00 -4.208398154E+02  4.208398154E+02  0.000000000E+00  0.00000E+00  9.000E+00
      25     1     1     2     0     0  9.013425455E+01  4.467120843E+01 -6.106988254E+01  1.716806083E+02  1.250000000E+02  0.00000E+00  9.000E+00
      25     1     1     2     0     0 -6.597778150E+01 -8.422333671E+01  2.208341969E+02  2.753895071E+02  1.250000000E+02  0.00000E+00  9.000E+00
      21     1     1     2   512   501 -2.415647305E+01  3.955212829E+01 -2.752496788E+02  2.791241511E+02  0.000000000E+00  0.00000E+00  9.000E+00
#rwgt            1           1   4.7899556040042833E-002           2      409814           0
</event>
<event>
      5   9999  3.79277E-02  4.99331E+01 -1.00000E+00  1.39109E-01
      21    -1     0     0   502   511  0.000000000E+00  0.000000000E+00  5.923017626E+01  5.923017626E+01  0.000000000E+00  0.00000E+00  9.000E+00
      21    -1     0     0   501   502  0.000000000E+00  0.000000000E+00 -9.657410135E+02  9.657410135E+02  0.000000000E+00  0.00000E+00  9.000E+00
      25     1     1     2     0     0 -1.828794184E+02  1.431742629E+01 -3.683582340E+02  4.300728531E+02  1.250000000E+02  0.00000E+00  9.000E+00
      25     1     1     2     0     0  1.342200456E+02 -3.111170940E+00 -4.983612435E+02  5.310495542E+02  1.250000000E+02  0.00000E+00  9.000E+00
      21     1     1     2   501   511  4.865937274E+01 -1.120625535E+01 -3.979135970E+01  6.384878245E+01  4.768371582E-07  0.00000E+00  9.000E+00
#rwgt            1           1   4.0001444769739429E-002           2      409998           0
</event>
<event>
      5   9999  3.79277E-02  4.29705E+01 -1.00000E+00  1.42937E-01
      21    -1     0     0   512   501  0.000000000E+00  0.000000000E+00  2.148941850E+02  2.148941850E+02  0.000000000E+00  0.00000E+00  9.000E+00
      21    -1     0     0   501   502  0.000000000E+00  0.000000000E+00 -9.394157998E+02  9.394157998E+02  0.000000000E+00  0.00000E+00  9.000E+00
      25     1     1     2     0     0  1.606873995E+02 -1.543902013E+02 -5.727816712E+02  6.271846757E+02  1.250000000E+02  0.00000E+00  9.000E+00
      25     1     1     2     0     0 -1.484098285E+02  1.955693725E+02 -2.794283815E+02  3.924004039E+02  1.250000000E+02  0.00000E+00  9.000E+00
      21     1     1     2   512   502 -1.227757105E+01 -4.117917116E+01  1.276884379E+02  1.347249052E+02  1.907348633E-06  0.00000E+00  9.000E+00
#rwgt            1           1   1.8833681931360591E-002           2      410066           0
</event>
<event>
      5   9999  3.79277E-02  1.63914E+01 -1.00000E+00  1.73829E-01
      21    -1     0     0   502   501  0.000000000E+00  0.000000000E+00  1.604264264E+02  1.604264264E+02  0.000000000E+00  0.00000E+00  9.000E+00
      21    -1     0     0   511   502  0.000000000E+00  0.000000000E+00 -3.164899472E+02  3.164899472E+02  0.000000000E+00  0.00000E+00  9.000E+00
      25     1     1     2     0     0  7.765417947E+01  6.261778689E+01  8.230244923E+01  1.798606460E+02  1.250000000E+02  0.00000E+00  9.000E+00
      25     1     1     2     0     0 -8.799703976E+01 -4.990146843E+01 -2.186576053E+02  2.714217823E+02  1.250000000E+02  0.00000E+00  9.000E+00
      21     1     1     2   511   501  1.034286029E+01 -1.271631846E+01 -1.970836472E+01  2.563394535E+01  0.000000000E+00  0.00000E+00  9.000E+00
#rwgt            1           1   4.0835153012571637E-002           2      410196           0
</event>
<event>
      5   9999  3.79277E-02  1.48631E+01 -1.00000E+00  1.77760E-01
      21    -1     0     0   502   512  0.000000000E+00  0.000000000E+00  5.189605039E+02  5.189605039E+02  0.000000000E+00  0.00000E+00  9.000E+00
      21    -1     0     0   501   502  0.000000000E+00  0.000000000E+00 -1.209339526E+02  1.209339526E+02  0.000000000E+00  0.00000E+00  9.000E+00
      25     1     1     2     0     0  7.162015937E+01  1.396921366E+02  5.499655689E+01  2.080696074E+02  1.250000000E+02  0.00000E+00  9.000E+00
      25     1     1     2     0     0 -6.783032829E+01 -1.540639308E+02  2.058079302E+02  2.938001911E+02  1.250000000E+02  0.00000E+00  9.000E+00
      21     1     1     2   501   512 -3.789831074E+00  1.437179415E+01  1.372220643E+02  1.380246580E+02  0.000000000E+00  0.00000E+00  9.000E+00
#rwgt            1           1   1.9601322109209052E-002           2      410581           0
</event>
<event>
      5   9999  3.79277E-02  5.14136E+01 -1.00000E+00  1.38388E-01
      21    -1     0     0   502   501  0.000000000E+00  0.000000000E+00  1.379077728E+03  1.379077728E+03  0.000000000E+00  0.00000E+00  9.000E+00
      21    -1     0     0   501   511  0.000000000E+00  0.000000000E+00 -5.200898562E+01  5.200898562E+01  0.000000000E+00  0.00000E+00  9.000E+00
      25     1     1     2     0     0 -1.294336571E+02  7.648057360E+01  4.884358912E+02  5.261149775E+02  1.250000000E+02  0.00000E+00  9.000E+00
      25     1     1     2     0     0  1.652602800E+02 -3.960491801E+01  8.253298677E+02  8.518649542E+02  1.250000000E+02  0.00000E+00  9.000E+00
      21     1     1     2   502   511 -3.582662296E+01 -3.687565560E+01  1.330298311E+01  5.310678157E+01  2.384185791E-07  0.00000E+00  9.000E+00
#rwgt            1           1  0.10006979078326141                2      410778           0
</event>
<event>
      5   9999  3.79277E-02  2.21780E+01 -1.00000E+00  1.62748E-01
      21    -1     0     0   502   501  0.000000000E+00  0.000000000E+00  1.926915846E+03  1.926915846E+03  0.000000000E+00  0.00000E+00  9.000E+00
      21    -1     0     0   501   512  0.000000000E+00  0.000000000E+00 -2.365750872E+01  2.365750872E+01  0.000000000E+00  0.00000E+00  9.000E+00
      25     1     1     2     0     0 -1.111459229E+02 -1.028595821E+02  1.000996205E+03  1.020074464E+03  1.250000000E+02  0.00000E+00  9.000E+00
      25     1     1     2     0     0  1.039052013E+02  1.238222839E+02  8.365922443E+02  8.611851323E+02  1.250000000E+02  0.00000E+00  9.000E+00
      21     1     1     2   502   512  7.240721634E+00 -2.096270183E+01  6.566988879E+01  6.931375918E+01  0.000000000E+00  0.00000E+00  9.000E+00
#rwgt            1           1  0.13081924935186615                2      410982           0
</event>
<event>
      5   9999  3.79277E-02  1.60398E+02 -1.00000E+00  1.15252E-01
      21    -1     0     0   502   501  0.000000000E+00  0.000000000E+00  2.147185375E+02  2.147185375E+02  0.000000000E+00  0.00000E+00  9.000E+00
       2    -1     0     0   501     0  0.000000000E+00  0.000000000E+00 -1.940716681E+03  1.940716681E+03  0.000000000E+00  0.00000E+00  9.000E+00
      25     1     1     2     0     0 -4.071748066E+02  1.136602543E+02 -3.774255004E+02  5.803317887E+02  1.250000000E+02  0.00000E+00  9.000E+00
      25     1     1     2     0     0  3.920520638E+02 -2.733433467E+02 -4.695267993E+02  6.815437045E+02  1.250000000E+02  0.00000E+00  9.000E+00
       2     1     1     2   502     0  1.512274276E+01  1.596830924E+02 -8.790458435E+02  8.935597250E+02  0.000000000E+00  0.00000E+00  9.000E+00
#rwgt            1           1  0.11905713012141626                2      411205           0
</event>
<event>
      5   9999  3.79277E-02  4.52194E+01 -1.00000E+00  1.41612E-01
      -4    -1     0     0     0   501  0.000000000E+00  0.000000000E+00  5.628896388E+01  5.628896388E+01  0.000000000E+00  0.00000E+00  9.000E+00
      21    -1     0     0   501   502  0.000000000E+00  0.000000000E+00 -1.067253391E+03  1.067253391E+03  0.000000000E+00  0.00000E+00  9.000E+00
      25     1     1     2     0     0  1.057993745E+02  1.066227957E+02 -2.860709620E+02  3.464441131E+02  1.250000000E+02  0.00000E+00  9.000E+00
      25     1     1     2     0     0 -1.507636287E+02 -1.018258932E+02 -6.729643705E+02  7.082402334E+02  1.250000000E+02  0.00000E+00  9.000E+00
      -4     1     1     2     0   502  4.496425417E+01 -4.796902566E+00 -5.192909412E+01  6.885800784E+01  1.168007728E-06  0.00000E+00  9.000E+00
#rwgt            1           1   3.5667043771037167E-002           2      411311           0
</event>
<event>
      5   9999  3.79277E-02  3.66122E+01 -1.00000E+00  1.47265E-01
      21    -1     0     0   511   501  0.000000000E+00  0.000000000E+00  3.701524777E+02  3.701524777E+02  0.000000000E+00  0.00000E+00  9.000E+00
      21    -1     0     0   501   502  0.000000000E+00  0.000000000E+00 -8.516134305E+01  8.516134305E+01  0.000000000E+00  0.00000E+00  9.000E+00
      25     1     1     2     0     0 -2.458020730E+01  4.473263918E+01  1.789342258E+02  2.241598822E+02  1.250000000E+02  0.00000E+00  9.000E+00
      25     1     1     2     0     0 -2.938747168E+00 -6.888131800E+01  2.875454879E+01  1.456196974E+02  1.250000000E+02  0.00000E+00  9.000E+00
      21     1     1     2   511   502  2.751895446E+01  2.414867882E+01  7.730236006E+01  8.553424118E+01  1.348699152E-06  0.00000E+00  9.000E+00
#rwgt            1           1  0.12591416260921842                2      411410           0
</event>
<event>
      5   9999 -3.79277E-02  5.28665E+01 -1.00000E+00  1.37708E-01
      21    -1     0     0   502   501  0.000000000E+00  0.000000000E+00  3.147126658E+03  3.147126658E+03  0.000000000E+00  0.00000E+00  9.000E+00
      21    -1     0     0   501   512  0.000000000E+00  0.000000000E+00 -1.352921960E+01  1.352921960E+01  0.000000000E+00  0.00000E+00  9.000E+00
      25     1     1     2     0     0 -4.006060201E+01  8.774419323E+01  1.425990400E+03  1.434704679E+03  1.250000000E+02  0.00000E+00  9.000E+00
      25     1     1     2     0     0  1.482017650E+01 -1.341962419E+02  1.518066532E+03  1.529176009E+03  1.250000000E+02  0.00000E+00  9.000E+00
      21     1     1     2   502   512  2.524042551E+01  4.645204863E+01  1.895405067E+02  1.967751904E+02  0.000000000E+00  0.00000E+00  9.000E+00
#rwgt            1           1  -2.8179597857195076E-002           2      411567           0
</event>
<event>
      5   9999  3.79277E-02  2.30595E+01 -1.00000E+00  1.61425E-01
      21    -1     0     0   502   501  0.000000000E+00  0.000000000E+00  5.487863680E+02  5.487863680E+02  0.000000000E+00  0.00000E+00  9.000E+00
       4    -1     0     0   501     0  0.000000000E+00  0.000000000E+00 -5.384750488E+02  5.384750488E+02  0.000000000E+00  0.00000E+00  9.000E+00
      25     1     1     2     0     0  1.230736965E+02 -6.228540772E+01  4.406578380E+02  4.783627671E+02  1.250000000E+02  0.00000E+00  9.000E+00
      25     1     1     2     0     0 -1.031603493E+02  7.391301340E+01 -1.953241965E-01  1.781298105E+02  1.250000000E+02  0.00000E+00  9.000E+00
       4     1     1     2   502     0 -1.991334717E+01 -1.162760569E+01 -4.301511946E+02  4.307688392E+02  0.000000000E+00  0.00000E+00  9.000E+00
#rwgt            1           1   2.1525640091524856E-002           2      411723           0
</event>
<event>
      5   9999  3.79277E-02  6.81373E+01 -1.00000E+00  1.31817E-01
      21    -1     0     0   502   501  0.000000000E+00  0.000000000E+00  1.959532594E+02  1.959532594E+02  0.000000000E+00  0.00000E+00  9.000E+00
      21    -1     0     0   501   511  0.000000000E+00  0.000000000E+00 -3.997659093E+02  3.997659093E+02  0.000000000E+00  0.00000E+00  9.000E+00
      25     1     1     2     0     0  6.874126704E+01 -9.991870252E+01 -2.060559221E+01  1.753815821E+02  1.250000000E+02  0.00000E+00  9.000E+00
      25     1     1     2     0     0 -7.984246858E+01  1.671456369E+02  1.491037405E+00  2.234719376E+02  1.250000000E+02  0.00000E+00  9.000E+00
      21     1     1     2   502   511  1.110120154E+01 -6.722693436E+01 -1.846980951E+02  1.968656489E+02  2.697398305E-06  0.00000E+00  9.000E+00
#rwgt            1           1   2.9590204711459626E-002           2      412016           0
</event>
<event>
      5   9999  3.79277E-02  6.46665E+01 -1.00000E+00  1.32988E-01
      21    -1     0     0   502   501  0.000000000E+00  0.000000000E+00  1.387648736E+03  1.387648736E+03  0.000000000E+00  0.00000E+00  9.000E+00
      21    -1     0     0   501   512  0.000000000E+00  0.000000000E+00 -2.605317859E+02  2.605317859E+02  0.000000000E+00  0.00000E+00  9.000E+00
      25     1     1     2     0     0 -6.910281403E+01  1.327613901E+01  1.428258898E+02  2.024245281E+02  1.250000000E+02  0.00000E+00  9.000E+00
      25     1     1     2     0     0  6.625792383E+00  3.408531008E+00  1.207189435E+03  1.213666697E+03  1.250000000E+02  0.00000E+00  9.000E+00
      21     1     1     2   502   512  6.247702164E+01 -1.668467002E+01 -2.228983746E+02  2.320892971E+02  7.629394531E-06  0.00000E+00  9.000E+00
#rwgt            1           1   3.4475110184279185E-002           2      412112           0
</event>
<event>
      5   9999  3.79277E-02  8.35779E+00 -1.00000E+00  2.05217E-01
      21    -1     0     0   502   501  0.000000000E+00  0.000000000E+00  1.122501591E+03  1.122501591E+03  0.000000000E+00  0.00000E+00  9.000E+00
      21    -1     0     0   511   502  0.000000000E+00  0.000000000E+00 -4.364451945E+01  4.364451945E+01  0.000000000E+00  0.00000E+00  9.000E+00
      25     1     1     2     0     0 -9.577573336E+01 -5.298330999E+01  8.505873771E+02  8.666626265E+02  1.250000000E+02  0.00000E+00  9.000E+00
      25     1     1     2     0     0  9.081160179E+01  5.970714754E+01  2.358469882E+02  2.882021727E+02  1.250000000E+02  0.00000E+00  9.000E+00
      21     1     1     2   511   501  4.964131568E+00 -6.723837553E+00 -7.577293959E+00  1.128131098E+01  3.769728732E-07  0.00000E+00  9.000E+00
#rwgt            1           1   4.2713412228161329E-002           2      412218           0
</event>
<event>
      5   9999  3.79277E-02  2.42887E+01 -1.00000E+00  1.59696E-01
      21    -1     0     0   512   501  0.000000000E+00  0.000000000E+00  3.430199657E+02  3.430199657E+02  0.000000000E+00  0.00000E+00  9.000E+00
      21    -1     0     0   501   502  0.000000000E+00  0.000000000E+00 -1.667438099E+02  1.667438099E+02  0.000000000E+00  0.00000E+00  9.000E+00
      25     1     1     2     0     0  1.348220005E+02 -5.232725736E+00 -8.904448578E+00  1.841429945E+02  1.250000000E+02  0.00000E+00  9.000E+00
      25     1     1     2     0     0 -1.402645994E+02  2.890380092E+01  6.181841480E+01  1.998902298E+02  1.250000000E+02  0.00000E+00  9.000E+00
      21     1     1     2   512   502  5.442598961E+00 -2.367107518E+01  1.233621896E+02  1.257305513E+02  1.348699152E-06  0.00000E+00  9.000E+00
#rwgt            1           1   3.9350308973639024E-002           2      412495           0
</event>
<event>
      5   9999  3.79277E-02  2.15536E+01 -1.00000E+00  1.63732E-01
      21    -1     0     0   502   511  0.000000000E+00  0.000000000E+00  9.660038768E+02  9.660038768E+02  0.000000000E+00  0.00000E+00  9.000E+00
      21    -1     0     0   501   502  0.000000000E+00  0.000000000E+00 -1.023800840E+02  1.023800840E+02  0.000000000E+00  0.00000E+00  9.000E+00
      25     1     1     2     0     0  2.346178309E+01 -2.314587183E+02  4.008940944E+02  4.800673582E+02  1.250000000E+02  0.00000E+00  9.000E+00
      25     1     1     2     0     0 -4.435721343E+01  2.367444091E+02  2.332740992E+02  3.578509228E+02  1.250000000E+02  0.00000E+00  9.000E+00
      21     1     1     2   501   511  2.089543033E+01 -5.285690803E+00  2.294555992E+02  2.304656797E+02  2.697398305E-06  0.00000E+00  9.000E+00
#rwgt            1           1  0.19451853319694018                2      412686           0
</event>
<event>
      5   9999  3.79277E-02  4.66566E+01 -1.00000E+00  1.40812E-01
      21    -1     0     0   502   512  0.000000000E+00  0.000000000E+00  2.854871188E+02  2.854871188E+02  0.000000000E+00  0.00000E+00  9.000E+00
      21    -1     0     0   501   502  0.000000000E+00  0.000000000E+00 -1.089411815E+02  1.089411815E+02  0.000000000E+00  0.00000E+00  9.000E+00
      25     1     1     2     0     0 -6.907638914E+01  4.983460417E+01  3.082527427E+01  1.543704403E+02  1.250000000E+02  0.00000E+00  9.000E+00
      25     1     1     2     0     0  4.296038817E+01 -1.117206566E+01  6.714369398E+01  1.486730831E+02  1.250000000E+02  0.00000E+00  9.000E+00
      21     1     1     2   501   512  2.611600096E+01 -3.866253851E+01  7.857696896E+01  9.138477686E+01  1.348699152E-06  0.00000E+00  9.000E+00
#rwgt            1           1   4.0542448928947622E-002           2      412919           0
</event>
<event>
      5   9999 -4.64418E-02  6.46869E+01 -1.00000E+00  1.32981E-01
      21    -1     0     0   511   501  0.000000000E+00  0.000000000E+00  1.070819094E+02  1.070819094E+02  0.000000000E+00  0.00000E+00  9.000E+00
      21    -1     0     0   501   502  0.000000000E+00  0.000000000E+00 -5.885316515E+02  5.885316515E+02  0.000000000E+00  0.00000E+00  9.000E+00
      25     1     1     2     0     0  1.573009106E+02  6.785248453E+01 -1.592371541E+02  2.651961677E+02  1.250000000E+02  0.00000E+00  9.000E+00
      25     1     1     2     0     0 -1.539083392E+02 -3.254607867E+00 -3.044498163E+02  3.633360153E+02  1.250000000E+02  0.00000E+00  9.000E+00
      21     1     1     2   511   502 -3.392571373E+00 -6.459787666E+01 -1.776277163E+01  6.708137793E+01  1.238859277E-06  0.00000E+00  9.000E+00
#rwgt            1           1 -0.27464405882439513                2      412988           0
</event>
<event>
      5   9999 -3.79277E-02  1.30136E+02 -1.00000E+00  1.18892E-01
      21    -1     0     0   512   501  0.000000000E+00  0.000000000E+00  7.214726019E+02  7.214726019E+02  0.000000000E+00  0.00000E+00  9.000E+00
      21    -1     0     0   501   502  0.000000000E+00  0.000000000E+00 -3.363460416E+02  3.363460416E+02  0.000000000E+00  0.00000E+00  9.000E+00
      25     1     1     2     0     0 -2.900639270E+02 -3.005084598E+02 -3.322172915E+01  4.372311739E+02  1.250000000E+02  0.00000E+00  9.000E+00
      25     1     1     2     0     0  1.695378465E+02  2.514272754E+02  2.902611136E+02  4.379900345E+02  1.250000000E+02  0.00000E+00  9.000E+00
      21     1     1     2   512   502  1.205260805E+02  4.908118440E+01  1.280871758E+02  1.825974352E+02  1.907348633E-06  0.00000E+00  9.000E+00
#rwgt            1           1  -1.2437328590970667E-002           2      413077           0
</event>
<event>
      5   9999  3.79277E-02  1.17790E+02 -1.00000E+00  1.20712E-01
      21    -1     0     0   502   501  0.000000000E+00  0.000000000E+00  2.382523916E+02  2.382523916E+02  0.000000000E+00  0.00000E+00  9.000E+00
      21    -1     0     0   511   502  0.000000000E+00  0.000000000E+00 -4.645271584E+02  4.645271584E+02  0.000000000E+00  0.00000E+00  9.000E+00
      25     1     1     2     0     0  5.614241033E+01 -9.666481324E+01 -7.602887149E+01  1.841234522E+02  1.250000000E+02  0.00000E+00  9.000E+00
      25     1     1     2     0     0 -1.171473826E+02  1.974258893E+02  6.849528778E+01  2.702167565E+02  1.250000000E+02  0.00000E+00  9.000E+00
      21     1     1     2   511   501  6.100497230E+01 -1.007610761E+02 -2.187411832E+02  2.484393413E+02  4.672030912E-06  0.00000E+00  9.000E+00
#rwgt            2          11   1.4830768285206486E-003           2      413231           0
</event>
<event>
      5   9999  3.79277E-02  6.43909E+01 -1.00000E+00  1.33084E-01
      21    -1     0     0   502   501  0.000000000E+00  0.000000000E+00  3.366549822E+02  3.366549822E+02  0.000000000E+00  0.00000E+00  9.000E+00
      21    -1     0     0   512   502  0.000000000E+00  0.000000000E+00 -3.137567674E+02  3.137567674E+02  0.000000000E+00  0.00000E+00  9.000E+00
      25     1     1     2     0     0 -7.287069785E+01 -1.625321837E+02  9.391328934E+01  2.370053908E+02  1.250000000E+02  0.00000E+00  9.000E+00
      25     1     1     2     0     0  8.170347541E+01  9.874993334E+01  1.175349116E+02  2.141645692E+02  1.250000000E+02  0.00000E+00  9.000E+00
      21     1     1     2   512   501 -8.832777557E+00  6.378225035E+01 -1.885499863E+02  1.992417897E+02  2.697398305E-06  0.00000E+00  9.000E+00
#rwgt            1           1   3.9422604132141270E-002           2      413251           0
</event>
<event>
      5   9999  3.79277E-02  1.21087E+02 -1.00000E+00  1.20202E-01
      21    -1     0     0   502   501  0.000000000E+00  0.000000000E+00  5.260623267E+02  5.260623267E+02  0.000000000E+00  0.00000E+00  9.000E+00
       1    -1     0     0   501     0  0.000000000E+00  0.000000000E+00 -2.925439941E+02  2.925439941E+02  0.000000000E+00  0.00000E+00  9.000E+00
      25     1     1     2     0     0 -1.801273318E+02 -7.414954194E+01  9.340462026E+01  2.495865247E+02  1.250000000E+02  0.00000E+00  9.000E+00
      25     1     1     2     0     0  2.835473534E+02  1.371277615E+02  2.373542496E+02  4.137211191E+02  1.250000000E+02  0.00000E+00  9.000E+00
       1     1     1     2   502     0 -1.034200216E+02 -6.297821954E+01 -9.724053716E+01  1.552986770E+02  0.000000000E+00  0.00000E+00  9.000E+00
#rwgt            1           1   4.3823113980066219E-002           2      413321           0
</event>
<event>
      5   9999  3.79277E-02  9.86494E+01 -1.00000E+00  1.24094E-01
      21    -1     0     0   502   511  0.000000000E+00  0.000000000E+00  3.108189529E+02  3.108189529E+02  0.000000000E+00  0.00000E+00  9.000E+00
      21    -1     0     0   501   502  0.000000000E+00  0.000000000E+00 -4.595316705E+02  4.595316705E+02  0.000000000E+00  0.00000E+00  9.000E+00
      25     1     1     2     0     0  8.602004581E+01 -1.229542120E+02  2.099443724E+01  1.964254386E+02  1.250000000E+02  0.00000E+00  9.000E+00
      25     1     1     2     0     0 -1.334466353E+02  2.094551834E+02 -3.009599149E+02  4.097332653E+02  1.250000000E+02  0.00000E+00  9.000E+00
      21     1     1     2   501   511  4.742658950E+01 -8.650097139E+01  1.312527600E+02  1.641919196E+02  1.907348633E-06  0.00000E+00  9.000E+00
#rwgt            1           1   3.2784040202798168E-003           2      413385           0
</event>
<event>
      5   9999  3.79277E-02  2.62360E+01 -1.00000E+00  1.57197E-01
      21    -1     0     0   502   501  0.000000000E+00  0.000000000E+00  2.020808454E+03  2.020808454E+03  0.000000000E+00  0.00000E+00  9.000E+00
      21    -1     0     0   512   502  0.000000000E+00  0.000000000E+00 -4.574108736E+01  4.574108736E+01  0.000000000E+00  0.00000E+00  9.000E+00
      25     1     1     2     0     0 -7.583679490E-01 -4.329931242E+01  1.833775121E+03  1.838540617E+03  1.250000000E+02  0.00000E+00  9.000E+00
      25     1     1     2     0     0 -2.305558683E+01  5.430956063E+01  1.463315005E+02  2.012933096E+02  1.250000000E+02  0.00000E+00  9.000E+00
      21     1     1     2   512   501  2.381395478E+01 -1.101024821E+01 -5.039254524E+00  2.671561517E+01  8.616943535E-07  0.00000E+00  9.000E+00
#rwgt            1           1  0.14042175464428205                2      413456           0
</event>
<event>
      5   9999  3.79277E-02  8.93625E+01 -1.00000E+00  1.26065E-01
      21    -1     0     0   502   501  0.000000000E+00  0.000000000E+00  4.267958823E+02  4.267958823E+02  0.000000000E+00  0.00000E+00  9.000E+00
      21    -1     0     0   511   502  0.000000000E+00  0.000000000E+00 -1.404887188E+02  1.404887188E+02  0.000000000E+00  0.00000E+00  9.000E+00
      25     1     1     2     0     0 -8.681481712E+01  3.467742724E+01  2.218108304E+01  1.576589258E+02  1.250000000E+02  0.00000E+00  9.000E+00
      25     1     1     2     0     0 -3.166919895E-01 -5.452059714E+01  2.866778831E+02  3.174615008E+02  1.250000000E+02  0.00000E+00  9.000E+00
      21     1     1     2   511   501  8.713150911E+01  1.984316991E+01 -2.255180268E+01  9.216417458E+01  2.261837239E-06  0.00000E+00  9.000E+00
#rwgt            1           1   6.0807455657052811E-002           2      413762           0
</event>
<event>
      5   9999  3.79277E-02  7.37680E+01 -1.00000E+00  1.30078E-01
      21    -1     0     0   502   501  0.000000000E+00  0.000000000E+00  6.654975981E+02  6.654975981E+02  0.000000000E+00  0.00000E+00  9.000E+00
      21    -1     0     0   501   512  0.000000000E+00  0.000000000E+00 -1.589765674E+02  1.589765674E+02  0.000000000E+00  0.00000E+00  9.000E+00
      25     1     1     2     0     0 -1.158217926E+02  1.984059787E+02  2.322379745E+02  3.497700628E+02  1.250000000E+02  0.00000E+00  9.000E+00
      25     1     1     2     0     0  1.671516187E+02 -1.454251597E+02  3.029245109E+02  3.955709797E+02  1.250000000E+02  0.00000E+00  9.000E+00
      21     1     1     2   502   512 -5.132982613E+01 -5.298081903E+01 -2.864145472E+01  7.913312305E+01  7.539457465E-07  0.00000E+00  9.000E+00
#rwgt            1           1   3.5732329738615017E-002           2      413829           0
</event>
<event>
      5   9999  3.79277E-02  1.11958E+02 -1.00000E+00  1.21661E-01
      21    -1     0     0   502   501  0.000000000E+00  0.000000000E+00  4.695282533E+02  4.695282533E+02  0.000000000E+00  0.00000E+00  9.000E+00
      21    -1     0     0   511   502  0.000000000E+00  0.000000000E+00 -1.690317343E+02  1.690317343E+02  0.000000000E+00  0.00000E+00  9.000E+00
      25     1     1     2     0     0  1.584137395E+02  8.425877415E+01  1.033698636E+02  2.418776190E+02  1.250000000E+02  0.00000E+00  9.000E+00
      25     1     1     2     0     0 -1.870172635E+02  2.398343283E+01  1.656477047E+02  2.803833518E+02  1.250000000E+02  0.00000E+00  9.000E+00
      21     1     1     2   511   501  2.860352400E+01 -1.082422070E+02  3.147895068E+01  1.162990167E+02  3.162979880E-06  0.00000E+00  9.000E+00
#rwgt            1           1   3.4233459214822848E-002           2      414062           0
</event>
<event>
      5   9999  3.79277E-02  1.06872E+02 -1.00000E+00  1.22543E-01
      21    -1     0     0   502   501  0.000000000E+00  0.000000000E+00  3.202144038E+02  3.202144038E+02  0.000000000E+00  0.00000E+00  9.000E+00
      21    -1     0     0   501   512  0.000000000E+00  0.000000000E+00 -5.896839594E+02  5.896839594E+02  0.000000000E+00  0.00000E+00  9.000E+00
      25     1     1     2     0     0 -3.846978491E+02 -9.195986430E+01 -1.353650204E+02  4.363458954E+02  1.250000000E+02  0.00000E+00  9.000E+00
      25     1     1     2     0     0  2.790802878E+02  1.082890035E+02 -3.239313137E+01  3.260163037E+02  1.250000000E+02  0.00000E+00  9.000E+00
      21     1     1     2   502   512  1.056175612E+02 -1.632913923E+01 -1.017114039E+02  1.475361640E+02  2.336015456E-06  0.00000E+00  9.000E+00
#rwgt            1           1   4.8479914498091067E-002           2      414114           0
</event>
<event>
      5   9999  3.79277E-02  1.33084E+02 -1.00000E+00  1.18491E-01
      21    -1     0     0   511   501  0.000000000E+00  0.000000000E+00  5.056159530E+02  5.056159530E+02  0.000000000E+00  0.00000E+00  9.000E+00
      21    -1     0     0   501   502  0.000000000E+00  0.000000000E+00 -9.053235581E+02  9.053235581E+02  0.000000000E+00  0.00000E+00  9.000E+00
      25     1     1     2     0     0  6.657035005E+01  1.349484224E+02 -3.777789733E+02  4.254228965E+02  1.250000000E+02  0.00000E+00  9.000E+00
      25     1     1     2     0     0  3.370709730E+01 -2.224451554E+02 -4.603105154E+02  5.273791674E+02  1.250000000E+02  0.00000E+00  9.000E+00
      21     1     1     2   511   502 -1.002774473E+02  8.749673304E+01  4.383818835E+02  4.581374472E+02  5.394796609E-06  0.00000E+00  9.000E+00
#rwgt            1           1   4.4471220317829359E-002           2      414195           0
</event>
<event>
      5   9999  3.79277E-02  1.94317E+01 -1.00000E+00  1.67409E-01
       1    -1     0     0   502     0  0.000000000E+00  0.000000000E+00  1.275626093E+02  1.275626093E+02  0.000000000E+00  0.00000E+00  9.000E+00
      21    -1     0     0   501   502  0.000000000E+00  0.000000000E+00 -1.071779820E+03  1.071779820E+03  0.000000000E+00  0.00000E+00  9.000E+00
      25     1     1     2     0     0 -5.926042199E+01 -1.554230584E+02 -7.609768037E+02  7.889098937E+02  1.250000000E+02  0.00000E+00  9.000E+00
      25     1     1     2     0     0  4.984723718E+01  1.724225039E+02 -2.550787394E+02  3.360125447E+02  1.250000000E+02  0.00000E+00  9.000E+00
       1     1     1     2   501     0  9.413184812E+00 -1.699944552E+01  7.183833184E+01  7.441999139E+01  0.000000000E+00  0.00000E+00  9.000E+00
#rwgt            1           1   4.1611365929228421E-002           2      414267           0
</event>
<event>
      5   9999  3.79277E-02  9.62332E+01 -1.00000E+00  1.24583E-01
       2    -1     0     0   502     0  0.000000000E+00  0.000000000E+00  1.410740436E+03  1.410740436E+03  0.000000000E+00  0.00000E+00  9.000E+00
      21    -1     0     0   501   502  0.000000000E+00  0.000000000E+00 -8.801019226E+02  8.801019226E+02  0.000000000E+00  0.00000E+00  9.000E+00
      25     1     1     2     0     0 -2.001068104E+02 -1.458243688E+02 -3.856686121E+02  4.750502716E+02  1.250000000E+02  0.00000E+00  9.000E+00
      25     1     1     2     0     0  2.945069461E+02  1.271308520E+02 -3.818164417E+02  5.141063995E+02  1.250000000E+02  0.00000E+00  9.000E+00
       2     1     1     2   501     0 -9.440013569E+01  1.869351679E+01  1.298123567E+03  1.301685688E+03  2.642899792E-05  0.00000E+00  9.000E+00
#rwgt            1           1   3.6151475469415870E-002           2      414480           0
</event>
<event>
      5   9999  3.79277E-02  5.06013E+01 -1.00000E+00  1.38780E-01
      21    -1     0     0   502   501  0.000000000E+00  0.000000000E+00  1.197155131E+02  1.197155131E+02  0.000000000E+00  0.00000E+00  9.000E+00
      21    -1     0     0   511   502  0.000000000E+00  0.000000000E+00 -2.826651058E+02  2.826651058E+02  0.000000000E+00  0.00000E+00  9.000E+00
      25     1     1     2     0     0 -9.331276699E+01  2.973679486E+01 -1.054140658E+02  1.906008256E+02  1.250000000E+02  0.00000E+00  9.000E+00
      25     1     1     2     0     0  5.710938741E+01 -6.508937501E+01 -3.326437899E+01  1.556586900E+02  1.250000000E+02  0.00000E+00  9.000E+00
      21     1     1     2   511   501  3.620337958E+01  3.535258015E+01 -2.427114791E+01  5.612110332E+01  4.768371582E-07  0.00000E+00  9.000E+00
#rwgt            1           1   4.7097027795552832E-002           2      414547           0
</event>
<event>
      5   9999 -3.79277E-02  1.42349E+02 -1.00000E+00  1.17302E-01
      21    -1     0     0   502   501  0.000000000E+00  0.000000000E+00  6.224484988E+02  6.224484988E+02  0.000000000E+00  0.00000E+00  9.000E+00
      21    -1     0     0   501   512  0.000000000E+00  0.000000000E+00 -3.150467893E+02  3.150467893E+02  0.000000000E+00  0.00000E+00  9.000E+00
      25     1     1     2     0     0  4.616525115E+01 -9.062663978E-01  3.864630178E+02  4.087917757E+02  1.250000000E+02  0.00000E+00  9.000E+00
      25     1     1     2     0     0 -1.705703398E+01  1.402478388E+02  1.620627454E+02  2.486960637E+02  1.250000000E+02  0.00000E+00  9.000E+00
      21     1     1     2   502   512 -2.910821717E+01 -1.393415724E+02 -2.411240536E+02  2.800074487E+02  2.697398305E-06  0.00000E+00  9.000E+00
#rwgt            1           1  -9.2358036434890753E-002           2      414646           0
</event>
<event>
      5   9999  3.79277E-02  1.53033E+01 -1.00000E+00  1.76569E-01
      21    -1     0     0   502   501  0.000000000E+00  0.000000000E+00  3.665245918E+02  3.665245918E+02  0.000000000E+00  0.00000E+00  9.000E+00
      21    -1     0     0   501   511  0.000000000E+00  0.000000000E+00 -2.868100747E+02  2.868100747E+02  0.000000000E+00  0.00000E+00  9.000E+00
      25     1     1     2     0     0  1.155710462E+02 -1.831900994E+02  1.572724600E+02  2.954232657E+02  1.250000000E+02  0.00000E+00  9.000E+00
      25     1     1     2     0     0 -1.003741814E+02  1.849915630E+02  3.237267198E+01  2.469207253E+02  1.250000000E+02  0.00000E+00  9.000E+00
      21     1     1     2   502   511 -1.519686484E+01 -1.801463676E+00 -1.099306149E+02  1.109906756E+02  1.348699152E-06  0.00000E+00  9.000E+00
#rwgt            1           1   3.6145391847752797E-002           2      414710           0
</event>
<event>
      5   9999  3.79277E-02  3.13193E+01 -1.00000E+00  1.51753E-01
      21    -1     0     0   502   501  0.000000000E+00  0.000000000E+00  5.578589621E+01  5.578589621E+01  0.000000000E+00  0.00000E+00  9.000E+00
      21    -1     0     0   512   502  0.000000000E+00  0.000000000E+00 -4.930146448E+02  4.930146448E+02  0.000000000E+00  0.00000E+00  9.000E+00
      25     1     1     2     0     0  6.420298916E+01  3.674326040E+01 -1.073282264E+02  1.806002192E+02  1.250000000E+02  0.00000E+00  9.000E+00
      25     1     1     2     0     0 -3.891959959E+01 -1.825953389E+01 -2.682651297E+02  2.990640828E+02  1.250000000E+02  0.00000E+00  9.000E+00
      21     1     1     2   512   501 -2.528338957E+01 -1.848372651E+01 -6.163539241E+01  6.913623891E+01  6.743495762E-07  0.00000E+00  9.000E+00
#rwgt            1           1   8.9003036673329539E-002           2      414902           0
</event>
<event>
      5   9999  3.79277E-02  1.02989E+02 -1.00000E+00  1.23255E-01
      21    -1     0     0   502   511  0.000000000E+00  0.000000000E+00  6.552106643E+02  6.552106643E+02  0.000000000E+00  0.00000E+00  9.000E+00
      21    -1     0     0   501   502  0.000000000E+00  0.000000000E+00 -1.186522722E+02  1.186522722E+02  0.000000000E+00  0.00000E+00  9.000E+00
      25     1     1     2     0     0  8.142073640E+01 -8.907996521E+01  2.259504601E+02  2.850319051E+02  1.250000000E+02  0.00000E+00  9.000E+00
      25     1     1     2     0     0 -7.315697533E+01  1.917368033E+02  1.120060566E+02  2.651137520E+02  1.250000000E+02  0.00000E+00  9.000E+00
      21     1     1     2   501   511 -8.263761071E+00 -1.026568381E+02  1.986018753E+02  2.237172793E+02  3.814697266E-06  0.00000E+00  9.000E+00
#rwgt            1           1   2.3699318646852992E-002           2      415093           0
</event>
<event>
      5   9999  3.79277E-02  1.88854E+01 -1.00000E+00  1.68450E-01
      21    -1     0     0   512   501  0.000000000E+00  0.000000000E+00  9.549057428E+02  9.549057428E+02  0.000000000E+00  0.00000E+00  9.000E+00
      21    -1     0     0   501   502  0.000000000E+00  0.000000000E+00 -1.132000051E+02  1.132000051E+02  0.000000000E+00  0.00000E+00  9.000E+00
      25     1     1     2     0     0 -2.485958923E+01 -2.097078279E+02  9.507463887E+01  2.631721095E+02  1.250000000E+02  0.00000E+00  9.000E+00
      25     1     1     2     0     0  3.944188488E+01  1.977072064E+02  4.588962265E+02  5.165796632E+02  1.250000000E+02  0.00000E+00  9.000E+00
      21     1     1     2   512   502 -1.458229565E+01  1.200062159E+01  2.877348723E+02  2.883539751E+02  3.814697266E-06  0.00000E+00  9.000E+00
#rwgt            1           1   4.7173273255372496E-002           2      415133           0
</event>
<event>
      5   9999  3.79277E-02  5.25535E+01 -1.00000E+00  1.37852E-01
      21    -1     0     0   502   511  0.000000000E+00  0.000000000E+00  2.737408481E+02  2.737408481E+02  0.000000000E+00  0.00000E+00  9.000E+00
      21    -1     0     0   501   502  0.000000000E+00  0.000000000E+00 -3.258329167E+02  3.258329167E+02  0.000000000E+00  0.00000E+00  9.000E+00
      25     1     1     2     0     0  5.260601582E+01  6.611550415E+01 -1.919870109E+02  2.441775279E+02  1.250000000E+02  0.00000E+00  9.000E+00
      25     1     1     2     0     0 -7.685713952E+01 -1.127390741E+02 -2.090769313E+01  1.862236568E+02  1.250000000E+02  0.00000E+00  9.000E+00
      21     1     1     2   501   511  2.425112370E+01  4.662356997E+01  1.608026354E+02  1.691725800E+02  2.697398305E-06  0.00000E+00  9.000E+00
#rwgt            1           1   4.4798507369851817E-002           2      415391           0
</event>
<event>
      5   9999  3.79277E-02  3.98443E+01 -1.00000E+00  1.44945E-01
      21    -1     0     0   502   501  0.000000000E+00  0.000000000E+00  2.269834458E+02  2.269834458E+02  0.000000000E+00  0.00000E+00  9.000E+00
      21    -1     0     0   501   512  0.000000000E+00  0.000000000E+00 -1.747853728E+02  1.747853728E+02  0.000000000E+00  0.00000E+00  9.000E+00
      25     1     1     2     0     0 -9.552007800E+01 -2.348299993E+01  1.028377085E+02  1.894099546E+02  1.250000000E+02  0.00000E+00  9.000E+00
      25     1     1     2     0     0  1.087970827E+02 -1.408410413E+01 -4.310194996E+01  1.718078731E+02  1.250000000E+02  0.00000E+00  9.000E+00
      21     1     1     2   502   512 -1.327700467E+01  3.756710405E+01 -7.537685543E+00  4.055099091E+01  7.052516679E-07  0.00000E+00  9.000E+00
#rwgt            1           1   4.1817015047170072E-002           2      415486           0
</event>
<event>
      5   9999  3.79277E-02  2.80920E+01 -1.00000E+00  1.55049E-01
      21    -1     0     0   502   501  0.000000000E+00  0.000000000E+00  7.411624408E+01  7.411624408E+01  0.000000000E+00  0.00000E+00  9.000E+00
      21    -1     0     0   511   502  0.000000000E+00  0.000000000E+00 -1.591957606E+03  1.591957606E+03  0.000000000E+00  0.00000E+00  9.000E+00
      25     1     1     2     0     0 -1.471878077E+02 -4.985387492E+01 -2.129251501E+02  2.917392313E+02  1.250000000E+02  0.00000E+00  9.000E+00
      25     1     1     2     0     0  1.271671518E+02  6.956006681E+01 -2.307494950E+02  2.998006285E+02  1.250000000E+02  0.00000E+00  9.000E+00
      21     1     1     2   511   501  2.002065586E+01 -1.970619189E+01 -1.074166717E+03  1.074533991E+03  1.525878906E-05  0.00000E+00  9.000E+00
#rwgt            1           1   3.5440269522018897E-002           2      415606           0
</event>
<event>
      5   9999  3.79277E-02  8.89537E+01 -1.00000E+00  1.26158E-01
      21    -1     0     0   502   501  0.000000000E+00  0.000000000E+00  9.796925000E+01  9.796925000E+01  0.000000000E+00  0.00000E+00  9.000E+00
      21    -1     0     0   501   512  0.000000000E+00  0.000000000E+00 -7.992062388E+02  7.992062388E+02  0.000000000E+00  0.00000E+00  9.000E+00
      25     1     1     2     0     0  1.507106896E+02  9.471467837E+01 -1.753333498E+02  2.793767453E+02  1.250000000E+02  0.00000E+00  9.000E+00
      25     1     1     2     0     0 -9.803835008E+01 -1.663971859E+02 -3.260255712E+02  3.990203185E+02  1.250000000E+02  0.00000E+00  9.000E+00
      21     1     1     2   502   512 -5.267233952E+01  7.168250750E+01 -1.998780679E+02  2.187784250E+02  3.814697266E-06  0.00000E+00  9.000E+00
#rwgt            2          11   2.2809092257622147E-003           2      415705           0
</event>
<event>
      5   9999  3.79277E-02  1.16671E+02 -1.00000E+00  1.20889E-01
      21    -1     0     0   511   501  0.000000000E+00  0.000000000E+00  2.227171427E+02  2.227171427E+02  0.000000000E+00  0.00000E+00  9.000E+00
      21    -1     0     0   501   502  0.000000000E+00  0.000000000E+00 -1.331242348E+03  1.331242348E+03  0.000000000E+00  0.00000E+00  9.000E+00
      25     1     1     2     0     0 -5.219218180E+00  2.646798476E+02 -9.032042750E+02  9.494659680E+02  1.250000000E+02  0.00000E+00  9.000E+00
      25     1     1     2     0     0  1.146944789E+02 -2.243411502E+02 -3.300937226E+02  4.336711206E+02  1.250000000E+02  0.00000E+00  9.000E+00
      21     1     1     2   511   502 -1.094752607E+02 -4.033869738E+01  1.247727926E+02  1.708224019E+02  4.473129043E-06  0.00000E+00  9.000E+00
#rwgt            1           1   2.3235671956458866E-002           2      415725           0
</event>
<event>
      5   9999  3.79277E-02  8.50560E+01 -1.00000E+00  1.27074E-01
      21    -1     0     0   512   501  0.000000000E+00  0.000000000E+00  1.099681091E+02  1.099681091E+02  0.000000000E+00  0.00000E+00  9.000E+00
      21    -1     0     0   501   502  0.000000000E+00  0.000000000E+00 -6.165786628E+02  6.165786628E+02  0.000000000E+00  0.00000E+00  9.000E+00
      25     1     1     2     0     0  1.199762846E+02  1.253303801E+02 -2.323695554E+02  3.157888904E+02  1.250000000E+02  0.00000E+00  9.000E+00
      25     1     1     2     0     0 -3.918691174E+01 -1.519310340E+02 -2.533826168E+02  3.231816883E+02  1.250000000E+02  0.00000E+00  9.000E+00
      21     1     1     2   512   502 -8.078937282E+01  2.660065387E+01 -2.085838151E+01  8.757619326E+01  1.092571186E-06  0.00000E+00  9.000E+00
#rwgt            1           1   2.8398079647909684E-002           2      415781           0
</event>
<event>
      5   9999 -3.79277E-02  2.33935E+01 -1.00000E+00  1.60942E-01
      21    -1     0     0   502   501  0.000000000E+00  0.000000000E+00  5.109822125E+01  5.109822125E+01  0.000000000E+00  0.00000E+00  9.000E+00
      21    -1     0     0   511   502  0.000000000E+00  0.000000000E+00 -1.659101606E+03  1.659101606E+03  0.000000000E+00  0.00000E+00  9.000E+00
      25     1     1     2     0     0  1.627670948E+02  9.913504067E+00 -1.118953708E+03  1.137661551E+03  1.250000000E+02  0.00000E+00  9.000E+00
      25     1     1     2     0     0 -1.808829722E+02 -2.471446761E+01 -2.561970403E+02  3.385134827E+02  1.250000000E+02  0.00000E+00  9.000E+00
      21     1     1     2   511   501  1.811587734E+01  1.480096354E+01 -2.328526366E+02  2.340247934E+02  3.814697266E-06  0.00000E+00  9.000E+00
#rwgt            1           1  -7.2844653598481343E-002           2      415923           0
</event>
<event>
      5   9999  3.79277E-02  9.47455E+00 -1.00000E+00  1.98507E-01
      21    -1     0     0   512   501  0.000000000E+00  0.000000000E+00  3.930333997E+02  3.930333997E+02  0.000000000E+00  0.00000E+00  9.000E+00
      21    -1     0     0   501   502  0.000000000E+00  0.000000000E+00 -1.119885537E+02  1.119885537E+02  0.000000000E+00  0.00000E+00  9.000E+00
      25     1     1     2     0     0  7.822769566E+01 -2.869825909E+01  2.953013707E+02  3.313171622E+02  1.250000000E+02  0.00000E+00  9.000E+00
      25     1     1     2     0     0 -6.878240372E+01  2.795423121E+01 -3.618019336E+01  1.498214420E+02  1.250000000E+02  0.00000E+00  9.000E+00
      21     1     1     2   512   502 -9.445291938E+00  7.440278761E-01  2.192366866E+01  2.388334912E+01  4.768371582E-07  0.00000E+00  9.000E+00
#rwgt            1           1   3.8673629710376960E-002           2      416138           0
</event>
<event>
      5   9999  3.79277E-02  3.75382E+01 -1.00000E+00  1.46572E-01
      21    -1     0     0   511   501  0.000000000E+00  0.000000000E+00  2.335595799E+02  2.335595799E+02  0.000000000E+00  0.00000E+00  9.000E+00
      21    -1     0     0   501   502  0.000000000E+00  0.000000000E+00 -1.751247535E+02  1.751247535E+02  0.000000000E+00  0.00000E+00  9.000E+00
      25     1     1     2     0     0  6.392372715E+00  7.344300721E+01  1.372052366E+02  1.997123298E+02  1.250000000E+02  0.00000E+00  9.000E+00
      25     1     1     2     0     0  3.337267199E+00 -3.718763778E+01 -1.013204086E+02  1.651813638E+02  1.250000000E+02  0.00000E+00  9.000E+00
      21     1     1     2   511   502 -9.729639915E+00 -3.625536943E+01  2.254999843E+01  4.379063981E+01  5.840038640E-07  0.00000E+00  9.000E+00
#rwgt            1           1   5.2937771467801376E-002           2      416624           0
</event>
<event>
      5   9999  3.79277E-02  2.15511E+01 -1.00000E+00  1.63736E-01
      21    -1     0     0   502   512  0.000000000E+00  0.000000000E+00  7.539849207E+01  7.539849207E+01  0.000000000E+00  0.00000E+00  9.000E+00
      21    -1     0     0   501   502  0.000000000E+00  0.000000000E+00 -8.776891040E+02  8.776891040E+02  0.000000000E+00  0.00000E+00  9.000E+00
      25     1     1     2     0     0 -1.512782178E+02 -2.961820348E+01 -6.507945745E+02  6.803829182E+02  1.250000000E+02  0.00000E+00  9.000E+00
      25     1     1     2     0     0  1.522612439E+02  8.089565005E+00 -1.550948169E+02  2.508551966E+02  1.250000000E+02  0.00000E+00  9.000E+00
      21     1     1     2   501   512 -9.830260623E-01  2.152863847E+01  3.598779521E+00  2.184948120E+01  3.449868233E-07  0.00000E+00  9.000E+00
#rwgt            1           1   4.7402092920080796E-002           2      416961           0
</event>
<event>
      5   9999  3.79277E-02  9.79564E+01 -1.00000E+00  1.24233E-01
      21    -1     0     0   502   501  0.000000000E+00  0.000000000E+00  8.242748353E+02  8.242748353E+02  0.000000000E+00  0.00000E+00  9.000E+00
      21    -1     0     0   511   502  0.000000000E+00  0.000000000E+00 -2.136809592E+02  2.136809592E+02  0.000000000E+00  0.00000E+00  9.000E+00
      25     1     1     2     0     0 -9.043309820E+01  2.603704908E+02  2.031999020E+02  3.645355098E+02  1.250000000E+02  0.00000E+00  9.000E+00
      25     1     1     2     0     0  1.753668574E+02 -2.115677892E+02  4.689548984E+02  5.577258832E+02  1.250000000E+02  0.00000E+00  9.000E+00
      21     1     1     2   511   501 -8.493375921E+01 -4.880270168E+01 -6.156092426E+01  1.156944015E+02  1.507891493E-06  0.00000E+00  9.000E+00
#rwgt            1           1   3.6351225446821282E-002           2      417215           0
</event>
<event>
      5   9999  3.79277E-02  6.58819E+01 -1.00000E+00  1.32568E-01
      21    -1     0     0   502   501  0.000000000E+00  0.000000000E+00  6.868679053E+02  6.868679053E+02  0.000000000E+00  0.00000E+00  9.000E+00
      -4    -1     0     0     0   502  0.000000000E+00  0.000000000E+00 -1.585214068E+02  1.585214068E+02  0.000000000E+00  0.00000E+00  9.000E+00
      25     1     1     2     0     0 -8.093743775E+01  1.682448781E+01 -1.792803663E+01  1.509315962E+02  1.250000000E+02  0.00000E+00  9.000E+00
      25     1     1     2     0     0  3.187362053E+01 -6.079234384E+01  5.954232944E+02  6.122626367E+02  1.250000000E+02  0.00000E+00  9.000E+00
      -4     1     1     2     0   501  4.906381722E+01  4.396785603E+01 -4.914875928E+01  8.219507931E+01  1.507891493E-06  0.00000E+00  9.000E+00
#rwgt            1           1   4.9961486917888105E-002           2      417307           0
</event>
<event>
      5   9999 -3.79277E-02  6.24774E+01 -1.00000E+00  1.33771E-01
      21    -1     0     0   502   501  0.000000000E+00  0.000000000E+00  3.753225183E+02  3.753225183E+02  0.000000000E+00  0.00000E+00  9.000E+00
      21    -1     0     0   501   511  0.000000000E+00  0.000000000E+00 -2.255926969E+02  2.255926969E+02  0.000000000E+00  0.00000E+00  9.000E+00
      25     1     1     2     0     0  2.023052230E+01  1.163096408E+02  2.874172783E+02  3.349192416E+02  1.250000000E+02  0.00000E+00  9.000E+00
      25     1     1     2     0     0  3.917660815E+01 -9.696485911E+01 -1.152530502E+02  1.996127654E+02  1.250000000E+02  0.00000E+00  9.000E+00
      21     1     1     2   502   511 -5.940713045E+01 -1.934478165E+01 -2.243440666E+01  6.638320818E+01  1.800020799E-06  0.00000E+00  9.000E+00
#rwgt            1           1  -8.2788923865336012E-002           2      417393           0
</event>
<event>
      5   9999 -4.87274E-02  1.04556E+02 -1.00000E+00  1.22964E-01
      21    -1     0     0   512   501  0.000000000E+00  0.000000000E+00  7.540149207E+01  7.540149207E+01  0.000000000E+00  0.00000E+00  9.000E+00
      21    -1     0     0   501   502  0.000000000E+00  0.000000000E+00 -9.183079088E+02  9.183079088E+02  0.000000000E+00  0.00000E+00  9.000E+00
      25     1     1     2     0     0  8.371670048E+01  1.181530843E+01 -3.086017879E+02  3.435231447E+02  1.250000000E+02  0.00000E+00  9.000E+00
      25     1     1     2     0     0 -1.879851499E+02 -1.956298664E+01 -4.834484370E+02  5.339180820E+02  1.250000000E+02  0.00000E+00  9.000E+00
      21     1     1     2   512   502  1.042684495E+02  7.747678218E+00 -5.085619178E+01  1.162681741E+02  9.536743164E-07  0.00000E+00  9.000E+00
#rwgt            1           1 -0.37163704577118151                2      417619           0
</event>
<event>
      5   9999  3.79277E-02  3.85642E+01 -1.00000E+00  1.45832E-01
      21    -1     0     0   502   511  0.000000000E+00  0.000000000E+00  1.290786929E+02  1.290786929E+02  0.000000000E+00  0.00000E+00  9.000E+00
      21    -1     0     0   501   502  0.000000000E+00  0.000000000E+00 -7.462577013E+02  7.462577013E+02  0.000000000E+00  0.00000E+00  9.000E+00
      25     1     1     2     0     0 -2.116082229E+01  1.415838824E+02 -4.962136991E+01  1.964206112E+02  1.250000000E+02  0.00000E+00  9.000E+00
      25     1     1     2     0     0  1.427701049E+01 -1.795286701E+02 -5.933286800E+02  6.325332394E+02  1.250000000E+02  0.00000E+00  9.000E+00
      21     1     1     2   501   511  6.883811795E+00  3.794478772E+01  2.577104137E+01  4.638254363E+01  4.768371582E-07  0.00000E+00  9.000E+00
#rwgt            1           1   4.7036909614231903E-002           2      417703           0
</event>
<event>
      5   9999  3.79277E-02  1.41326E+01 -1.00000E+00  1.79856E-01
      21    -1     0     0   502   512  0.000000000E+00  0.000000000E+00  3.410657556E+02  3.410657556E+02  0.000000000E+00  0.00000E+00  9.000E+00
      21    -1     0     0   501   502  0.000000000E+00  0.000000000E+00 -2.404170508E+02  2.404170508E+02  0.000000000E+00  0.00000E+00  9.000E+00
      25     1     1     2     0     0 -2.131060433E+02  1.258893271E+02 -6.197755326E-01  2.772863005E+02  1.250000000E+02  0.00000E+00  9.000E+00
      25     1     1     2     0     0  2.052373440E+02 -1.141499088E+02  7.846788636E+01  2.773711922E+02  1.250000000E+02  0.00000E+00  9.000E+00
      21     1     1     2   501   512  7.868699248E+00 -1.173941825E+01  2.280059395E+01  2.682531367E+01  0.000000000E+00  0.00000E+00  9.000E+00
#rwgt            1           1  0.10211045998532549                2      417821           0
</event>
<event>
      5   9999  3.79277E-02  1.34437E+01 -1.00000E+00  1.81986E-01
      21    -1     0     0   511   501  0.000000000E+00  0.000000000E+00  6.429219818E+01  6.429219818E+01  0.000000000E+00  0.00000E+00  9.000E+00
      21    -1     0     0   501   502  0.000000000E+00  0.000000000E+00 -6.006874423E+02  6.006874423E+02  0.000000000E+00  0.00000E+00  9.000E+00
      25     1     1     2     0     0  4.689448224E-01 -1.132416728E+02 -3.867965279E+02  4.219720967E+02  1.250000000E+02  0.00000E+00  9.000E+00
      25     1     1     2     0     0 -4.904463560E+00  1.259326077E+02 -1.434542621E+02  2.282262052E+02  1.250000000E+02  0.00000E+00  9.000E+00
      21     1     1     2   511   502  4.435518737E+00 -1.269093485E+01 -6.144454120E+00  1.478133858E+01  1.685873940E-07  0.00000E+00  9.000E+00
#rwgt            1           1   4.0472958475413962E-002           2      418070           0
</event>
<event>
      5   9999  3.79277E-02  1.76959E+01 -1.00000E+00  1.70878E-01
      21    -1     0     0   502   501  0.000000000E+00  0.000000000E+00  7.544228432E+01  7.544228432E+01  0.000000000E+00  0.00000E+00  9.000E+00
      21    -1     0     0   512   502  0.000000000E+00  0.000000000E+00 -1.092854663E+03  1.092854663E+03  0.000000000E+00  0.00000E+00  9.000E+00
      25     1     1     2     0     0  1.251452067E+02 -5.817613004E+00 -5.234952838E+01  1.845552505E+02  1.250000000E+02  0.00000E+00  9.000E+00
      25     1     1     2     0     0 -1.183533959E+02 -1.052305570E+01 -8.492354796E+02  8.665703439E+02  1.250000000E+02  0.00000E+00  9.000E+00
      21     1     1     2   512   501 -6.791810750E+00  1.634066870E+01 -1.158273706E+02  1.171713529E+02  1.348699152E-06  0.00000E+00  9.000E+00
#rwgt            1           1   2.3421464803856946E-002           2      418339           0
</event>
<event>
      5   9999  3.79277E-02  3.01458E+02 -1.00000E+00  1.05524E-01
       2    -1     0     0   502     0  0.000000000E+00  0.000000000E+00  1.423883073E+03  1.423883073E+03  0.000000000E+00  0.00000E+00  9.000E+00
      21    -1     0     0   501   502  0.000000000E+00  0.000000000E+00 -2.150089639E+02  2.150089639E+02  0.000000000E+00  0.00000E+00  9.000E+00
      25     1     1     2     0     0  1.118739345E+02  3.542735704E+02  3.542041376E+02  5.283096733E+02  1.250000000E+02  0.00000E+00  9.000E+00
      25     1     1     2     0     0  2.436994954E+01 -8.536027960E+01 -4.659424504E+01  1.602382459E+02  1.250000000E+02  0.00000E+00  9.000E+00
       2     1     1     2   501     0 -1.362438840E+02 -2.689132908E+02  9.012642169E+02  9.503441179E+02  1.525878906E-05  0.00000E+00  9.000E+00
#rwgt            1           1   4.6234536576204049E-002           2      418595           0
</event>
<event>
      5   9999  3.79277E-02  1.19364E+02 -1.00000E+00  1.20466E-01
       2    -1     0     0   502     0  0.000000000E+00  0.000000000E+00  1.735330189E+03  1.735330189E+03  0.000000000E+00  0.00000E+00  9.000E+00
      21    -1     0     0   501   502  0.000000000E+00  0.000000000E+00 -2.630188725E+02  2.630188725E+02  0.000000000E+00  0.00000E+00  9.000E+00
      25     1     1     2     0     0 -2.937749781E+01  2.543104911E+02 -9.613669650E+01  3.006727917E+02  1.250000000E+02  0.00000E+00  9.000E+00
      25     1     1     2     0     0 -8.964116346E+01 -2.633776745E+02  3.146729962E+02  4.382321670E+02  1.250000000E+02  0.00000E+00  9.000E+00
       2     1     1     2   501     0  1.190186613E+02  9.067183376E+00  1.253775017E+03  1.259444103E+03  0.000000000E+00  0.00000E+00  9.000E+00
#rwgt            1           1   4.0916272500394930E-002           2      418624           0
</event>
<event>
      5   9999 -3.79277E-02  1.43044E+01 -1.00000E+00  1.79349E-01
      21    -1     0     0   502   501  0.000000000E+00  0.000000000E+00  4.196838072E+01  4.196838072E+01  0.000000000E+00  0.00000E+00  9.000E+00
       2    -1     0     0   501     0  0.000000000E+00  0.000000000E+00 -3.536338661E+03  3.536338661E+03  0.000000000E+00  0.00000E+00  9.000E+00
      25     1     1     2     0     0  2.330672178E+01  2.660911679E+02 -1.175273151E+03  1.211709409E+03  1.250000000E+02  0.00000E+00  9.000E+00
      25     1     1     2     0     0 -3.522686596E+01 -2.739985188E+02 -9.455979736E+02  9.930239917E+02  1.250000000E+02  0.00000E+00  9.000E+00
       2     1     1     2   502     0  1.192014418E+01  7.907350935E+00 -1.373499156E+03  1.373573641E+03  1.525878906E-05  0.00000E+00  9.000E+00
#rwgt            1           1 -0.10936878060023564                2      418804           0
</event>
<event>
      5   9999  3.79277E-02  1.87725E+02 -1.00000E+00  1.12659E-01
      21    -1     0     0   502   501  0.000000000E+00  0.000000000E+00  1.617755735E+03  1.617755735E+03  0.000000000E+00  0.00000E+00  9.000E+00
      21    -1     0     0   511   502  0.000000000E+00  0.000000000E+00 -5.124718468E+01  5.124718468E+01  0.000000000E+00  0.00000E+00  9.000E+00
      25     1     1     2     0     0 -3.137172810E+01  1.557164829E+01  7.835700779E+02  7.942504193E+02  1.250000000E+02  0.00000E+00  9.000E+00
      25     1     1     2     0     0 -7.894625420E+01  1.363179248E+02  3.691123440E+02  4.203379713E+02  1.250000000E+02  0.00000E+00  9.000E+00
      21     1     1     2   511   501  1.103179823E+02 -1.518895731E+02  4.138261286E+02  4.544145292E+02  7.629394531E-06  0.00000E+00  9.000E+00
#rwgt            2          11   1.5589798476860874E-003           2      419006           0
</event>
<event>
      5   9999 -3.79277E-02  2.89562E+01 -1.00000E+00  1.54116E-01
      21    -1     0     0   512   501  0.000000000E+00  0.000000000E+00  1.288234215E+03  1.288234215E+03  0.000000000E+00  0.00000E+00  9.000E+00
      21    -1     0     0   501   502  0.000000000E+00  0.000000000E+00 -9.989345203E+01  9.989345203E+01  0.000000000E+00  0.00000E+00  9.000E+00
      25     1     1     2     0     0  5.706676598E+01 -1.993534239E+02  5.038375467E+02  5.589952387E+02  1.250000000E+02  0.00000E+00  9.000E+00
      25     1     1     2     0     0 -8.601593367E+01  1.987149720E+02  1.453503189E+02  2.892025175E+02  1.250000000E+02  0.00000E+00  9.000E+00
      21     1     1     2   512   502  2.894916769E+01  6.384518988E-01  5.391528977E+02  5.399299112E+02  7.629394531E-06  0.00000E+00  9.000E+00
#rwgt            1           1 -0.11119521357325036                2      419041           0
</event>
<event>
      5   9999  3.79277E-02  7.49540E+01 -1.00000E+00  1.29734E-01
      21    -1     0     0   502   501  0.000000000E+00  0.000000000E+00  2.214602661E+02  2.214602661E+02  0.000000000E+00  0.00000E+00  9.000E+00
      21    -1     0     0   511   502  0.000000000E+00  0.000000000E+00 -2.888944949E+02  2.888944949E+02  0.000000000E+00  0.00000E+00  9.000E+00
      25     1     1     2     0     0 -9.475767187E+01 -1.360489442E+02 -1.052867017E+02  2.328059732E+02  1.250000000E+02  0.00000E+00  9.000E+00
      25     1     1     2     0     0  1.031837942E+02  6.157002396E+01  8.066246879E+01  1.912307431E+02  1.250000000E+02  0.00000E+00  9.000E+00
      21     1     1     2   511   501 -8.426122372E+00  7.447892024E+01 -4.280999585E+01  8.631804471E+01  1.168007728E-06  0.00000E+00  9.000E+00
#rwgt            1           1   3.7805013508944510E-002           2      419183           0
</event>
<event>
      5   9999  3.79277E-02  1.65571E+02 -1.00000E+00  1.14719E-01
      21    -1     0     0   502   501  0.000000000E+00  0.000000000E+00  3.061708676E+02  3.061708676E+02  0.000000000E+00  0.00000E+00  9.000E+00
      21    -1     0     0   501   512  0.000000000E+00  0.000000000E+00 -5.153197830E+02  5.153197830E+02  0.000000000E+00  0.00000E+00  9.000E+00
      25     1     1     2     0     0  4.887504381E+01  1.983542813E+02 -2.759640628E+01  2.410803859E+02  1.250000000E+02  0.00000E+00  9.000E+00
      25     1     1     2     0     0  1.040127831E+02 -1.348005317E+02  1.151985819E+02  2.405941722E+02  1.250000000E+02  0.00000E+00  9.000E+00
      21     1     1     2   502   512 -1.528878269E+02 -6.355374955E+01 -2.967510911E+02  3.398160925E+02  0.000000000E+00  0.00000E+00  9.000E+00
#rwgt            1           1   3.7649764204160066E-002           2      419274           0
</event>
<event>
      5   9999  3.79277E-02  9.85006E+01 -1.00000E+00  1.24124E-01
      21    -1     0     0   502   501  0.000000000E+00  0.000000000E+00  3.831936171E+02  3.831936171E+02  0.000000000E+00  0.00000E+00  9.000E+00
       1    -1     0     0   501     0  0.000000000E+00  0.000000000E+00 -7.906389373E+02  7.906389373E+02  0.000000000E+00  0.00000E+00  9.000E+00
      25     1     1     2     0     0 -1.792722896E+02  2.693747743E+02  1.982865322E+01  3.474471159E+02  1.250000000E+02  0.00000E+00  9.000E+00
      25     1     1     2     0     0  2.274101452E+02 -3.553114822E+02 -5.751094966E+01  4.437275435E+02  1.250000000E+02  0.00000E+00  9.000E+00
       1     1     1     2   502     0 -4.813785552E+01  8.593670796E+01 -3.697630238E+02  3.826578951E+02  5.394796609E-06  0.00000E+00  9.000E+00
#rwgt            1           1   4.5728605614155697E-002           2      419412           0
</event>
<event>
      5   9999  3.79277E-02  2.20655E+01 -1.00000E+00  1.62923E-01
      21    -1     0     0   511   501  0.000000000E+00  0.000000000E+00  5.747428210E+02  5.747428210E+02  0.000000000E+00  0.00000E+00  9.000E+00
      21    -1     0     0   501   502  0.000000000E+00  0.000000000E+00 -9.008119401E+01  9.008119401E+01  0.000000000E+00  0.00000E+00  9.000E+00
      25     1     1     2     0     0  1.284172578E+01 -1.211198118E+02  3.919504999E+01  1.788747346E+02  1.250000000E+02  0.00000E+00  9.000E+00
      25     1     1     2     0     0  8.923977238E+00  1.174951359E+02  3.851364970E+02  4.217106421E+02  1.250000000E+02  0.00000E+00  9.000E+00
      21     1     1     2   511   502 -2.176570302E+01  3.624675830E+00  6.033007997E+01  6.423863831E+01  1.168007728E-06  0.00000E+00  9.000E+00
#rwgt            1           1   4.9765455964766267E-002           2      419508           0
</event>
<event>
      5   9999  3.79277E-02  2.54473E+01 -1.00000E+00  1.58176E-01
      21    -1     0     0   502   501  0.000000000E+00  0.000000000E+00  8.503246756E+02  8.503246756E+02  0.000000000E+00  0.00000E+00  9.000E+00
      21    -1     0     0   512   502  0.000000000E+00  0.000000000E+00 -4.778191663E+01  4.778191663E+01  0.000000000E+00  0.00000E+00  9.000E+00
      25     1     1     2     0     0  3.764088831E+00  1.103135425E+02  5.026306540E+02  5.295713553E+02  1.250000000E+02  0.00000E+00  9.000E+00
      25     1     1     2     0     0 -2.910731295E+01 -1.080148387E+02  2.992731449E+02  3.430799561E+02  1.250000000E+02  0.00000E+00  9.000E+00
      21     1     1     2   512   501  2.534322412E+01 -2.298703772E+00  6.389600570E-01  2.545528074E+01  5.553057222E-07  0.00000E+00  9.000E+00
#rwgt            1           1   4.1810954772733652E-002           2      419745           0
</event>
<event>
      5   9999  3.79277E-02  9.66888E+01 -1.00000E+00  1.24489E-01
      21    -1     0     0   502   501  0.000000000E+00  0.000000000E+00  4.607392725E+02  4.607392725E+02  0.000000000E+00  0.00000E+00  9.000E+00
      21    -1     0     0   511   502  0.000000000E+00  0.000000000E+00 -1.629672450E+02  1.629672450E+02  0.000000000E+00  0.00000E+00  9.000E+00
      25     1     1     2     0     0  2.209456363E+02  1.088601253E+01  6.801044554E+01  2.630321276E+02  1.250000000E+02  0.00000E+00  9.000E+00
      25     1     1     2     0     0 -1.242948092E+02 -1.359722000E+01  1.784904022E+02  2.512327759E+02  1.250000000E+02  0.00000E+00  9.000E+00
      21     1     1     2   511   501 -9.665082708E+01  2.711207476E+00  5.127117976E+01  1.094416141E+02  1.507891493E-06  0.00000E+00  9.000E+00
#rwgt            1           1   4.5846663669504038E-002           2      419824           0
</event>
<event>
      5   9999  3.79277E-02  6.66245E+01 -1.00000E+00  1.32317E-01
      21    -1     0     0   502   501  0.000000000E+00  0.000000000E+00  5.210898459E+02  5.210898459E+02  0.000000000E+00  0.00000E+00  9.000E+00
      21    -1     0     0   512   502  0.000000000E+00  0.000000000E+00 -3.998918354E+02  3.998918354E+02  0.000000000E+00  0.00000E+00  9.000E+00
      25     1     1     2     0     0  6.090502273E+01  5.286775054E+01  9.458239054E+01  1.762817331E+02  1.250000000E+02  0.00000E+00  9.000E+00
      25     1     1     2     0     0 -1.045200811E+02 -1.032318918E+02  3.580145570E+02  4.066702520E+02  1.250000000E+02  0.00000E+00  9.000E+00
      21     1     1     2   512   501  4.361505839E+01  5.036414129E+01 -3.313989370E+02  3.380296961E+02  0.000000000E+00  0.00000E+00  9.000E+00
#rwgt            1           1   4.4623178565486629E-002           2      419980           0
</event>
<event>
      5   9999 -3.79277E-02  1.53545E+02 -1.00000E+00  1.15993E-01
      21    -1     0     0   502   511  0.000000000E+00  0.000000000E+00  6.711215891E+02  6.711215891E+02  0.000000000E+00  0.00000E+00  9.000E+00
      21    -1     0     0   501   502  0.000000000E+00  0.000000000E+00 -4.023811857E+02  4.023811857E+02  0.000000000E+00  0.00000E+00  9.000E+00
      25     1     1     2     0     0  1.421170777E+02 -2.057523892E+02 -1.194575383E+01  2.798196035E+02  1.250000000E+02  0.00000E+00  9.000E+00
      25     1     1     2     0     0 -7.324593086E+01  6.851910803E+01 -2.187506030E+02  2.711764386E+02  1.250000000E+02  0.00000E+00  9.000E+00
      21     1     1     2   501   511 -6.887114680E+01  1.372332812E+02  4.994367602E+02  5.225067327E+02  7.629394531E-06  0.00000E+00  9.000E+00
#rwgt            1           1  -8.9305243512580679E-002           2      420125           0
</event>
<event>
      5   9999  3.79277E-02  1.87928E+02 -1.00000E+00  1.12641E-01
      21    -1     0     0   502   512  0.000000000E+00  0.000000000E+00  1.197754682E+02  1.197754682E+02  0.000000000E+00  0.00000E+00  9.000E+00
      21    -1     0     0   501   502  0.000000000E+00  0.000000000E+00 -1.149599498E+03  1.149599498E+03  0.000000000E+00  0.00000E+00  9.000E+00
      25     1     1     2     0     0 -9.695477600E+01  9.219842796E+01 -4.435153990E+02  4.798246429E+02  1.250000000E+02  0.00000E+00  9.000E+00
      25     1     1     2     0     0  1.488898397E+02 -2.728078985E+02 -4.301915514E+02  5.452358249E+02  1.250000000E+02  0.00000E+00  9.000E+00
      21     1     1     2   501   512 -5.193506366E+01  1.806094705E+02 -1.561170794E+02  2.443144985E+02  3.814697266E-06  0.00000E+00  9.000E+00
#rwgt            2          11   1.9840843404619743E-003           2      420378           0
</event>
<event>
      5   9999  3.79277E-02  2.56601E+01 -1.00000E+00  1.57908E-01
      21    -1     0     0   502   501  0.000000000E+00  0.000000000E+00  2.796633599E+02  2.796633599E+02  0.000000000E+00  0.00000E+00  9.000E+00
      21    -1     0     0   511   502  0.000000000E+00  0.000000000E+00 -3.702572612E+02  3.702572612E+02  0.000000000E+00  0.00000E+00  9.000E+00
      25     1     1     2     0     0 -2.710182067E+01  2.608460219E+02 -1.113206896E+02  3.111148530E+02  1.250000000E+02  0.00000E+00  9.000E+00
      25     1     1     2     0     0  4.703610843E+01 -2.770035689E+02  3.489634338E+01  3.094933399E+02  1.250000000E+02  0.00000E+00  9.000E+00
      21     1     1     2   511   501 -1.993428776E+01  1.615754702E+01 -1.416955516E+01  2.931242821E+01  4.129530925E-07  0.00000E+00  9.000E+00
#rwgt            1           1   3.5178830603098225E-002           2      420473           0
</event>
<event>
      5   9999  3.79277E-02  3.91286E+01 -1.00000E+00  1.45436E-01
      21    -1     0     0   502   501  0.000000000E+00  0.000000000E+00  1.918963858E+02  1.918963858E+02  0.000000000E+00  0.00000E+00  9.000E+00
      21    -1     0     0   501   512  0.000000000E+00  0.000000000E+00 -5.593612192E+02  5.593612192E+02  0.000000000E+00  0.00000E+00  9.000E+00
      25     1     1     2     0     0  6.113339278E+01  1.650119546E+01  1.430781890E+02  2.002646982E+02  1.250000000E+02  0.00000E+00  9.000E+00
      25     1     1     2     0     0 -7.759214588E+01 -5.199985410E+01 -4.673471181E+02  4.927097064E+02  1.250000000E+02  0.00000E+00  9.000E+00
      21     1     1     2   502   512  1.645875310E+01  3.549865863E+01 -4.319590422E+01  5.828320049E+01  8.259061849E-07  0.00000E+00  9.000E+00
#rwgt            1           1   3.9640317280276616E-002           2      420663           0
</event>
<event>
      5   9999  3.79277E-02  4.34643E+01 -1.00000E+00  1.42638E-01
      21    -1     0     0   502   511  0.000000000E+00  0.000000000E+00  6.914168106E+01  6.914168106E+01  0.000000000E+00  0.00000E+00  9.000E+00
      21    -1     0     0   501   502  0.000000000E+00  0.000000000E+00 -2.195646279E+03  2.195646279E+03  0.000000000E+00  0.00000E+00  9.000E+00
      25     1     1     2     0     0  1.631532871E+02  5.323400970E+01 -4.345306976E+02  4.836266969E+02  1.250000000E+02  0.00000E+00  9.000E+00
      25     1     1     2     0     0 -1.536604969E+02 -1.081898381E+01 -1.718717566E+03  1.730128223E+03  1.250000000E+02  0.00000E+00  9.000E+00
      21     1     1     2   501   511 -9.492790184E+00 -4.241502589E+01  2.674366547E+01  5.103303959E+01  1.469710828E-06  0.00000E+00  9.000E+00
#rwgt            1           1  0.10089112664483066                2      420790           0
</event>
<event>
      5   9999  3.79277E-02  6.03654E+01 -1.00000E+00  1.34563E-01
      21    -1     0     0   502   501  0.000000000E+00  0.000000000E+00  7.727137174E+01  7.727137174E+01  0.000000000E+00  0.00000E+00  9.000E+00
      21    -1     0     0   512   502  0.000000000E+00  0.000000000E+00 -2.842724080E+03  2.842724080E+03  0.000000000E+00  0.00000E+00  9.000E+00
      25     1     1     2     0     0  1.606030281E+02  1.655523834E+02 -2.187918794E+03  2.203591290E+03  1.250000000E+02  0.00000E+00  9.000E+00
      25     1     1     2     0     0 -1.017112033E+02 -1.788089855E+02 -1.478341665E+02  2.824849783E+02  1.250000000E+02  0.00000E+00  9.000E+00
      21     1     1     2   512   501 -5.889182476E+01  1.325660217E+01 -4.296997480E+02  4.339191836E+02  5.394796609E-06  0.00000E+00  9.000E+00
#rwgt            1           1  0.12307092543605855                2      420933           0
</event>
<event>
      5   9999  3.79277E-02  1.28175E+02 -1.00000E+00  1.19166E-01
      21    -1     0     0   502   501  0.000000000E+00  0.000000000E+00  1.150843715E+02  1.150843715E+02  0.000000000E+00  0.00000E+00  9.000E+00
      21    -1     0     0   511   502  0.000000000E+00  0.000000000E+00 -9.957229162E+02  9.957229162E+02  0.000000000E+00  0.00000E+00  9.000E+00
      25     1     1     2     0     0 -4.610924700E+00  1.766724132E+02 -1.234410948E+02  2.491929094E+02  1.250000000E+02  0.00000E+00  9.000E+00
      25     1     1     2     0     0  1.258954587E+02 -2.181316168E+02 -4.815969061E+02  5.576662521E+02  1.250000000E+02  0.00000E+00  9.000E+00
      21     1     1     2   511   501 -1.212845340E+02  4.145920361E+01 -2.756005438E+02  3.039481263E+02  0.000000000E+00  0.00000E+00  9.000E+00
#rwgt            1           1   4.1919984788007431E-002           2      421073           0
</event>
<event>
      5   9999  3.79277E-02  6.56734E+01 -1.00000E+00  1.32640E-01
      21    -1     0     0   502   512  0.000000000E+00  0.000000000E+00  1.204225837E+02  1.204225837E+02  0.000000000E+00  0.00000E+00  9.000E+00
      21    -1     0     0   501   502  0.000000000E+00  0.000000000E+00 -4.683887595E+02  4.683887595E+02  0.000000000E+00  0.00000E+00  9.000E+00
      25     1     1     2     0     0 -4.027149592E+00  1.345600256E+02 -1.321039561E+02  2.262721230E+02  1.250000000E+02  0.00000E+00  9.000E+00
      25     1     1     2     0     0 -4.186300685E+01 -1.815396723E+02 -1.805120971E+02  2.879562140E+02  1.250000000E+02  0.00000E+00  9.000E+00
      21     1     1     2   501   512  4.589015644E+01  4.697964663E+01 -3.535012251E+01  7.458300622E+01  1.430511475E-06  0.00000E+00  9.000E+00
#rwgt            1           1   4.3925935724918368E-002           2      421237           0
</event>
<event>
      5   9999  3.79277E-02  4.64057E+01 -1.00000E+00  1.40950E-01
      21    -1     0     0   502   501  0.000000000E+00  0.000000000E+00  4.318854600E+02  4.318854600E+02  0.000000000E+00  0.00000E+00  9.000E+00
      21    -1     0     0   501   511  0.000000000E+00  0.000000000E+00 -1.094652929E+02  1.094652929E+02  0.000000000E+00  0.00000E+00  9.000E+00
      25     1     1     2     0     0 -1.403309183E+02  5.896032402E+01  1.072659981E+02  2.242767950E+02  1.250000000E+02  0.00000E+00  9.000E+00
      25     1     1     2     0     0  1.038896099E+02 -8.769214871E+01  1.868465574E+02  2.627158160E+02  1.250000000E+02  0.00000E+00  9.000E+00
      21     1     1     2   502   511  3.644130845E+01  2.873182469E+01  2.830761162E+01  5.435814187E+01  7.539457465E-07  0.00000E+00  9.000E+00
#rwgt            1           1   4.4127888764792740E-002           2      421341           0
</event>
<event>
      5   9999  3.79277E-02  9.67609E+01 -1.00000E+00  1.24475E-01
      21    -1     0     0   502   501  0.000000000E+00  0.000000000E+00  2.130065424E+02  2.130065424E+02  0.000000000E+00  0.00000E+00  9.000E+00
       5    -1     0     0   501     0  0.000000000E+00  0.000000000E+00 -4.325820319E+02  4.325820319E+02  0.000000000E+00  0.00000E+00  9.000E+00
      25     1     1     2     0     0  1.391467680E+02 -6.062900233E+01 -8.298759912E+01  2.134236176E+02  1.250000000E+02  0.00000E+00  9.000E+00
      25     1     1     2     0     0 -2.272576982E+02  2.063977914E+01  5.516903260E+00  2.602450731E+02  1.250000000E+02  0.00000E+00  9.000E+00
       5     1     1     2   502     0  8.811093024E+01  3.998922318E+01 -1.421047936E+02  1.719198836E+02  0.000000000E+00  0.00000E+00  9.000E+00
#rwgt            1           1   3.8327892423971791E-002           2      421402           0
</event>
<event>
      5   9999  3.79277E-02  6.91182E+00 -1.00000E+00  2.16335E-01
      21    -1     0     0   502   501  0.000000000E+00  0.000000000E+00  5.569490779E+02  5.569490779E+02  0.000000000E+00  0.00000E+00  9.000E+00
      21    -1     0     0   511   502  0.000000000E+00  0.000000000E+00 -1.828229330E+02  1.828229330E+02  0.000000000E+00  0.00000E+00  9.000E+00
      25     1     1     2     0     0 -2.204184156E+02 -7.254837923E+01  1.728726696E+01  2.641427547E+02  1.250000000E+02  0.00000E+00  9.000E+00
      25     1     1     2     0     0  2.272651414E+02  7.349473202E+01  3.717406300E+02  4.592025873E+02  1.250000000E+02  0.00000E+00  9.000E+00
      21     1     1     2   511   501 -6.846725844E+00 -9.463527899E-01 -1.490175211E+01  1.642666900E+01  3.769728732E-07  0.00000E+00  9.000E+00
#rwgt            1           1   3.7011960368696133E-002           2      421578           0
</event>
<event>
      5   9999  3.79277E-02  3.38773E+01 -1.00000E+00  1.49462E-01
      21    -1     0     0   502   501  0.000000000E+00  0.000000000E+00  4.369692005E+02  4.369692005E+02  0.000000000E+00  0.00000E+00  9.000E+00
      21    -1     0     0   501   512  0.000000000E+00  0.000000000E+00 -6.957199421E+02  6.957199421E+02  0.000000000E+00  0.00000E+00  9.000E+00
      25     1     1     2     0     0  3.858582794E+02 -1.133843671E+02  1.607635564E+02  4.507910243E+02  1.250000000E+02  0.00000E+00  9.000E+00
      25     1     1     2     0     0 -4.009590749E+02  1.437098466E+02 -2.508678051E+02  5.098826879E+02  1.250000000E+02  0.00000E+00  9.000E+00
      21     1     1     2   502   512  1.510079549E+01 -3.032547947E+01 -1.686464929E+02  1.720154304E+02  1.907348633E-06  0.00000E+00  9.000E+00
#rwgt            1           1  0.21428819370815697                2      421937           0
</event>
<event>
      5   9999  3.79277E-02  9.17604E+01 -1.00000E+00  1.25531E-01
      21    -1     0     0   502   501  0.000000000E+00  0.000000000E+00  2.081629899E+02  2.081629899E+02  0.000000000E+00  0.00000E+00  9.000E+00
      21    -1     0     0   511   502  0.000000000E+00  0.000000000E+00 -5.967159866E+02  5.967159866E+02  0.000000000E+00  0.00000E+00  9.000E+00
      25     1     1     2     0     0 -1.738821695E+02  4.877338191E+01 -2.037156884E+02  2.995645730E+02  1.250000000E+02  0.00000E+00  9.000E+00
      25     1     1     2     0     0  1.736065230E+02  4.298663498E+01  7.422531807E+01  2.304809611E+02  1.250000000E+02  0.00000E+00  9.000E+00
      21     1     1     2   511   501  2.756465762E-01 -9.176001689E+01 -2.590626264E+02  2.748334424E+02  3.814697266E-06  0.00000E+00  9.000E+00
#rwgt            1           1   2.9097738635594700E-002           2      422278           0
</event>
<event>
      5   9999  3.79277E-02  6.14504E+01 -1.00000E+00  1.34151E-01
      21    -1     0     0   502   501  0.000000000E+00  0.000000000E+00  8.357919148E+01  8.357919148E+01  0.000000000E+00  0.00000E+00  9.000E+00
      21    -1     0     0   512   502  0.000000000E+00  0.000000000E+00 -4.585183400E+02  4.585183400E+02  0.000000000E+00  0.00000E+00  9.000E+00
      25     1     1     2     0     0 -4.459088032E+01  1.218595670E+01 -2.171493271E+02  2.547855459E+02  1.250000000E+02  0.00000E+00  9.000E+00
      25     1     1     2     0     0  7.766324858E+01 -6.397754726E+01 -5.900083865E+01  1.709701895E+02  1.250000000E+02  0.00000E+00  9.000E+00
      21     1     1     2   512   501 -3.307236826E+01  5.179159055E+01 -9.878898282E+01  1.163417961E+02  1.348699152E-06  0.00000E+00  9.000E+00
#rwgt            1           1   4.7349266403500269E-002           2      422461           0
</event>
<event>
      5   9999  3.79277E-02  1.79254E+02 -1.00000E+00  1.13407E-01
      21    -1     0     0   502   511  0.000000000E+00  0.000000000E+00  1.861120918E+02  1.861120918E+02  0.000000000E+00  0.00000E+00  9.000E+00
      21    -1     0     0   501   502  0.000000000E+00  0.000000000E+00 -7.118295938E+02  7.118295938E+02  0.000000000E+00  0.00000E+00  9.000E+00
      25     1     1     2     0     0 -4.178200044E+01 -8.857079446E+01  2.229420058E+01  1.603513410E+02  1.250000000E+02  0.00000E+00  9.000E+00
      25     1     1     2     0     0  7.055460456E+00  2.644283790E+02 -4.397427788E+02  5.281769198E+02  1.250000000E+02  0.00000E+00  9.000E+00
      21     1     1     2   501   511  3.472653999E+01 -1.758575845E+02 -1.082689239E+02  2.094134248E+02  3.303624740E-06  0.00000E+00  9.000E+00
#rwgt            1           1   4.3701345360319124E-002           2      422551           0
</event>
<event>
      5   9999  3.79277E-02  5.14303E+01 -1.00000E+00  1.38380E-01
      21    -1     0     0   502   501  0.000000000E+00  0.000000000E+00  5.616718860E+01  5.616718860E+01  0.000000000E+00  0.00000E+00  9.000E+00
      21    -1     0     0   512   502  0.000000000E+00  0.000000000E+00 -1.050854971E+03  1.050854971E+03  0.000000000E+00  0.00000E+00  9.000E+00
      25     1     1     2     0     0  3.086187597E+01  8.981884077E+01 -8.648430511E+01  1.792328502E+02  1.250000000E+02  0.00000E+00  9.000E+00
      25     1     1     2     0     0 -4.327759047E+01 -3.990965392E+01 -6.544130778E+02  6.688401952E+02  1.250000000E+02  0.00000E+00  9.000E+00
      21     1     1     2   512   501  1.241571450E+01 -4.990918685E+01 -2.537903999E+02  2.589491146E+02  3.814697266E-06  0.00000E+00  9.000E+00
#rwgt            1           1   3.3455300215781553E-002           2      422692           0
</event>
<event>
      5   9999  3.79277E-02  3.45585E+01 -1.00000E+00  1.48892E-01
      21    -1     0     0   502   501  0.000000000E+00  0.000000000E+00  5.490340541E+01  5.490340541E+01  0.000000000E+00  0.00000E+00  9.000E+00
       2    -1     0     0   501     0  0.000000000E+00  0.000000000E+00 -2.271263247E+03  2.271263247E+03  0.000000000E+00  0.00000E+00  9.000E+00
      25     1     1     2     0     0  1.111016796E+01 -5.604401605E+01 -6.578215273E+01  1.523701388E+02  1.250000000E+02  0.00000E+00  9.000E+00
      25     1     1     2     0     0 -5.587877824E+00  9.015848635E+01 -5.089104592E+02  5.317655805E+02  1.250000000E+02  0.00000E+00  9.000E+00
       2     1     1     2   502     0 -5.522290133E+00 -3.411447030E+01 -1.641667230E+03  1.642030933E+03  2.157918644E-05  0.00000E+00  9.000E+00
#rwgt            1           1   4.7511961193193696E-002           2      422812           0
</event>
<event>
      5   9999  3.79277E-02  1.91858E+02 -1.00000E+00  1.12309E-01
      21    -1     0     0   511   501  0.000000000E+00  0.000000000E+00  1.007703910E+03  1.007703910E+03  0.000000000E+00  0.00000E+00  9.000E+00
      21    -1     0     0   501   502  0.000000000E+00  0.000000000E+00 -3.788498571E+02  3.788498571E+02  0.000000000E+00  0.00000E+00  9.000E+00
      25     1     1     2     0     0 -6.708850103E+01 -3.072485443E+01  2.029780392E+02  2.495395120E+02  1.250000000E+02  0.00000E+00  9.000E+00
      25     1     1     2     0     0 -1.245372100E+02  2.128321163E+01 -3.204422652E+02  3.664297165E+02  1.250000000E+02  0.00000E+00  9.000E+00
      21     1     1     2   511   502  1.916257111E+02  9.441642792E+00  7.463182794E+02  7.705845391E+02  1.078959322E-05  0.00000E+00  9.000E+00
#rwgt            1           1   2.5343266706683618E-002           2      422914           0
</event>
<event>
      5   9999  3.79277E-02  2.24809E+01 -1.00000E+00  1.62285E-01
      21    -1     0     0   502   501  0.000000000E+00  0.000000000E+00  5.980526185E+01  5.980526185E+01  0.000000000E+00  0.00000E+00  9.000E+00
      21    -1     0     0   501   512  0.000000000E+00  0.000000000E+00 -1.187268467E+03  1.187268467E+03  0.000000000E+00  0.00000E+00  9.000E+00
      25     1     1     2     0     0  1.206685061E+02 -5.574099702E+01 -8.964407487E+02  9.148218204E+02  1.250000000E+02  0.00000E+00  9.000E+00
      25     1     1     2     0     0 -1.395556129E+02  6.793401671E+01 -1.535448242E+02  2.515786413E+02  1.250000000E+02  0.00000E+00  9.000E+00
      21     1     1     2   502   512  1.888710679E+01 -1.219301969E+01 -7.747763181E+01  8.067326672E+01  1.651812370E-06  0.00000E+00  9.000E+00
#rwgt            1           1   3.1621654720958431E-002           2      422998           0
</event>
<event>
      5   9999  3.79277E-02  1.87511E+01 -1.00000E+00  1.68713E-01
      21    -1     0     0   502   501  0.000000000E+00  0.000000000E+00  5.241334727E+02  5.241334727E+02  0.000000000E+00  0.00000E+00  9.000E+00
      21    -1     0     0   501   511  0.000000000E+00  0.000000000E+00 -7.305148754E+01  7.305148754E+01  0.000000000E+00  0.00000E+00  9.000E+00
      25     1     1     2     0     0  3.411876658E+01 -8.904271569E+01  8.247092727E+01  1.775363323E+02  1.250000000E+02  0.00000E+00  9.000E+00
      25     1     1     2     0     0 -1.927222734E+01  1.004962876E+02  3.668162963E+02  4.008118234E+02  1.250000000E+02  0.00000E+00  9.000E+00
      21     1     1     2   502   511 -1.484653923E+01 -1.145357186E+01  1.794761620E+00  1.883680453E+01  3.436971484E-07  0.00000E+00  9.000E+00
#rwgt            1           1   2.4863805189685159E-002           2      423190           0
</event>
<event>
      5   9999 -3.79277E-02  2.58366E+01 -1.00000E+00  1.57688E-01
      21    -1     0     0   502   512  0.000000000E+00  0.000000000E+00  2.031618180E+03  2.031618180E+03  0.000000000E+00  0.00000E+00  9.000E+00
      21    -1     0     0   501   502  0.000000000E+00  0.000000000E+00 -2.431414346E+01  2.431414346E+01  0.000000000E+00  0.00000E+00  9.000E+00
      25     1     1     2     0     0  5.407272457E+01  1.517571463E+02  7.125838721E+02  7.411847717E+02  1.250000000E+02  0.00000E+00  9.000E+00
      25     1     1     2     0     0 -2.829757040E+01 -1.499763828E+02  1.026439973E+03  1.045226141E+03  1.250000000E+02  0.00000E+00  9.000E+00
      21     1     1     2   501   512 -2.577515418E+01 -1.780763491E+00  2.682801912E+02  2.695214104E+02  5.394796609E-06  0.00000E+00  9.000E+00
#rwgt            1           1  -2.7361521459862825E-002           2      423389           0
</event>
<event>
      5   9999  3.79277E-02  2.10566E+01 -1.00000E+00  1.64545E-01
      21    -1     0     0   502   501  0.000000000E+00  0.000000000E+00  9.827817430E+02  9.827817430E+02  0.000000000E+00  0.00000E+00  9.000E+00
      21    -1     0     0   501   511  0.000000000E+00  0.000000000E+00 -4.802570864E+01  4.802570864E+01  0.000000000E+00  0.00000E+00  9.000E+00
      25     1     1     2     0     0 -5.561966959E+01 -1.292031997E+02  5.828443164E+02  6.124700087E+02  1.250000000E+02  0.00000E+00  9.000E+00
      25     1     1     2     0     0  5.759487406E+01  1.501669057E+02  3.310373136E+02  3.886874993E+02  1.250000000E+02  0.00000E+00  9.000E+00
      21     1     1     2   502   511 -1.975204476E+00 -2.096370597E+01  2.087440438E+01  2.964994366E+01  2.384185791E-07  0.00000E+00  9.000E+00
#rwgt            1           1   2.6460730090382797E-002           2      423576           0
</event>
<event>
      5   9999  3.79277E-02  8.67772E+00 -1.00000E+00  2.03158E-01
      21    -1     0     0   502   501  0.000000000E+00  0.000000000E+00  1.217082124E+03  1.217082124E+03  0.000000000E+00  0.00000E+00  9.000E+00
      21    -1     0     0   501   512  0.000000000E+00  0.000000000E+00 -1.950289512E+02  1.950289512E+02  0.000000000E+00  0.00000E+00  9.000E+00
      25     1     1     2     0     0  2.092529844E+01  1.067455699E+02  2.176572550E+02  2.735546846E+02  1.250000000E+02  0.00000E+00  9.000E+00
      25     1     1     2     0     0 -1.248297828E+01 -1.087530768E+02  9.642529476E+02  9.784640021E+02  1.250000000E+02  0.00000E+00  9.000E+00
      21     1     1     2   502   512 -8.442320161E+00  2.007506897E+00 -1.598570298E+02  1.600923884E+02  4.672030912E-06  0.00000E+00  9.000E+00
#rwgt            1           1   3.3892082902940129E-002           2      423771           0
</event>
<event>
      5   9999  3.79277E-02  1.71951E+01 -1.00000E+00  1.71972E-01
      21    -1     0     0   502   501  0.000000000E+00  0.000000000E+00  1.026847305E+02  1.026847305E+02  0.000000000E+00  0.00000E+00  9.000E+00
      21    -1     0     0   511   502  0.000000000E+00  0.000000000E+00 -6.608041574E+02  6.608041574E+02  0.000000000E+00  0.00000E+00  9.000E+00
      25     1     1     2     0     0  1.861967961E+02 -1.087260574E+02 -1.938746687E+02  3.157578021E+02  1.250000000E+02  0.00000E+00  9.000E+00
      25     1     1     2     0     0 -1.707949973E+02  1.163716141E+02 -3.253483868E+02  4.052034753E+02  1.250000000E+02  0.00000E+00  9.000E+00
      21     1     1     2   511   501 -1.540179884E+01 -7.645556683E+00 -3.889637142E+01  4.252761050E+01  4.768371582E-07  0.00000E+00  9.000E+00
#rwgt            1           1  0.10910006163157994                2      423984           0
</event>
<event>
      5   9999  3.79277E-02  7.23563E+01 -1.00000E+00  1.30497E-01
      21    -1     0     0   502   512  0.000000000E+00  0.000000000E+00  3.024333714E+02  3.024333714E+02  0.000000000E+00  0.00000E+00  9.000E+00
      21    -1     0     0   501   502  0.000000000E+00  0.000000000E+00 -3.196504635E+02  3.196504635E+02  0.000000000E+00  0.00000E+00  9.000E+00
      25     1     1     2     0     0  1.152867233E+02  8.962675045E+01 -1.367976602E+02  2.359291902E+02  1.250000000E+02  0.00000E+00  9.000E+00
      25     1     1     2     0     0 -1.833401771E+02 -1.142064485E+02  3.761408949E+00  2.495914294E+02  1.250000000E+02  0.00000E+00  9.000E+00
      21     1     1     2   501   512  6.805345379E+01  2.457969807E+01  1.158191592E+02  1.365632153E+02  0.000000000E+00  0.00000E+00  9.000E+00
#rwgt            1           1   4.6587744328528274E-002           2      424320           0
</event>
<event>
      5   9999  3.79277E-02  3.94132E+00 -1.00000E+00  2.64992E-01
      21    -1     0     0   502   501  0.000000000E+00  0.000000000E+00  4.044359925E+02  4.044359925E+02  0.000000000E+00  0.00000E+00  9.000E+00
      21    -1     0     0   511   502  0.000000000E+00  0.000000000E+00 -1.185465426E+02  1.185465426E+02  0.000000000E+00  0.00000E+00  9.000E+00
      25     1     1     2     0     0  9.861885401E+01 -4.144817561E+01  2.904789050E+02  3.338362231E+02  1.250000000E+02  0.00000E+00  9.000E+00
      25     1     1     2     0     0 -1.007713444E+02  4.474980431E+01  1.668156104E+01  1.675132332E+02  1.250000000E+02  0.00000E+00  9.000E+00
      21     1     1     2   511   501  2.152490355E+00 -3.301628700E+00 -2.127101616E+01  2.163307873E+01  0.000000000E+00  0.00000E+00  9.000E+00
#rwgt            1           1   4.7727874274010380E-002           2      424486           0
</event>
<event>
      5   9999  3.79277E-02  2.32323E+01 -1.00000E+00  1.61174E-01
      21    -1     0     0   502   501  0.000000000E+00  0.000000000E+00  1.497244809E+02  1.497244809E+02  0.000000000E+00  0.00000E+00  9.000E+00
      21    -1     0     0   512   502  0.000000000E+00  0.000000000E+00 -5.158764387E+02  5.158764387E+02  0.000000000E+00  0.00000E+00  9.000E+00
      25     1     1     2     0     0 -3.942969695E+01 -2.344662198E+02 -1.976139637E+02  3.334747185E+02  1.250000000E+02  0.00000E+00  9.000E+00
      25     1     1     2     0     0  4.078668916E+01  2.112736018E+02 -1.157471968E+02  2.744494532E+02  1.250000000E+02  0.00000E+00  9.000E+00
      21     1     1     2   512   501 -1.356992204E+00  2.319261809E+01 -5.279079734E+01  5.767674787E+01  6.743495762E-07  0.00000E+00  9.000E+00
#rwgt            1           1   3.4528517775509339E-002           2      424927           0
</event>
<event>
      5   9999  3.79277E-02  5.63942E+01 -1.00000E+00  1.36158E-01
      21    -1     0     0   502   501  0.000000000E+00  0.000000000E+00  6.000498351E+02  6.000498351E+02  0.000000000E+00  0.00000E+00  9.000E+00
      21    -1     0     0   511   502  0.000000000E+00  0.000000000E+00 -6.033091025E+02  6.033091025E+02  0.000000000E+00  0.00000E+00  9.000E+00
      25     1     1     2     0     0  5.255028987E+01  7.062981509E+01  4.743341811E+02  4.983653470E+02  1.250000000E+02  0.00000E+00  9.000E+00
      25     1     1     2     0     0 -6.576449305E+01 -1.580561661E+01  6.725417935E+01  1.572352082E+02  1.250000000E+02  0.00000E+00  9.000E+00
      21     1     1     2   511   501  1.321420317E+01 -5.482419848E+01 -5.448476278E+02  5.477583823E+02  7.629394531E-06  0.00000E+00  9.000E+00
#rwgt            1           1   5.1937179283589659E-002           2      425109           0
</event>
<event>
      5   9999  3.79277E-02  8.30004E+01 -1.00000E+00  1.27580E-01
      21    -1     0     0   502   501  0.000000000E+00  0.000000000E+00  3.144992935E+02  3.144992935E+02  0.000000000E+00  0.00000E+00  9.000E+00
      21    -1     0     0   501   512  0.000000000E+00  0.000000000E+00 -1.931785040E+02  1.931785040E+02  0.000000000E+00  0.00000E+00  9.000E+00
      25     1     1     2     0     0 -1.999989468E+01 -6.916973300E+01  1.408721050E+02  2.016293573E+02  1.250000000E+02  0.00000E+00  9.000E+00
      25     1     1     2     0     0 -2.126091094E+01  1.411878502E+02  5.167569731E+01  1.966759087E+02  1.250000000E+02  0.00000E+00  9.000E+00
      21     1     1     2   502   512  4.126080562E+01 -7.201811719E+01 -7.122701279E+01  1.093725315E+02  1.907348633E-06  0.00000E+00  9.000E+00
#rwgt            1           1   3.9641856715548471E-002           2      425197           0
</event>
<event>
      5   9999  3.79277E-02  4.92445E+01 -1.00000E+00  1.39454E-01
      21    -1     0     0   502   501  0.000000000E+00  0.000000000E+00  3.050940860E+02  3.050940860E+02  0.000000000E+00  0.00000E+00  9.000E+00
      21    -1     0     0   501   511  0.000000000E+00  0.000000000E+00 -1.954709359E+02  1.954709359E+02  0.000000000E+00  0.00000E+00  9.000E+00
      25     1     1     2     0     0 -2.938433725E+01  1.740528460E+02  8.942085493E+01  2.340489731E+02  1.250000000E+02  0.00000E+00  9.000E+00
      25     1     1     2     0     0  7.039022312E+01 -1.467850025E+02  4.684924921E+01  2.105242804E+02  1.250000000E+02  0.00000E+00  9.000E+00
      21     1     1     2   502   511 -4.100588587E+01 -2.726784350E+01 -2.664695407E+01  5.599176838E+01  1.168007728E-06  0.00000E+00  9.000E+00
#rwgt            1           1   3.6124750677523389E-002           2      425540           0
</event>
<event>
      5   9999  3.79277E-02  1.71576E+02 -1.00000E+00  1.14126E-01
      21    -1     0     0   502   501  0.000000000E+00  0.000000000E+00  8.647216625E+02  8.647216625E+02  0.000000000E+00  0.00000E+00  9.000E+00
      21    -1     0     0   512   502  0.000000000E+00  0.000000000E+00 -3.332358459E+02  3.332358459E+02  0.000000000E+00  0.00000E+00  9.000E+00
      25     1     1     2     0     0 -2.006925803E+02 -6.024737285E+01  3.922969266E+02  4.619839135E+02  1.250000000E+02  0.00000E+00  9.000E+00
      25     1     1     2     0     0  7.408549055E+01 -5.554979890E+01  3.969423934E+02  4.263363739E+02  1.250000000E+02  0.00000E+00  9.000E+00
      21     1     1     2   512   501  1.266070898E+02  1.157971717E+02 -2.577535033E+02  3.096372210E+02  6.607249480E-06  0.00000E+00  9.000E+00
#rwgt            2          11   5.8066348450169589E-003           2      425731           0
</event>
<event>
      5   9999  3.79277E-02  1.22199E+01 -1.00000E+00  1.86203E-01
      21    -1     0     0   511   501  0.000000000E+00  0.000000000E+00  6.932553267E+01  6.932553267E+01  0.000000000E+00  0.00000E+00  9.000E+00
      21    -1     0     0   501   502  0.000000000E+00  0.000000000E+00 -1.882276198E+03  1.882276198E+03  0.000000000E+00  0.00000E+00  9.000E+00
      25     1     1     2     0     0  3.197603104E+01  7.374019616E+01 -1.762227221E+03  1.768482361E+03  1.250000000E+02  0.00000E+00  9.000E+00
      25     1     1     2     0     0 -4.121511222E+01 -8.173808545E+01 -2.817965108E+01  1.574766422E+02  1.250000000E+02  0.00000E+00  9.000E+00
      21     1     1     2   511   502  9.239081183E+00  7.997889295E+00 -2.254379320E+01  2.564272735E+01  4.129530925E-07  0.00000E+00  9.000E+00
#rwgt            1           1   4.2049809720496045E-002           2      425931           0
</event>
<event>
      5   9999  3.79277E-02  2.42884E+02 -1.00000E+00  1.08660E-01
      21    -1     0     0   502   501  0.000000000E+00  0.000000000E+00  1.147409035E+03  1.147409035E+03  0.000000000E+00  0.00000E+00  9.000E+00
      -1    -1     0     0     0   502  0.000000000E+00  0.000000000E+00 -6.629604979E+02  6.629604979E+02  0.000000000E+00  0.00000E+00  9.000E+00
      25     1     1     2     0     0  2.347318447E+02  8.317417965E+01  3.344839578E+02  4.353406725E+02  1.250000000E+02  0.00000E+00  9.000E+00
      25     1     1     2     0     0  8.145897995E+00 -8.495346158E+01  7.303512407E+02  7.458695469E+02  1.250000000E+02  0.00000E+00  9.000E+00
      -1     1     1     2     0   501 -2.428777427E+02  1.779281928E+00 -5.803866619E+02  6.291593130E+02  1.078959322E-05  0.00000E+00  9.000E+00
#rwgt            2          10   4.9847950722301372E-004           2      426235           0
</event>
<event>
      5   9999  3.79277E-02  1.12429E+02 -1.00000E+00  1.21582E-01
      21    -1     0     0   502   501  0.000000000E+00  0.000000000E+00  1.390039234E+02  1.390039234E+02  0.000000000E+00  0.00000E+00  9.000E+00
      21    -1     0     0   511   502  0.000000000E+00  0.000000000E+00 -1.750245529E+03  1.750245529E+03  0.000000000E+00  0.00000E+00  9.000E+00
      25     1     1     2     0     0 -1.313057837E+02 -1.953076638E+02 -2.381255444E+02  3.573724489E+02  1.250000000E+02  0.00000E+00  9.000E+00
      25     1     1     2     0     0  1.895557602E+02  9.914550324E+01 -1.228156878E+02  2.765319334E+02  1.250000000E+02  0.00000E+00  9.000E+00
      21     1     1     2   511   501 -5.824997648E+01  9.616216059E+01 -1.250300374E+03  1.255345070E+03  0.000000000E+00  0.00000E+00  9.000E+00
#rwgt            1           1   3.4021785830261046E-002           2      426344           0
</event>
<event>
      5   9999  3.79277E-02  1.77714E+01 -1.00000E+00  1.70717E-01
      21    -1     0     0   512   501  0.000000000E+00  0.000000000E+00  5.093377722E+02  5.093377722E+02  0.000000000E+00  0.00000E+00  9.000E+00
      21    -1     0     0   501   502  0.000000000E+00  0.000000000E+00 -9.830308664E+01  9.830308664E+01  0.000000000E+00  0.00000E+00  9.000E+00
      25     1     1     2     0     0 -1.320151059E+02 -1.134368618E+02  2.188098643E+02  3.062656796E+02  1.250000000E+02  0.00000E+00  9.000E+00
      25     1     1     2     0     0  1.410172889E+02  9.811418736E+01  1.656306000E+02  2.693896159E+02  1.250000000E+02  0.00000E+00  9.000E+00
      21     1     1     2   512   502 -9.002183038E+00  1.532267443E+01  2.659422134E+01  3.198556330E+01  0.000000000E+00  0.00000E+00  9.000E+00
#rwgt            1           1   4.4540051237115581E-002           2      426444           0
</event>
<event>
      5   9999  3.79277E-02  5.16310E+01 -1.00000E+00  1.38285E-01
      21    -1     0     0   502   501  0.000000000E+00  0.000000000E+00  3.206823912E+02  3.206823912E+02  0.000000000E+00  0.00000E+00  9.000E+00
      21    -1     0     0   501   511  0.000000000E+00  0.000000000E+00 -2.011484887E+02  2.011484887E+02  0.000000000E+00  0.00000E+00  9.000E+00
      25     1     1     2     0     0 -1.617617598E+02 -1.072223746E+02  1.079362729E+02  2.548308136E+02  1.250000000E+02  0.00000E+00  9.000E+00
      25     1     1     2     0     0  1.113655646E+02  9.599802924E+01  5.376963421E+01  2.003349300E+02  1.250000000E+02  0.00000E+00  9.000E+00
      21     1     1     2   502   511  5.039619520E+01  1.122434532E+01 -4.217200463E+01  6.666513626E+01  9.536743164E-07  0.00000E+00  9.000E+00
#rwgt            1           1   3.8108519454675617E-002           2      426671           0
</event>
<event>
      5   9999  3.79277E-02  1.27871E+01 -1.00000E+00  1.84173E-01
      21    -1     0     0   502   512  0.000000000E+00  0.000000000E+00  3.843059887E+01  3.843059887E+01  0.000000000E+00  0.00000E+00  9.000E+00
      21    -1     0     0   501   502  0.000000000E+00  0.000000000E+00 -1.638676009E+03  1.638676009E+03  0.000000000E+00  0.00000E+00  9.000E+00
      25     1     1     2     0     0 -1.112855631E+02  8.165412092E+01 -5.202304972E+02  5.525546509E+02  1.250000000E+02  0.00000E+00  9.000E+00
      25     1     1     2     0     0  1.171315752E+02 -7.028155480E+01 -1.091663258E+03  1.107254700E+03  1.250000000E+02  0.00000E+00  9.000E+00
      21     1     1     2   501   512 -5.846012093E+00 -1.137256611E+01  1.164834546E+01  1.729725612E+01  1.203954809E-06  0.00000E+00  9.000E+00
#rwgt            1           1   3.1813778485714039E-002           2      427082           0
</event>
<event>
      5   9999 -3.79277E-02  1.25441E+01 -1.00000E+00  1.85026E-01
      21    -1     0     0   511   501  0.000000000E+00  0.000000000E+00  2.278816086E+02  2.278816086E+02  0.000000000E+00  0.00000E+00  9.000E+00
      21    -1     0     0   501   502  0.000000000E+00  0.000000000E+00 -5.036121902E+02  5.036121902E+02  0.000000000E+00  0.00000E+00  9.000E+00
      25     1     1     2     0     0  1.012718454E+02 -1.777381141E+00 -3.633757449E+01  1.649380644E+02  1.250000000E+02  0.00000E+00  9.000E+00
      25     1     1     2     0     0 -1.128152988E+02  6.686776291E+00 -3.850759228E+02  4.203337614E+02  1.250000000E+02  0.00000E+00  9.000E+00
      21     1     1     2   511   502  1.154345336E+01 -4.909395150E+00  1.456829157E+02  1.462219730E+02  0.000000000E+00  0.00000E+00  9.000E+00
#rwgt            1           1  -8.1250317677126691E-002           2      427238           0
</event>
<event>
      5   9999  3.79277E-02  3.22976E+01 -1.00000E+00  1.50847E-01
      21    -1     0     0   512   501  0.000000000E+00  0.000000000E+00  9.646133437E+01  9.646133437E+01  0.000000000E+00  0.00000E+00  9.000E+00
      21    -1     0     0   501   502  0.000000000E+00  0.000000000E+00 -5.239577588E+02  5.239577588E+02  0.000000000E+00  0.00000E+00  9.000E+00
      25     1     1     2     0     0  7.709133401E+01 -1.017814012E+02 -1.020140299E+02  2.057532253E+02  1.250000000E+02  0.00000E+00  9.000E+00
      25     1     1     2     0     0 -7.850032513E+01  1.340482375E+02 -3.262548242E+02  3.823590477E+02  1.250000000E+02  0.00000E+00  9.000E+00
      21     1     1     2   512   502  1.408991120E+00 -3.226683630E+01  7.724297007E-01  3.230682016E+01  4.669558887E-07  0.00000E+00  9.000E+00
#rwgt            1           1   3.4780178640462768E-002           2      427533           0
</event>
<event>
      5   9999  3.79277E-02  1.05607E+02 -1.00000E+00  1.22772E-01
      21    -1     0     0   502   501  0.000000000E+00  0.000000000E+00  6.881041447E+02  6.881041447E+02  0.000000000E+00  0.00000E+00  9.000E+00
      21    -1     0     0   501   511  0.000000000E+00  0.000000000E+00 -3.524715158E+02  3.524715158E+02  0.000000000E+00  0.00000E+00  9.000E+00
      25     1     1     2     0     0  2.474389726E+02 -9.524711024E+01  2.467860681E+02  3.831793583E+02  1.250000000E+02  0.00000E+00  9.000E+00
      25     1     1     2     0     0 -3.485834216E+02  1.256222242E+02  2.504307719E+02  4.643618380E+02  1.250000000E+02  0.00000E+00  9.000E+00
      21     1     1     2   502   511  1.011444490E+02 -3.037511400E+01 -1.615842112E+02  1.930344643E+02  2.697398305E-06  0.00000E+00  9.000E+00
#rwgt            1           1   2.8319286230269358E-002           2      427675           0
</event>
<event>
      5   9999  3.79277E-02  3.11223E+02 -1.00000E+00  1.05076E-01
      21    -1     0     0   502   501  0.000000000E+00  0.000000000E+00  2.416294356E+02  2.416294356E+02  0.000000000E+00  0.00000E+00  9.000E+00
       2    -1     0     0   501     0  0.000000000E+00  0.000000000E+00 -3.427508305E+03  3.427508305E+03  0.000000000E+00  0.00000E+00  9.000E+00
      25     1     1     2     0     0  2.015677840E+02  1.501735281E+02 -2.925320564E+02  4.054400870E+02  1.250000000E+02  0.00000E+00  9.000E+00
      25     1     1     2     0     0 -1.585179373E+02  1.580581214E+02  8.425278596E+01  2.698774502E+02  1.250000000E+02  0.00000E+00  9.000E+00
       2     1     1     2   502     0 -4.304984671E+01 -3.082316495E+02 -2.977599599E+03  2.993820203E+03  4.315837288E-05  0.00000E+00  9.000E+00
#rwgt            2          13   1.3580155784139560E-003           2      427811           0
</event>
<event>
      5   9999  3.79277E-02  2.47535E+01 -1.00000E+00  1.59074E-01
      21    -1     0     0   502   511  0.000000000E+00  0.000000000E+00  1.016655448E+03  1.016655448E+03  0.000000000E+00  0.00000E+00  9.000E+00
      21    -1     0     0   501   502  0.000000000E+00  0.000000000E+00 -3.780097462E+01  3.780097462E+01  0.000000000E+00  0.00000E+00  9.000E+00
      25     1     1     2     0     0  6.033021284E+01  1.042160116E+02  3.729996043E+02  4.114054162E+02  1.250000000E+02  0.00000E+00  9.000E+00
      25     1     1     2     0     0 -8.137452741E+01 -1.172494895E+02  5.131714285E+02  5.471189738E+02  1.250000000E+02  0.00000E+00  9.000E+00
      21     1     1     2   501   511  2.104431457E+01  1.303347788E+01  9.268344013E+01  9.593203217E+01  0.000000000E+00  0.00000E+00  9.000E+00
#rwgt            1           1   4.8922418119259070E-002           2      427905           0
</event>
<event>
      5   9999  3.79277E-02  1.24116E+01 -1.00000E+00  1.85501E-01
      21    -1     0     0   502   501  0.000000000E+00  0.000000000E+00  3.847647246E+01  3.847647246E+01  0.000000000E+00  0.00000E+00  9.000E+00
      21    -1     0     0   501   512  0.000000000E+00  0.000000000E+00 -1.300666496E+03  1.300666496E+03  0.000000000E+00  0.00000E+00  9.000E+00
      25     1     1     2     0     0 -9.669097664E+01 -1.495568735E+01 -1.659633093E+02  2.296554758E+02  1.250000000E+02  0.00000E+00  9.000E+00
      25     1     1     2     0     0  9.372304709E+01  2.904151716E+00 -9.531967552E+02  9.659200266E+02  1.250000000E+02  0.00000E+00  9.000E+00
      21     1     1     2   502   512  2.967929545E+00  1.205153564E+01 -1.430299592E+02  1.435674662E+02  2.697398305E-06  0.00000E+00  9.000E+00
#rwgt            1           1   2.6266191311836683E-002           2      428015           0
</event>
<event>
      5   9999  3.79277E-02  1.19599E+02 -1.00000E+00  1.20430E-01
      21    -1     0     0   502   501  0.000000000E+00  0.000000000E+00  1.615049872E+02  1.615049872E+02  0.000000000E+00  0.00000E+00  9.000E+00
      21    -1     0     0   511   502  0.000000000E+00  0.000000000E+00 -1.095871566E+03  1.095871566E+03  0.000000000E+00  0.00000E+00  9.000E+00
      25     1     1     2     0     0 -3.423861970E+02  1.088071661E+02 -6.507943113E+02  7.538073646E+02  1.250000000E+02  0.00000E+00  9.000E+00
      25     1     1     2     0     0  2.281635756E+02 -7.335084595E+01 -1.078874871E+02  2.910389556E+02  1.250000000E+02  0.00000E+00  9.000E+00
      21     1     1     2   511   501  1.142226213E+02 -3.545632012E+01 -1.756847809E+02  2.125302334E+02  2.697398305E-06  0.00000E+00  9.000E+00
#rwgt            1           1   2.4246881812236689E-002           2      428267           0
</event>
<event>
      5   9999  3.79277E-02  3.23256E+01 -1.00000E+00  1.50821E-01
      21    -1     0     0   502   501  0.000000000E+00  0.000000000E+00  6.391548943E+01  6.391548943E+01  0.000000000E+00  0.00000E+00  9.000E+00
      21    -1     0     0   512   502  0.000000000E+00  0.000000000E+00 -1.085940766E+03  1.085940766E+03  0.000000000E+00  0.00000E+00  9.000E+00
      25     1     1     2     0     0 -1.153762332E+02  7.983008401E+01 -1.395959539E+02  2.340866246E+02  1.250000000E+02  0.00000E+00  9.000E+00
      25     1     1     2     0     0  1.279335743E+02 -1.096169025E+02 -7.102794211E+02  7.406110456E+02  1.250000000E+02  0.00000E+00  9.000E+00
      21     1     1     2   512   501 -1.255734113E+01  2.978681852E+01 -1.721499016E+02  1.751585853E+02  1.907348633E-06  0.00000E+00  9.000E+00
#rwgt            1           1   4.1426321383068683E-002           2      428369           0
</event>
<event>
      5   9999  3.79277E-02  5.97245E+01 -1.00000E+00  1.34810E-01
      21    -1     0     0   502   501  0.000000000E+00  0.000000000E+00  4.077830882E+02  4.077830882E+02  0.000000000E+00  0.00000E+00  9.000E+00
      21    -1     0     0   511   502  0.000000000E+00  0.000000000E+00 -1.247633078E+03  1.247633078E+03  0.000000000E+00  0.00000E+00  9.000E+00
      25     1     1     2     0     0  8.868800794E+01 -5.066096281E+02  4.870136514E+01  5.315220607E+02  1.250000000E+02  0.00000E+00  9.000E+00
      25     1     1     2     0     0 -8.256563633E+01  5.660195195E+02 -6.364115493E+02  8.647773360E+02  1.250000000E+02  0.00000E+00  9.000E+00
      21     1     1     2   511   501 -6.122371613E+00 -5.940989144E+01 -2.521398053E+02  2.591167692E+02  2.697398305E-06  0.00000E+00  9.000E+00
#rwgt            1           1   4.0469040237446477E-002           2      428489           0
</event>
<event>
      5   9999  3.79277E-02  8.48075E+01 -1.00000E+00  1.27135E-01
      21    -1     0     0   502   501  0.000000000E+00  0.000000000E+00  8.287218472E+02  8.287218472E+02  0.000000000E+00  0.00000E+00  9.000E+00
      21    -1     0     0   501   512  0.000000000E+00  0.000000000E+00 -1.104800799E+02  1.104800799E+02  0.000000000E+00  0.00000E+00  9.000E+00
      25     1     1     2     0     0 -1.753249287E+02 -1.504070621E+02  5.140255451E+02  5.772420428E+02  1.250000000E+02  0.00000E+00  9.000E+00
      25     1     1     2     0     0  1.311342019E+02  7.802271962E+01  1.937794975E+02  2.765125988E+02  1.250000000E+02  0.00000E+00  9.000E+00
      21     1     1     2   502   512  4.419072685E+01  7.238434246E+01  1.043672468E+01  8.544728547E+01  1.585976445E-06  0.00000E+00  9.000E+00
#rwgt            1           1   4.6843667438821728E-002           2      428639           0
</event>
<event>
      5   9999  3.79277E-02  1.38149E+01 -1.00000E+00  1.80818E-01
      21    -1     0     0   502   511  0.000000000E+00  0.000000000E+00  2.666540212E+01  2.666540212E+01  0.000000000E+00  0.00000E+00  9.000E+00
      21    -1     0     0   501   502  0.000000000E+00  0.000000000E+00 -1.563325794E+03  1.563325794E+03  0.000000000E+00  0.00000E+00  9.000E+00
      25     1     1     2     0     0 -3.542673719E+01 -1.467487410E+02 -8.848270551E+02  9.062748833E+02  1.250000000E+02  0.00000E+00  9.000E+00
      25     1     1     2     0     0  2.802689941E+01  1.350827583E+02 -6.360793894E+02  6.627630408E+02  1.250000000E+02  0.00000E+00  9.000E+00
      21     1     1     2   501   511  7.399837770E+00  1.166598267E+01 -1.575394762E+01  2.095327221E+01  3.769728732E-07  0.00000E+00  9.000E+00
#rwgt            1           1   2.9423292666726334E-002           2      428731           0
</event>
<event>
      5   9999  3.79277E-02  1.17549E+01 -1.00000E+00  1.87975E-01
      21    -1     0     0   502   512  0.000000000E+00  0.000000000E+00  2.359092532E+02  2.359092532E+02  0.000000000E+00  0.00000E+00  9.000E+00
      21    -1     0     0   501   502  0.000000000E+00  0.000000000E+00 -3.999368882E+02  3.999368882E+02  0.000000000E+00  0.00000E+00  9.000E+00
      25     1     1     2     0     0  8.714070654E+01 -7.849448024E+01 -2.993468660E+02  3.449469993E+02  1.250000000E+02  0.00000E+00  9.000E+00
      25     1     1     2     0     0 -9.827786959E+01  7.473401647E+01  2.210931169E+01  1.770805877E+02  1.250000000E+02  0.00000E+00  9.000E+00
      21     1     1     2   501   512  1.113716305E+01  3.760463767E+00  1.132099193E+02  1.138185544E+02  0.000000000E+00  0.00000E+00  9.000E+00
#rwgt            1           1   4.3010898646008183E-002           2      428878           0
</event>
<event>
      5   9999  3.79277E-02  3.19027E+01 -1.00000E+00  1.51208E-01
      21    -1     0     0   502   501  0.000000000E+00  0.000000000E+00  4.075480712E+01  4.075480712E+01  0.000000000E+00  0.00000E+00  9.000E+00
      21    -1     0     0   511   502  0.000000000E+00  0.000000000E+00 -2.481604726E+03  2.481604726E+03  0.000000000E+00  0.00000E+00  9.000E+00
      25     1     1     2     0     0  5.270718656E+00  3.884911481E+01 -9.014832940E+01  1.590243865E+02  1.250000000E+02  0.00000E+00  9.000E+00
      25     1     1     2     0     0 -2.243031531E+01 -6.574390812E+01 -8.251654628E+02  8.374654748E+02  1.250000000E+02  0.00000E+00  9.000E+00
      21     1     1     2   511   501  1.715959665E+01  2.689479331E+01 -1.525536127E+03  1.525869672E+03  2.157918644E-05  0.00000E+00  9.000E+00
#rwgt            1           1   4.5061306208331472E-002           2      429166           0
</event>
<event>
      5   9999  3.79277E-02  5.69271E+01 -1.00000E+00  1.35935E-01
      21    -1     0     0   512   501  0.000000000E+00  0.000000000E+00  1.220086285E+03  1.220086285E+03  0.000000000E+00  0.00000E+00  9.000E+00
      21    -1     0     0   501   502  0.000000000E+00  0.000000000E+00 -1.571245914E+02  1.571245914E+02  0.000000000E+00  0.00000E+00  9.000E+00
      25     1     1     2     0     0 -1.414386831E+02 -5.433175444E+01  1.471518191E+02  2.454292128E+02  1.250000000E+02  0.00000E+00  9.000E+00
      25     1     1     2     0     0  1.982219605E+02  5.028719120E+01  2.704946119E+01  2.411999597E+02  1.250000000E+02  0.00000E+00  9.000E+00
      21     1     1     2   512   502 -5.678327741E+01  4.044563249E+00  8.887604136E+02  8.905817042E+02  1.078959322E-05  0.00000E+00  9.000E+00
#rwgt            1           1   3.6338264094306329E-002           2      429440           0
</event>
<event>
      5   9999  3.79277E-02  3.47116E+01 -1.00000E+00  1.48766E-01
      21    -1     0     0   502   501  0.000000000E+00  0.000000000E+00  2.500910625E+02  2.500910625E+02  0.000000000E+00  0.00000E+00  9.000E+00
      21    -1     0     0   511   502  0.000000000E+00  0.000000000E+00 -6.898542744E+02  6.898542744E+02  0.000000000E+00  0.00000E+00  9.000E+00
      25     1     1     2     0     0 -2.447037746E+01 -7.395145826E+01  1.704381134E+02  2.252593351E+02  1.250000000E+02  0.00000E+00  9.000E+00
      25     1     1     2     0     0  5.583024094E+01  8.883279781E+01 -7.716506165E+01  1.805207149E+02  1.250000000E+02  0.00000E+00  9.000E+00
      21     1     1     2   511   501 -3.135986347E+01 -1.488133955E+01 -5.330362636E+02  5.341652868E+02  0.000000000E+00  0.00000E+00  9.000E+00
#rwgt            1           1   2.5030108384796950E-002           2      429592           0
</event>
<event>
      5   9999  3.79277E-02  1.28819E+02 -1.00000E+00  1.19075E-01
      21    -1     0     0   502   512  0.000000000E+00  0.000000000E+00  2.473080423E+02  2.473080423E+02  0.000000000E+00  0.00000E+00  9.000E+00
      21    -1     0     0   501   502  0.000000000E+00  0.000000000E+00 -3.731842314E+02  3.731842314E+02  0.000000000E+00  0.00000E+00  9.000E+00
      25     1     1     2     0     0 -1.761182856E+02  6.548794360E+01  4.463787029E+00  2.257238283E+02  1.250000000E+02  0.00000E+00  9.000E+00
      25     1     1     2     0     0  1.919391265E+02  6.235591681E+01 -1.187348825E+02  2.654276945E+02  1.250000000E+02  0.00000E+00  9.000E+00
      21     1     1     2   501   512 -1.582084096E+01 -1.278438604E+02 -1.160509364E+01  1.293407509E+02  2.595369942E-06  0.00000E+00  9.000E+00
#rwgt            2          11   3.1165970440981110E-003           2      429726           0
</event>
<event>
      5   9999  3.79277E-02  4.45124E+01 -1.00000E+00  1.42019E-01
       1    -1     0     0   502     0  0.000000000E+00  0.000000000E+00  2.378139885E+03  2.378139885E+03  0.000000000E+00  0.00000E+00  9.000E+00
      21    -1     0     0   501   502  0.000000000E+00  0.000000000E+00 -7.765537623E+01  7.765537623E+01  0.000000000E+00  0.00000E+00  9.000E+00
      25     1     1     2     0     0 -2.309856685E+02  1.326145745E+01  3.619167312E+02  4.473689368E+02  1.250000000E+02  0.00000E+00  9.000E+00
      25     1     1     2     0     0  2.114575355E+02  2.673862320E+01  4.064603931E+02  4.756724656E+02  1.250000000E+02  0.00000E+00  9.000E+00
       1     1     1     2   501     0  1.952813302E+01 -4.000008065E+01  1.532107385E+03  1.532753859E+03  3.051757812E-05  0.00000E+00  9.000E+00
#rwgt            1           1   2.4722968308452505E-002           2      429791           0
</event>
<event>
      5   9999  3.79277E-02  8.67536E+00 -1.00000E+00  2.03172E-01
       2    -1     0     0   502     0  0.000000000E+00  0.000000000E+00  1.274541926E+03  1.274541926E+03  0.000000000E+00  0.00000E+00  9.000E+00
      21    -1     0     0   501   502  0.000000000E+00  0.000000000E+00 -1.530490394E+03  1.530490394E+03  0.000000000E+00  0.00000E+00  9.000E+00
      25     1     1     2     0     0  1.529320017E+02 -2.753813200E+01 -3.664449205E+02  4.171971064E+02  1.250000000E+02  0.00000E+00  9.000E+00
      25     1     1     2     0     0 -1.520562941E+02  1.890707856E+01 -1.130068729E+03  1.147239698E+03  1.250000000E+02  0.00000E+00  9.000E+00
       2     1     1     2   501     0 -8.757076252E-01  8.631053436E+00  1.240565182E+03  1.240595515E+03  1.525878906E-05  0.00000E+00  9.000E+00
#rwgt            1           1   4.9697170433828937E-002           2      429892           0
</event>
<event>
      5   9999  3.79277E-02  8.49497E+01 -1.00000E+00  1.27100E-01
      21    -1     0     0   502   501  0.000000000E+00  0.000000000E+00  2.140467132E+02  2.140467132E+02  0.000000000E+00  0.00000E+00  9.000E+00
      21    -1     0     0   511   502  0.000000000E+00  0.000000000E+00 -3.359782142E+02  3.359782142E+02  0.000000000E+00  0.00000E+00  9.000E+00
      25     1     1     2     0     0 -1.118468441E+02 -1.554108029E+02  1.659752023E+01  2.292655924E+02  1.250000000E+02  0.00000E+00  9.000E+00
      25     1     1     2     0     0  1.385858837E+02  7.477911835E+01 -7.462512635E+01  2.144571594E+02  1.250000000E+02  0.00000E+00  9.000E+00
      21     1     1     2   511   501 -2.673903970E+01  8.063168451E+01 -6.390389487E+01  1.063021758E+02  1.907348633E-06  0.00000E+00  9.000E+00
#rwgt            1           1   3.1983409997134532E-002           2      430130           0
</event>
<event>
      5   9999  3.79277E-02  1.23561E+02 -1.00000E+00  1.19832E-01
       2    -1     0     0   502     0  0.000000000E+00  0.000000000E+00  3.816092041E+03  3.816092041E+03  0.000000000E+00  0.00000E+00  9.000E+00
      21    -1     0     0   501   502  0.000000000E+00  0.000000000E+00 -4.329908655E+01  4.329908655E+01  0.000000000E+00  0.00000E+00  9.000E+00
      25     1     1     2     0     0  1.396414457E+01 -2.300923420E+02  5.237589979E+02  5.857354105E+02  1.250000000E+02  0.00000E+00  9.000E+00
      25     1     1     2     0     0  1.091688317E+02  2.198219135E+02  2.095922518E+03  2.113943165E+03  1.250000000E+02  0.00000E+00  9.000E+00
       2     1     1     2   501     0 -1.231329763E+02  1.027042848E+01  1.153111439E+03  1.159712552E+03  2.642899792E-05  0.00000E+00  9.000E+00
#rwgt            1           1   7.3886427351196382E-002           2      430500           0
</event>
<event>
      5   9999  3.79277E-02  4.92010E+01 -1.00000E+00  1.39476E-01
       2    -1     0     0   502     0  0.000000000E+00  0.000000000E+00  2.274055093E+03  2.274055093E+03  0.000000000E+00  0.00000E+00  9.000E+00
      21    -1     0     0   501   502  0.000000000E+00  0.000000000E+00 -7.072375865E+01  7.072375865E+01  0.000000000E+00  0.00000E+00  9.000E+00
      25     1     1     2     0     0 -9.537119611E+01 -1.075230875E+02  2.839491241E+02  3.419195585E+02  1.250000000E+02  0.00000E+00  9.000E+00
      25     1     1     2     0     0  4.689659353E+01  9.909963629E+01  1.255323471E+02  2.083348232E+02  1.250000000E+02  0.00000E+00  9.000E+00
       2     1     1     2   501     0  4.847460258E+01  8.423451242E+00  1.793849863E+03  1.794524470E+03  2.157918644E-05  0.00000E+00  9.000E+00
#rwgt            1           1   2.8502548248757725E-002           2      430562           0
</event>
<event>
      5   9999  3.79277E-02  1.22916E+02 -1.00000E+00  1.19927E-01
      21    -1     0     0   502   501  0.000000000E+00  0.000000000E+00  1.520615958E+02  1.520615958E+02  0.000000000E+00  0.00000E+00  9.000E+00
      21    -1     0     0   501   511  0.000000000E+00  0.000000000E+00 -5.085933930E+02  5.085933930E+02  0.000000000E+00  0.00000E+00  9.000E+00
      25     1     1     2     0     0 -8.973639414E+01  6.340384806E+01 -1.607701029E+02  2.313972652E+02  1.250000000E+02  0.00000E+00  9.000E+00
      25     1     1     2     0     0 -3.035490527E+01 -3.720226182E+01  5.905169894E+01  1.463472983E+02  1.250000000E+02  0.00000E+00  9.000E+00
      21     1     1     2   502   511  1.200912994E+02 -2.620158624E+01 -2.548133933E+02  2.829104252E+02  5.394796609E-06  0.00000E+00  9.000E+00
#rwgt            1           1   4.7013370105750490E-002           2      430747           0
</event>
<event>
      5   9999  3.79277E-02  3.79756E+01 -1.00000E+00  1.46253E-01
      21    -1     0     0   512   501  0.000000000E+00  0.000000000E+00  1.031538104E+02  1.031538104E+02  0.000000000E+00  0.00000E+00  9.000E+00
      21    -1     0     0   501   502  0.000000000E+00  0.000000000E+00 -5.098674058E+02  5.098674058E+02  0.000000000E+00  0.00000E+00  9.000E+00
      25     1     1     2     0     0  4.176788446E+01 -1.119135874E+02 -3.841907483E+02  4.213036178E+02  1.250000000E+02  0.00000E+00  9.000E+00
      25     1     1     2     0     0 -4.570271211E+01  7.414236801E+01 -1.604700892E+01  1.531937829E+02  1.250000000E+02  0.00000E+00  9.000E+00
      21     1     1     2   512   502  3.934827645E+00  3.777121942E+01 -6.475838173E+00  3.852381556E+01  2.230201594E-07  0.00000E+00  9.000E+00
#rwgt            1           1   4.6487873300919719E-002           2      430821           0
</event>
<event>
      5   9999  3.79277E-02  2.49533E+01 -1.00000E+00  1.58812E-01
      -3    -1     0     0     0   501  0.000000000E+00  0.000000000E+00  7.637766271E+02  7.637766271E+02  0.000000000E+00  0.00000E+00  9.000E+00
      21    -1     0     0   501   502  0.000000000E+00  0.000000000E+00 -7.494776649E+02  7.494776649E+02  0.000000000E+00  0.00000E+00  9.000E+00
      25     1     1     2     0     0  7.650430839E+01  6.999658518E+01 -5.406298893E+02  5.644981031E+02  1.250000000E+02  0.00000E+00  9.000E+00
      25     1     1     2     0     0 -5.936697663E+01 -8.813431918E+01 -1.624853376E+02  2.309081659E+02  1.250000000E+02  0.00000E+00  9.000E+00
      -3     1     1     2     0   502 -1.713733176E+01  1.813773400E+01  7.174141891E+02  7.178480230E+02  1.078959322E-05  0.00000E+00  9.000E+00
#rwgt            1           1   3.5035873560684931E-002           2      430965           0
</event>
<event>
      5   9999  3.79277E-02  9.22410E+00 -1.00000E+00  1.99901E-01
      21    -1     0     0   502   511  0.000000000E+00  0.000000000E+00  2.956292061E+02  2.956292061E+02  0.000000000E+00  0.00000E+00  9.000E+00
      21    -1     0     0   501   502  0.000000000E+00  0.000000000E+00 -1.900614911E+02  1.900614911E+02  0.000000000E+00  0.00000E+00  9.000E+00
      25     1     1     2     0     0 -1.139867930E+02 -1.495235275E+02  1.101782800E+02  2.512260489E+02  1.250000000E+02  0.00000E+00  9.000E+00
      25     1     1     2     0     0  1.056669172E+02  1.455406011E+02 -1.623249104E+01  2.196270879E+02  1.250000000E+02  0.00000E+00  9.000E+00
      21     1     1     2   501   511  8.319875822E+00  3.982926365E+00  1.162192595E+01  1.483756041E+01  1.685873940E-07  0.00000E+00  9.000E+00
#rwgt            1           1   3.3089822217491939E-002           2      431084           0
</event>
<event>
      5   9999  3.79277E-02  3.22621E+01 -1.00000E+00  1.50879E-01
       2    -1     0     0   502     0  0.000000000E+00  0.000000000E+00  8.373276581E+02  8.373276581E+02  0.000000000E+00  0.00000E+00  9.000E+00
      21    -1     0     0   501   502  0.000000000E+00  0.000000000E+00 -1.078219507E+02  1.078219507E+02  0.000000000E+00  0.00000E+00  9.000E+00
      25     1     1     2     0     0  7.691915953E+01  4.010226911E+00 -3.239662852E+01  1.503568441E+02  1.250000000E+02  0.00000E+00  9.000E+00
      25     1     1     2     0     0 -9.635663921E+01  2.173915425E+01  3.870817285E+02  4.185862602E+02  1.250000000E+02  0.00000E+00  9.000E+00
       2     1     1     2   501     0  1.943747968E+01 -2.574938116E+01  3.748206075E+02  3.762065045E+02  5.394796609E-06  0.00000E+00  9.000E+00
#rwgt            1           1   4.5734714903538691E-002           2      431528           0
</event>
<event>
      5   9999  3.79277E-02  4.90822E+01 -1.00000E+00  1.39536E-01
      21    -1     0     0   502   501  0.000000000E+00  0.000000000E+00  9.517839103E+02  9.517839103E+02  0.000000000E+00  0.00000E+00  9.000E+00
      21    -1     0     0   501   511  0.000000000E+00  0.000000000E+00 -9.128264525E+01  9.128264525E+01  0.000000000E+00  0.00000E+00  9.000E+00
      25     1     1     2     0     0 -5.825301353E+01 -5.810749121E+01  2.261212314E+02  2.711562380E+02  1.250000000E+02  0.00000E+00  9.000E+00
      25     1     1     2     0     0  9.853008984E+01  3.005716260E+01  6.835239231E+02  7.024539594E+02  1.250000000E+02  0.00000E+00  9.000E+00
      21     1     1     2   502   511 -4.027707631E+01  2.805032862E+01 -4.914388947E+01  6.945635813E+01  1.507891493E-06  0.00000E+00  9.000E+00
#rwgt            1           1   4.6780820221490514E-002           2      431799           0
</event>
<event>
      5   9999  3.79277E-02  1.19572E+01 -1.00000E+00  1.87191E-01
      21    -1     0     0   502   512  0.000000000E+00  0.000000000E+00  3.734452666E+02  3.734452666E+02  0.000000000E+00  0.00000E+00  9.000E+00
      21    -1     0     0   501   502  0.000000000E+00  0.000000000E+00 -1.416938885E+02  1.416938885E+02  0.000000000E+00  0.00000E+00  9.000E+00
      25     1     1     2     0     0  9.283118778E+01  4.450637100E+01  9.043977188E+01  1.854799149E+02  1.250000000E+02  0.00000E+00  9.000E+00
      25     1     1     2     0     0 -8.994775968E+01 -5.611072121E+01 -2.247547716E+01  1.654362705E+02  1.250000000E+02  0.00000E+00  9.000E+00
      21     1     1     2   501   512 -2.883428098E+00  1.160435021E+01  1.637870835E+02  1.642229698E+02  0.000000000E+00  0.00000E+00  9.000E+00
#rwgt            1           1   2.5408546638154707E-002           2      431901           0
</event>
<event>
      5   9999  3.79277E-02  1.83163E+01 -1.00000E+00  1.69583E-01
      -1    -1     0     0     0   501  0.000000000E+00  0.000000000E+00  3.172470665E+02  3.172470665E+02  0.000000000E+00  0.00000E+00  9.000E+00
      21    -1     0     0   501   502  0.000000000E+00  0.000000000E+00 -4.016717221E+02  4.016717221E+02  0.000000000E+00  0.00000E+00  9.000E+00
      25     1     1     2     0     0 -1.795188364E+02 -1.307712496E+01 -2.202541861E+02  3.107007086E+02  1.250000000E+02  0.00000E+00  9.000E+00
      25     1     1     2     0     0  1.813229123E+02  3.130431544E+01 -4.458872915E+01  2.268724608E+02  1.250000000E+02  0.00000E+00  9.000E+00
      -1     1     1     2     0   502 -1.804075901E+00 -1.822719048E+01  1.804182597E+02  1.813456192E+02  2.697398305E-06  0.00000E+00  9.000E+00
#rwgt            1           1   3.3508543945660628E-002           2      432217           0
</event>
<event>
      5   9999  3.79277E-02  6.09988E+01 -1.00000E+00  1.34321E-01
      21    -1     0     0   502   501  0.000000000E+00  0.000000000E+00  1.069725376E+03  1.069725376E+03  0.000000000E+00  0.00000E+00  9.000E+00
      21    -1     0     0   501   511  0.000000000E+00  0.000000000E+00 -5.455067009E+01  5.455067009E+01  0.000000000E+00  0.00000E+00  9.000E+00
      25     1     1     2     0     0  2.375676152E+01  8.292545586E+01  8.680516873E+02  8.812376222E+02  1.250000000E+02  0.00000E+00  9.000E+00
      25     1     1     2     0     0 -6.107319865E+00 -2.453582484E+01  1.237853071E+02  1.777276240E+02  1.250000000E+02  0.00000E+00  9.000E+00
      21     1     1     2   502   511 -1.764944165E+01 -5.838963102E+01  2.333771135E+01  6.531079981E+01  1.261592536E-06  0.00000E+00  9.000E+00
#rwgt            1           1   4.8465964027923719E-002           2      432431           0
</event>
<event>
      5   9999  3.79277E-02  2.38137E+00 -1.00000E+00  3.31043E-01
      21    -1     0     0   502   501  0.000000000E+00  0.000000000E+00  2.321980136E+01  2.321980136E+01  0.000000000E+00  0.00000E+00  9.000E+00
      21    -1     0     0   501   512  0.000000000E+00  0.000000000E+00 -1.965508501E+03  1.965508501E+03  0.000000000E+00  0.00000E+00  9.000E+00
      25     1     1     2     0     0  7.343103010E+01  1.061963401E+02 -9.396502628E+02  9.566804039E+02  1.250000000E+02  0.00000E+00  9.000E+00
      25     1     1     2     0     0 -7.124774411E+01 -1.052454411E+02 -5.256731244E+02  5.550766413E+02  1.250000000E+02  0.00000E+00  9.000E+00
      21     1     1     2   502   512 -2.183285990E+00 -9.508990150E-01 -4.769653128E+02  4.769712576E+02  0.000000000E+00  0.00000E+00  9.000E+00
#rwgt            1           1   4.7965002640178063E-002           2      432612           0
</event>
<event>
      5   9999  3.79277E-02  1.07954E+01 -1.00000E+00  1.91992E-01
      21    -1     0     0   502   501  0.000000000E+00  0.000000000E+00  4.019578766E+02  4.019578766E+02  0.000000000E+00  0.00000E+00  9.000E+00
      21    -1     0     0   501   511  0.000000000E+00  0.000000000E+00 -3.422299277E+02  3.422299277E+02  0.000000000E+00  0.00000E+00  9.000E+00
      25     1     1     2     0     0 -1.397908936E+02 -7.162639639E+01 -2.651427857E+02  3.325620715E+02  1.250000000E+02  0.00000E+00  9.000E+00
      25     1     1     2     0     0  1.336876763E+02  8.053100614E+01  3.391606847E+02  3.937164053E+02  1.250000000E+02  0.00000E+00  9.000E+00
      21     1     1     2   502   511  6.103217274E+00 -8.904609753E+00 -1.428995014E+01  1.790932749E+01  2.384185791E-07  0.00000E+00  9.000E+00
#rwgt            1           1   5.1475678664667748E-002           2      433081           0
</event>
<event>
      5   9999 -3.79277E-02  1.95352E+01 -1.00000E+00  1.67216E-01
      21    -1     0     0   512   501  0.000000000E+00  0.000000000E+00  7.864993782E+01  7.864993782E+01  0.000000000E+00  0.00000E+00  9.000E+00
      21    -1     0     0   501   502  0.000000000E+00  0.000000000E+00 -1.160374664E+03  1.160374664E+03  0.000000000E+00  0.00000E+00  9.000E+00
      25     1     1     2     0     0 -1.459810064E+02 -1.731281581E+02 -8.016011256E+02  8.423023080E+02  1.250000000E+02  0.00000E+00  9.000E+00
      25     1     1     2     0     0  1.303514434E+02  1.848474647E+02 -2.730288961E+02  3.759386414E+02  1.250000000E+02  0.00000E+00  9.000E+00
      21     1     1     2   512   502  1.562956307E+01 -1.171930662E+01 -7.094704857E+00  2.078365287E+01  2.528810911E-07  0.00000E+00  9.000E+00
#rwgt            1           1  -6.9415638842270602E-002           2      433405           0
</event>
<event>
      5   9999  3.79277E-02  2.25792E+01 -1.00000E+00  1.62137E-01
       1    -1     0     0   502     0  0.000000000E+00  0.000000000E+00  5.285929526E+02  5.285929526E+02  0.000000000E+00  0.00000E+00  9.000E+00
      21    -1     0     0   501   502  0.000000000E+00  0.000000000E+00 -8.271516011E+02  8.271516011E+02  0.000000000E+00  0.00000E+00  9.000E+00
      25     1     1     2     0     0 -1.306237306E+01  1.208159981E+01 -6.888080753E+02  7.002843388E+02  1.250000000E+02  0.00000E+00  9.000E+00
      25     1     1     2     0     0  3.236675017E+01 -2.379319843E+01 -9.978155739E+01  1.649093145E+02  1.250000000E+02  0.00000E+00  9.000E+00
       1     1     1     2   501     0 -1.930437712E+01  1.171159862E+01  4.900309841E+02  4.905509005E+02  5.394796609E-06  0.00000E+00  9.000E+00
#rwgt            1           1   4.6707785072424152E-002           2      433608           0
</event>
<event>
      5   9999 -3.79277E-02  1.03987E+01 -1.00000E+00  1.93815E-01
      21    -1     0     0   502   501  0.000000000E+00  0.000000000E+00  2.934993699E+02  2.934993699E+02  0.000000000E+00  0.00000E+00  9.000E+00
      21    -1     0     0   511   502  0.000000000E+00  0.000000000E+00 -3.528767585E+02  3.528767585E+02  0.000000000E+00  0.00000E+00  9.000E+00
      25     1     1     2     0     0  1.564670700E+01 -1.368274975E+02  1.424879720E+02  2.342955520E+02  1.250000000E+02  0.00000E+00  9.000E+00
      25     1     1     2     0     0 -1.396875243E+01  1.470899310E+02  1.578950205E+01  1.941774503E+02  1.250000000E+02  0.00000E+00  9.000E+00
      21     1     1     2   511   501 -1.677954562E+00 -1.026243349E+01 -2.176548627E+02  2.179031260E+02  0.000000000E+00  0.00000E+00  9.000E+00
#rwgt            1           1  -7.5545706447031652E-002           2      433812           0
</event>
<event>
      5   9999  3.79277E-02  3.61983E+01 -1.00000E+00  1.47582E-01
      -2    -1     0     0     0   501  0.000000000E+00  0.000000000E+00  7.493772783E+02  7.493772783E+02  0.000000000E+00  0.00000E+00  9.000E+00
      21    -1     0     0   501   502  0.000000000E+00  0.000000000E+00 -2.199373737E+03  2.199373737E+03  0.000000000E+00  0.00000E+00  9.000E+00
      25     1     1     2     0     0  1.106264627E+02 -7.060284414E+00 -1.860483549E+03  1.867970047E+03  1.250000000E+02  0.00000E+00  9.000E+00
      25     1     1     2     0     0 -7.959537808E+01 -1.157815571E+01 -3.181943546E+02  3.512009755E+02  1.250000000E+02  0.00000E+00  9.000E+00
      -2     1     1     2     0   502 -3.103108458E+01  1.863844012E+01  7.286814440E+02  7.295799932E+02  1.525878906E-05  0.00000E+00  9.000E+00
#rwgt            1           1  0.11048760746380497                2      434170           0
</event>
<event>
      5   9999 -3.79277E-02  2.01678E+02 -1.00000E+00  1.11516E-01
      21    -1     0     0   502   501  0.000000000E+00  0.000000000E+00  6.013912343E+02  6.013912343E+02  0.000000000E+00  0.00000E+00  9.000E+00
      21    -1     0     0   511   502  0.000000000E+00  0.000000000E+00 -3.118168221E+02  3.118168221E+02  0.000000000E+00  0.00000E+00  9.000E+00
      25     1     1     2     0     0  2.240599364E+01  2.654109515E+02  3.319514685E+02  4.435783800E+02  1.250000000E+02  0.00000E+00  9.000E+00
      25     1     1     2     0     0 -1.669599852E+02 -1.247754508E+02  4.946325959E+01  2.480245227E+02  1.250000000E+02  0.00000E+00  9.000E+00
      21     1     1     2   511   501  1.445539916E+02 -1.406355007E+02 -9.184031598E+01  2.216051538E+02  5.046370146E-06  0.00000E+00  9.000E+00
#rwgt            1           1 -0.13511363822371175                2      434314           0
</event>
<event>
      5   9999  3.79277E-02  2.39236E+01 -1.00000E+00  1.60196E-01
      21    -1     0     0   512   501  0.000000000E+00  0.000000000E+00  3.217852974E+02  3.217852974E+02  0.000000000E+00  0.00000E+00  9.000E+00
      21    -1     0     0   501   502  0.000000000E+00  0.000000000E+00 -3.781476447E+02  3.781476447E+02  0.000000000E+00  0.00000E+00  9.000E+00
      25     1     1     2     0     0  7.309412001E+01 -5.133871174E+01  1.023274376E+02  1.845923027E+02  1.250000000E+02  0.00000E+00  9.000E+00
      25     1     1     2     0     0 -6.817950428E+01  7.475211070E+01 -3.168803890E+02  3.553512401E+02  1.250000000E+02  0.00000E+00  9.000E+00
      21     1     1     2   512   502 -4.914615738E+00 -2.341339896E+01  1.581906041E+02  1.599893994E+02  1.907348633E-06  0.00000E+00  9.000E+00
#rwgt            1           1   3.7530876737858897E-002           2      434423           0
</event>
<event>
      5   9999  3.79277E-02  1.26592E+02 -1.00000E+00  1.19391E-01
      21    -1     0     0   502   511  0.000000000E+00  0.000000000E+00  1.321622622E+03  1.321622622E+03  0.000000000E+00  0.00000E+00  9.000E+00
      21    -1     0     0   501   502  0.000000000E+00  0.000000000E+00 -9.802861576E+01  9.802861576E+01  0.000000000E+00  0.00000E+00  9.000E+00
      25     1     1     2     0     0  1.127795786E+02 -5.515767206E+01  4.813184435E+02  5.128879470E+02  1.250000000E+02  0.00000E+00  9.000E+00
      25     1     1     2     0     0 -2.283062700E+02  3.396574270E+00  1.485920481E+02  2.997330252E+02  1.250000000E+02  0.00000E+00  9.000E+00
      21     1     1     2   501   511  1.155266915E+02  5.176109779E+01  5.936835152E+02  6.070302660E+02  7.629394531E-06  0.00000E+00  9.000E+00
#rwgt            1           1   4.1427081982621641E-002           2      434611           0
</event>
<event>
      5   9999  3.79277E-02  5.01213E+01 -1.00000E+00  1.39015E-01
      21    -1     0     0   502   501  0.000000000E+00  0.000000000E+00  1.245908008E+02  1.245908008E+02  0.000000000E+00  0.00000E+00  9.000E+00
      21    -1     0     0   501   512  0.000000000E+00  0.000000000E+00 -3.184763401E+02  3.184763401E+02  0.000000000E+00  0.00000E+00  9.000E+00
      25     1     1     2     0     0  2.013683269E+01  4.352095644E+01  3.718295701E+01  1.389501276E+02  1.250000000E+02  0.00000E+00  9.000E+00
      25     1     1     2     0     0  2.965141573E+01 -3.775238802E+01 -1.107176807E+02  1.737465225E+02  1.250000000E+02  0.00000E+00  9.000E+00
      21     1     1     2   502   512 -4.978824842E+01 -5.768568415E+00 -1.203508156E+02  1.303704908E+02  0.000000000E+00  0.00000E+00  9.000E+00
#rwgt            1           1   9.8965408620720854E-002           2      434673           0
</event>
<event>
      5   9999  3.79277E-02  4.94039E+00 -1.00000E+00  2.43581E-01
      21    -1     0     0   502   501  0.000000000E+00  0.000000000E+00  7.201295105E+02  7.201295105E+02  0.000000000E+00  0.00000E+00  9.000E+00
      21    -1     0     0   511   502  0.000000000E+00  0.000000000E+00 -5.010030073E+02  5.010030073E+02  0.000000000E+00  0.00000E+00  9.000E+00
      25     1     1     2     0     0  8.514075839E+01 -1.063161341E+02  4.908194601E+02  5.244814692E+02  1.250000000E+02  0.00000E+00  9.000E+00
      25     1     1     2     0     0 -8.985056685E+01  1.078078457E+02  1.709047524E+02  2.540257671E+02  1.250000000E+02  0.00000E+00  9.000E+00
      21     1     1     2   511   501  4.709808453E+00 -1.491711558E+00 -4.425977094E+02  4.426252815E+02  5.394796609E-06  0.00000E+00  9.000E+00
#rwgt            1           1   4.6377572507920503E-002           2      434859           0
</event>
<event>
      5   9999  3.79277E-02  5.41433E+01 -1.00000E+00  1.37131E-01
      21    -1     0     0   502   501  0.000000000E+00  0.000000000E+00  8.228160428E+01  8.228160428E+01  0.000000000E+00  0.00000E+00  9.000E+00
      21    -1     0     0   501   512  0.000000000E+00  0.000000000E+00 -9.855855129E+02  9.855855129E+02  0.000000000E+00  0.00000E+00  9.000E+00
      25     1     1     2     0     0 -1.190036661E+02 -9.068153113E+00 -6.803696233E+02  7.019771565E+02  1.250000000E+02  0.00000E+00  9.000E+00
      25     1     1     2     0     0  6.705153510E+01  2.431538821E+01 -7.888805863E+00  1.441332013E+02  1.250000000E+02  0.00000E+00  9.000E+00
      21     1     1     2   502   512  5.195213098E+01 -1.524723510E+01 -2.150454794E+02  2.217567593E+02  2.697398305E-06  0.00000E+00  9.000E+00
#rwgt            1           1   2.0789562639896429E-002           2      435274           0
</event>
<event>
      5   9999  3.79277E-02  1.21238E+01 -1.00000E+00  1.86561E-01
      21    -1     0     0   502   501  0.000000000E+00  0.000000000E+00  8.545528161E+02  8.545528161E+02  0.000000000E+00  0.00000E+00  9.000E+00
      21    -1     0     0   501   511  0.000000000E+00  0.000000000E+00 -5.700185562E+01  5.700185562E+01  0.000000000E+00  0.00000E+00  9.000E+00
      25     1     1     2     0     0 -1.482141533E+02  3.184351658E+01  2.233394290E+02  2.974675534E+02  1.250000000E+02  0.00000E+00  9.000E+00
      25     1     1     2     0     0  1.565264730E+02 -2.301794279E+01  5.611038076E+02  5.962322076E+02  1.250000000E+02  0.00000E+00  9.000E+00
      21     1     1     2   502   511 -8.312319693E+00 -8.825573789E+00  1.310772387E+01  1.785491071E+01  1.685873940E-07  0.00000E+00  9.000E+00
#rwgt            1           1   4.1477824318901117E-002           2      435350           0
</event>
<event>
      5   9999  3.79277E-02  2.92994E+01 -1.00000E+00  1.53756E-01
      21    -1     0     0   502   501  0.000000000E+00  0.000000000E+00  1.002865756E+03  1.002865756E+03  0.000000000E+00  0.00000E+00  9.000E+00
      -1    -1     0     0     0   502  0.000000000E+00  0.000000000E+00 -2.828947453E+02  2.828947453E+02  0.000000000E+00  0.00000E+00  9.000E+00
      25     1     1     2     0     0 -9.657076369E+01  1.366658975E+02  4.866593592E+02  5.295902301E+02  1.250000000E+02  0.00000E+00  9.000E+00
      25     1     1     2     0     0  8.204479095E+01 -1.112208838E+02  4.762818020E+02  5.114399159E+02  1.250000000E+02  0.00000E+00  9.000E+00
      -1     1     1     2     0   501  1.452597274E+01 -2.544501377E+01 -2.429701506E+02  2.447303551E+02  4.672030912E-06  0.00000E+00  9.000E+00
#rwgt            1           1   4.4719235115310736E-002           2      435634           0
</event>
<event>
      5   9999  3.79277E-02  2.06873E+01 -1.00000E+00  1.65167E-01
      21    -1     0     0   502   511  0.000000000E+00  0.000000000E+00  6.036529372E+01  6.036529372E+01  0.000000000E+00  0.00000E+00  9.000E+00
      21    -1     0     0   501   502  0.000000000E+00  0.000000000E+00 -1.448822513E+03  1.448822513E+03  0.000000000E+00  0.00000E+00  9.000E+00
      25     1     1     2     0     0  3.318112773E+01 -2.349637748E+02 -7.501503844E+02  7.966552340E+02  1.250000000E+02  0.00000E+00  9.000E+00
      25     1     1     2     0     0 -1.987564192E+01  2.508044465E+02 -6.307921353E+02  6.905227219E+02  1.250000000E+02  0.00000E+00  9.000E+00
      21     1     1     2   501   511 -1.330548581E+01 -1.584067167E+01 -7.514699927E+00  2.200985113E+01  2.064765462E-07  0.00000E+00  9.000E+00
#rwgt            1           1   9.3000932074567819E-002           2      435754           0
</event>
<event>
      5   9999  3.79277E-02  2.68209E+01 -1.00000E+00  1.56497E-01
      21    -1     0     0   502   512  0.000000000E+00  0.000000000E+00  2.202593272E+02  2.202593272E+02  0.000000000E+00  0.00000E+00  9.000E+00
      21    -1     0     0   501   502  0.000000000E+00  0.000000000E+00 -4.773859701E+02  4.773859701E+02  0.000000000E+00  0.00000E+00  9.000E+00
      25     1     1     2     0     0 -1.007695648E+02 -6.932289673E+01 -1.093637251E+02  2.062658323E+02  1.250000000E+02  0.00000E+00  9.000E+00
      25     1     1     2     0     0  7.633977582E+01  5.825282980E+01 -2.988811639E+02  3.378995468E+02  1.250000000E+02  0.00000E+00  9.000E+00
      21     1     1     2   501   512  2.442978895E+01  1.107006692E+01  1.511182462E+02  1.534799183E+02  1.907348633E-06  0.00000E+00  9.000E+00
#rwgt            1           1   5.5542210812979907E-002           2      435996           0
</event>
<event>
      5   9999  3.79277E-02  4.31760E+02 -1.00000E+00  1.00697E-01
      21    -1     0     0   502   501  0.000000000E+00  0.000000000E+00  3.441073579E+02  3.441073579E+02  0.000000000E+00  0.00000E+00  9.000E+00
       2    -1     0     0   501     0  0.000000000E+00  0.000000000E+00 -1.884948551E+03  1.884948551E+03  0.000000000E+00  0.00000E+00  9.000E+00
      25     1     1     2     0     0 -1.550710951E+02  2.996403145E+02 -2.584018828E+02  4.429761796E+02  1.250000000E+02  0.00000E+00  9.000E+00
      25     1     1     2     0     0  2.146524361E+02  1.279892083E+02  1.306754354E+02  3.084768633E+02  1.250000000E+02  0.00000E+00  9.000E+00
       2     1     1     2   502     0 -5.958134095E+01 -4.276295228E+02 -1.413114746E+03  1.477602866E+03  0.000000000E+00  0.00000E+00  9.000E+00
#rwgt            2          13   7.0758185467283835E-004           2      436143           0
</event>
<event>
      5   9999 -3.79277E-02  2.52412E+01 -1.00000E+00  1.58439E-01
      21    -1     0     0   502   501  0.000000000E+00  0.000000000E+00  2.203185725E+03  2.203185725E+03  0.000000000E+00  0.00000E+00  9.000E+00
      21    -1     0     0   501   511  0.000000000E+00  0.000000000E+00 -2.150903615E+01  2.150903615E+01  0.000000000E+00  0.00000E+00  9.000E+00
      25     1     1     2     0     0  8.739549042E+01  1.132127752E+02  1.138523773E+03  1.154260147E+03  1.250000000E+02  0.00000E+00  9.000E+00
      25     1     1     2     0     0 -9.357341987E+01 -1.376862467E+02  9.892100388E+02  1.010878325E+03  1.250000000E+02  0.00000E+00  9.000E+00
      21     1     1     2   502   511  6.177929450E+00  2.447347153E+01  5.394287652E+01  5.955628891E+01  1.651812370E-06  0.00000E+00  9.000E+00
#rwgt            1           1  -3.6376385928277223E-002           2      436162           0
</event>
<event>
      5   9999  3.79277E-02  1.68643E+01 -1.00000E+00  1.72721E-01
      21    -1     0     0   502   501  0.000000000E+00  0.000000000E+00  1.241887341E+03  1.241887341E+03  0.000000000E+00  0.00000E+00  9.000E+00
      21    -1     0     0   512   502  0.000000000E+00  0.000000000E+00 -7.116946106E+01  7.116946106E+01  0.000000000E+00  0.00000E+00  9.000E+00
      25     1     1     2     0     0 -6.062000203E+01 -1.878451573E+02  9.730143920E+02  1.000671072E+03  1.250000000E+02  0.00000E+00  9.000E+00
      25     1     1     2     0     0  6.966307854E+01  1.736103851E+02  1.847650737E+02  2.911299414E+02  1.250000000E+02  0.00000E+00  9.000E+00
      21     1     1     2   512   501 -9.043076516E+00  1.423477219E+01  1.293841392E+01  2.125578808E+01  4.129530925E-07  0.00000E+00  9.000E+00
#rwgt            1           1  0.14331877205821120                2      436319           0
</event>
<event>
      5   9999  3.79277E-02  1.40689E+01 -1.00000E+00  1.80046E-01
      21    -1     0     0   502   511  0.000000000E+00  0.000000000E+00  6.236124407E+01  6.236124407E+01  0.000000000E+00  0.00000E+00  9.000E+00
      21    -1     0     0   501   502  0.000000000E+00  0.000000000E+00 -1.194901494E+03  1.194901494E+03  0.000000000E+00  0.00000E+00  9.000E+00
      25     1     1     2     0     0  1.378344882E+02 -1.096434667E+02 -3.675142927E+02  4.262766605E+02  1.250000000E+02  0.00000E+00  9.000E+00
      25     1     1     2     0     0 -1.513090824E+02  1.136895255E+02 -7.788848550E+02  8.112375509E+02  1.250000000E+02  0.00000E+00  9.000E+00
      21     1     1     2   501   511  1.347459426E+01 -4.046058774E+00  1.385889743E+01  1.974852704E+01  1.039242493E-06  0.00000E+00  9.000E+00
#rwgt            1           1  0.12435340923746067                2      436520           0
</event>
<event>
      5   9999  3.79277E-02  1.16496E+02 -1.00000E+00  1.20917E-01
      21    -1     0     0   502   512  0.000000000E+00  0.000000000E+00  6.983877484E+02  6.983877484E+02  0.000000000E+00  0.00000E+00  9.000E+00
      21    -1     0     0   501   502  0.000000000E+00  0.000000000E+00 -1.292845192E+02  1.292845192E+02  0.000000000E+00  0.00000E+00  9.000E+00
      25     1     1     2     0     0 -8.627117177E+01  4.195747662E+01 -1.959380332E+01  1.587830660E+02  1.250000000E+02  0.00000E+00  9.000E+00
      25     1     1     2     0     0  1.265482465E+02  6.735447871E+01  4.447117121E+02  4.836781899E+02  1.250000000E+02  0.00000E+00  9.000E+00
      21     1     1     2   501   512 -4.027707474E+01 -1.093119553E+02  1.439853205E+02  1.852110117E+02  3.303624740E-06  0.00000E+00  9.000E+00
#rwgt            1           1   4.4707278100700534E-002           2      436937           0
</event>
<event>
      5   9999  3.79277E-02  1.32679E+01 -1.00000E+00  1.82556E-01
      21    -1     0     0   502   501  0.000000000E+00  0.000000000E+00  1.181476309E+02  1.181476309E+02  0.000000000E+00  0.00000E+00  9.000E+00
      21    -1     0     0   511   502  0.000000000E+00  0.000000000E+00 -6.178525946E+02  6.178525946E+02  0.000000000E+00  0.00000E+00  9.000E+00
      25     1     1     2     0     0 -5.635200137E+01 -1.119113441E+02  2.633738743E+01  1.789367346E+02  1.250000000E+02  0.00000E+00  9.000E+00
      25     1     1     2     0     0  5.583330934E+01  9.865360448E+01 -5.020076247E+02  5.296098067E+02  1.250000000E+02  0.00000E+00  9.000E+00
      21     1     1     2   511   501  5.186920269E-01  1.325773964E+01 -2.403472641E+01  2.745368419E+01  3.371747881E-07  0.00000E+00  9.000E+00
#rwgt            1           1   4.8954735266988451E-002           2      437028           0
</event>
<event>
      5   9999  3.79277E-02  3.17983E+01 -1.00000E+00  1.51304E-01
      21    -1     0     0   502   501  0.000000000E+00  0.000000000E+00  2.691696830E+02  2.691696830E+02  0.000000000E+00  0.00000E+00  9.000E+00
      21    -1     0     0   501   512  0.000000000E+00  0.000000000E+00 -1.740001593E+02  1.740001593E+02  0.000000000E+00  0.00000E+00  9.000E+00
      25     1     1     2     0     0 -1.155278311E+02  8.939925706E+01  1.384691655E+02  2.369337813E+02  1.250000000E+02  0.00000E+00  9.000E+00
      25     1     1     2     0     0  8.749653289E+01 -7.438670163E+01 -3.875290582E+01  1.741143657E+02  1.250000000E+02  0.00000E+00  9.000E+00
      21     1     1     2   502   512  2.803129817E+01 -1.501255543E+01 -4.546735951E+00  3.212169524E+01  4.986882368E-07  0.00000E+00  9.000E+00
#rwgt            1           1   4.2766273672098364E-002           2      437219           0
</event>
<event>
      5   9999  3.79277E-02  1.66102E+01 -1.00000E+00  1.73311E-01
      21    -1     0     0   511   501  0.000000000E+00  0.000000000E+00  8.827849464E+01  8.827849464E+01  0.000000000E+00  0.00000E+00  9.000E+00
      21    -1     0     0   501   502  0.000000000E+00  0.000000000E+00 -6.786030981E+02  6.786030981E+02  0.000000000E+00  0.00000E+00  9.000E+00
      25     1     1     2     0     0 -8.761490107E+01 -7.123265027E+01 -5.931764560E+01  1.785890378E+02  1.250000000E+02  0.00000E+00  9.000E+00
      25     1     1     2     0     0  7.944083226E+01  8.569235667E+01 -5.420035488E+02  5.683721252E+02  1.250000000E+02  0.00000E+00  9.000E+00
      21     1     1     2   511   502  8.174068813E+00 -1.445970640E+01  1.099659089E+01  1.992042975E+01  7.052516679E-07  0.00000E+00  9.000E+00
#rwgt            1           1   2.0403570180916038E-002           2      437358           0
</event>
<event>
      5   9999  3.79277E-02  7.30103E+01 -1.00000E+00  1.30301E-01
      21    -1     0     0   502   501  0.000000000E+00  0.000000000E+00  4.369427475E+02  4.369427475E+02  0.000000000E+00  0.00000E+00  9.000E+00
      21    -1     0     0   501   512  0.000000000E+00  0.000000000E+00 -1.702548688E+03  1.702548688E+03  0.000000000E+00  0.00000E+00  9.000E+00
      25     1     1     2     0     0 -2.010053693E+02  4.053639756E+00  1.901619710E+02  3.036546817E+02  1.250000000E+02  0.00000E+00  9.000E+00
      25     1     1     2     0     0  2.120457698E+02 -7.622432985E+01  1.014334835E+02  2.769247345E+02  1.250000000E+02  0.00000E+00  9.000E+00
      21     1     1     2   502   512 -1.104040052E+01  7.217069010E+01 -1.557201395E+03  1.558912020E+03  0.000000000E+00  0.00000E+00  9.000E+00
#rwgt            1           1   3.9008566713397606E-002           2      437529           0
</event>
<event>
      5   9999  3.79277E-02  5.58313E+01 -1.00000E+00  1.36396E-01
      21    -1     0     0   502   511  0.000000000E+00  0.000000000E+00  4.828072155E+01  4.828072155E+01  0.000000000E+00  0.00000E+00  9.000E+00
      21    -1     0     0   501   502  0.000000000E+00  0.000000000E+00 -1.417059452E+03  1.417059452E+03  0.000000000E+00  0.00000E+00  9.000E+00
      25     1     1     2     0     0  1.028667548E+02 -1.227323111E+02 -3.257728357E+02  3.839241200E+02  1.250000000E+02  0.00000E+00  9.000E+00
      25     1     1     2     0     0 -6.122671979E+01  1.599242947E+02 -9.462205977E+02  9.696818606E+02  1.250000000E+02  0.00000E+00  9.000E+00
      21     1     1     2   501   511 -4.164003503E+01 -3.719198362E+01 -9.678529750E+01  1.117341934E+02  1.348699152E-06  0.00000E+00  9.000E+00
#rwgt            1           1   4.3586764206094274E-002           2      437647           0
</event>
<event>
      5   9999  3.79277E-02  3.18431E+01 -1.00000E+00  1.51263E-01
      21    -1     0     0   502   501  0.000000000E+00  0.000000000E+00  4.328531316E+02  4.328531316E+02  0.000000000E+00  0.00000E+00  9.000E+00
      21    -1     0     0   501   512  0.000000000E+00  0.000000000E+00 -3.369482020E+02  3.369482020E+02  0.000000000E+00  0.00000E+00  9.000E+00
      25     1     1     2     0     0  1.175267038E+02  1.508508894E+02  1.230093485E+02  2.594702618E+02  1.250000000E+02  0.00000E+00  9.000E+00
      25     1     1     2     0     0 -9.055609703E+01 -1.677793420E+02  1.863889180E+02  2.944760484E+02  1.250000000E+02  0.00000E+00  9.000E+00
      21     1     1     2   502   512 -2.697060679E+01  1.692845261E+01 -2.134933371E+02  2.158550233E+02  0.000000000E+00  0.00000E+00  9.000E+00
#rwgt            1           1   4.1982316239371695E-002           2      437782           0
</event>
<event>
      5   9999  3.79277E-02  2.06920E+01 -1.00000E+00  1.65159E-01
      21    -1     0     0   511   501  0.000000000E+00  0.000000000E+00  6.560536842E+02  6.560536842E+02  0.000000000E+00  0.00000E+00  9.000E+00
      21    -1     0     0   501   502  0.000000000E+00  0.000000000E+00 -1.429114796E+02  1.429114796E+02  0.000000000E+00  0.00000E+00  9.000E+00
      25     1     1     2     0     0 -8.877391506E+01 -6.715933063E+01  4.763724129E+00  1.674481315E+02  1.250000000E+02  0.00000E+00  9.000E+00
      25     1     1     2     0     0  7.883180106E+01  8.530637006E+01  5.735227488E+01  1.800164244E+02  1.250000000E+02  0.00000E+00  9.000E+00
      21     1     1     2   511   502  9.942114001E+00 -1.814703942E+01  4.510262056E+02  4.515006078E+02  5.394796609E-06  0.00000E+00  9.000E+00
#rwgt            1           1   3.1443646136370622E-002           2      438049           0
</event>
<event>
      5   9999  3.79277E-02  5.07113E+01 -1.00000E+00  1.38726E-01
      21    -1     0     0   512   501  0.000000000E+00  0.000000000E+00  1.388072785E+03  1.388072785E+03  0.000000000E+00  0.00000E+00  9.000E+00
      21    -1     0     0   501   502  0.000000000E+00  0.000000000E+00 -6.732479610E+01  6.732479610E+01  0.000000000E+00  0.00000E+00  9.000E+00
      25     1     1     2     0     0 -2.017222069E+02 -1.683532136E+02  4.897372986E+02  5.696510115E+02  1.250000000E+02  0.00000E+00  9.000E+00
      25     1     1     2     0     0  1.511855455E+02  1.641478505E+02  6.878066090E+02  7.338286703E+02  1.250000000E+02  0.00000E+00  9.000E+00
      21     1     1     2   512   502  5.053666140E+01  4.205363057E+00  1.432040814E+02  1.519178994E+02  1.907348633E-06  0.00000E+00  9.000E+00
#rwgt            1           1   3.9905957703077595E-002           2      438470           0
</event>
<event>
      5   9999  3.79277E-02  4.62415E+01 -1.00000E+00  1.41040E-01
      21    -1     0     0   511   501  0.000000000E+00  0.000000000E+00  2.672938862E+02  2.672938862E+02  0.000000000E+00  0.00000E+00  9.000E+00
      21    -1     0     0   501   502  0.000000000E+00  0.000000000E+00 -1.973489626E+02  1.973489626E+02  0.000000000E+00  0.00000E+00  9.000E+00
      25     1     1     2     0     0  1.023083661E+02  2.824718983E+01 -1.106844709E+02  1.978407380E+02  1.250000000E+02  0.00000E+00  9.000E+00
      25     1     1     2     0     0 -7.915104201E+01  1.177798225E+01  1.518456334E+02  2.123339462E+02  1.250000000E+02  0.00000E+00  9.000E+00
      21     1     1     2   511   502 -2.315732411E+01 -4.002517208E+01  2.878376111E+01  5.446816468E+01  3.371747881E-07  0.00000E+00  9.000E+00
#rwgt            1           1   4.3845716225200788E-002           2      438558           0
</event>
<event>
      5   9999  3.79277E-02  1.29076E+02 -1.00000E+00  1.19039E-01
      21    -1     0     0   502   501  0.000000000E+00  0.000000000E+00  1.924817130E+02  1.924817130E+02  0.000000000E+00  0.00000E+00  9.000E+00
      21    -1     0     0   512   502  0.000000000E+00  0.000000000E+00 -4.843725100E+02  4.843725100E+02  0.000000000E+00  0.00000E+00  9.000E+00
      25     1     1     2     0     0 -1.218803712E+02 -6.685662732E+01 -2.541712053E+02  3.155196271E+02  1.250000000E+02  0.00000E+00  9.000E+00
      25     1     1     2     0     0  1.494164397E-01  2.393658949E+01  1.078206219E+02  1.668030849E+02  1.250000000E+02  0.00000E+00  9.000E+00
      21     1     1     2   512   501  1.217309547E+02  4.292003783E+01 -1.455402136E+02  1.945315109E+02  0.000000000E+00  0.00000E+00  9.000E+00
#rwgt            1           1   4.5577585700605147E-002           2      438693           0
</event>
<event>
      5   9999  3.79277E-02  4.44870E+01 -1.00000E+00  1.42034E-01
      21    -1     0     0   502   511  0.000000000E+00  0.000000000E+00  9.539683141E+01  9.539683141E+01  0.000000000E+00  0.00000E+00  9.000E+00
      21    -1     0     0   501   502  0.000000000E+00  0.000000000E+00 -9.268850212E+02  9.268850212E+02  0.000000000E+00  0.00000E+00  9.000E+00
      25     1     1     2     0     0  1.531717685E+02 -1.849761522E+02 -2.509850323E+02  3.691832255E+02  1.250000000E+02  0.00000E+00  9.000E+00
      25     1     1     2     0     0 -1.666826319E+02  1.425904454E+02 -5.194815696E+02  5.775822331E+02  1.250000000E+02  0.00000E+00  9.000E+00
      21     1     1     2   501   511  1.351086345E+01  4.238570683E+01 -6.102158796E+01  7.551639406E+01  9.536743164E-07  0.00000E+00  9.000E+00
#rwgt            1           1   3.2542253991969042E-002           2      438752           0
</event>
<event>
      5   9999  3.79277E-02  6.34160E+01 -1.00000E+00  1.33431E-01
      21    -1     0     0   502   501  0.000000000E+00  0.000000000E+00  1.248074711E+02  1.248074711E+02  0.000000000E+00  0.00000E+00  9.000E+00
      21    -1     0     0   512   502  0.000000000E+00  0.000000000E+00 -5.474160970E+02  5.474160970E+02  0.000000000E+00  0.00000E+00  9.000E+00
      25     1     1     2     0     0 -1.674156319E+02 -9.787824380E+01 -3.314835656E+02  4.038743600E+02  1.250000000E+02  0.00000E+00  9.000E+00
      25     1     1     2     0     0  1.208615040E+02  5.481657385E+01 -3.941540809E+01  1.865232809E+02  1.250000000E+02  0.00000E+00  9.000E+00
      21     1     1     2   512   501  4.655412788E+01  4.306166995E+01 -5.170965223E+01  8.182592728E+01  9.536743164E-07  0.00000E+00  9.000E+00
#rwgt            1           1   4.1839078857149138E-002           2      438955           0
</event>
<event>
      5   9999  3.79277E-02  5.95413E+01 -1.00000E+00  1.34882E-01
      21    -1     0     0   502   501  0.000000000E+00  0.000000000E+00  2.558809033E+02  2.558809033E+02  0.000000000E+00  0.00000E+00  9.000E+00
      21    -1     0     0   511   502  0.000000000E+00  0.000000000E+00 -8.497625781E+02  8.497625781E+02  0.000000000E+00  0.00000E+00  9.000E+00
      25     1     1     2     0     0  3.931988354E+01 -2.268040011E+02  4.117513505E+01  2.651537288E+02  1.250000000E+02  0.00000E+00  9.000E+00
      25     1     1     2     0     0  1.970956364E+01  2.345944512E+02 -7.447835558E+01  2.767581054E+02  1.250000000E+02  0.00000E+00  9.000E+00
      21     1     1     2   511   501 -5.902944718E+01 -7.790450181E+00 -5.605784543E+02  5.637316473E+02  7.629394531E-06  0.00000E+00  9.000E+00
#rwgt            1           1  0.15838835244853830                2      439149           0
</event>
<event>
      5   9999  3.79277E-02  1.25673E+02 -1.00000E+00  1.19523E-01
      21    -1     0     0   502   501  0.000000000E+00  0.000000000E+00  4.376789312E+02  4.376789312E+02  0.000000000E+00  0.00000E+00  9.000E+00
      21    -1     0     0   512   502  0.000000000E+00  0.000000000E+00 -1.939552952E+02  1.939552952E+02  0.000000000E+00  0.00000E+00  9.000E+00
      25     1     1     2     0     0 -7.976102182E+01  2.938054779E+00  7.283361228E+01  1.652276849E+02  1.250000000E+02  0.00000E+00  9.000E+00
      25     1     1     2     0     0  4.133573451E+01  1.167166917E+02  2.588671787E+02  3.129994333E+02  1.250000000E+02  0.00000E+00  9.000E+00
      21     1     1     2   512   501  3.842528731E+01 -1.196547464E+02 -8.797715491E+01  1.534071082E+02  1.348699152E-06  0.00000E+00  9.000E+00
#rwgt            1           1   4.1886627299032725E-002           2      439296           0
</event>
<event>
      5   9999  3.79277E-02  8.67038E+01 -1.00000E+00  1.26680E-01
      21    -1     0     0   502   501  0.000000000E+00  0.000000000E+00  2.732673849E+02  2.732673849E+02  0.000000000E+00  0.00000E+00  9.000E+00
       2    -1     0     0   501     0  0.000000000E+00  0.000000000E+00 -9.763125684E+02  9.763125684E+02  0.000000000E+00  0.00000E+00  9.000E+00
      25     1     1     2     0     0 -4.029856680E+00 -2.147590874E+02  1.307363820E+02  2.808108028E+02  1.250000000E+02  0.00000E+00  9.000E+00
      25     1     1     2     0     0  7.916899733E+01  2.580216734E+02 -2.808394376E+02  4.090705365E+02  1.250000000E+02  0.00000E+00  9.000E+00
       2     1     1     2   502     0 -7.513914065E+01 -4.326258606E+01 -5.529421279E+02  5.596986141E+02  0.000000000E+00  0.00000E+00  9.000E+00
#rwgt            1           1   3.4906397240932800E-002           2      439472           0
</event>
<event>
      5   9999  3.79277E-02  5.63657E+01 -1.00000E+00  1.36170E-01
      21    -1     0     0   511   501  0.000000000E+00  0.000000000E+00  8.539401685E+01  8.539401685E+01  0.000000000E+00  0.00000E+00  9.000E+00
      21    -1     0     0   501   502  0.000000000E+00  0.000000000E+00 -5.874919839E+02  5.874919839E+02  0.000000000E+00  0.00000E+00  9.000E+00
      25     1     1     2     0     0 -1.352148616E+01  2.981160788E+01 -4.455697582E+02  4.639277659E+02  1.250000000E+02  0.00000E+00  9.000E+00
      25     1     1     2     0     0  5.961803500E+01  2.625998618E+00 -1.578886451E+01  1.394112413E+02  1.250000000E+02  0.00000E+00  9.000E+00
      21     1     1     2   511   502 -4.609654884E+01 -3.243760650E+01 -4.073934436E+01  6.954699353E+01  1.507891493E-06  0.00000E+00  9.000E+00
#rwgt            1           1   4.0215600083739235E-002           2      439560           0
</event>
<event>
      5   9999 -3.79277E-02  3.82139E+01 -1.00000E+00  1.46081E-01
      21    -1     0     0   502   512  0.000000000E+00  0.000000000E+00  1.521556654E+01  1.521556654E+01  0.000000000E+00  0.00000E+00  9.000E+00
      21    -1     0     0   501   502  0.000000000E+00  0.000000000E+00 -2.474919405E+03  2.474919405E+03  0.000000000E+00  0.00000E+00  9.000E+00
      25     1     1     2     0     0  1.110543305E+02  5.383826097E+01 -9.279467940E+02  9.444267442E+02  1.250000000E+02  0.00000E+00  9.000E+00
      25     1     1     2     0     0 -9.024851398E+01 -2.178486142E+01 -1.396594108E+03  1.405247123E+03  1.250000000E+02  0.00000E+00  9.000E+00
      21     1     1     2   501   512 -2.080581648E+01 -3.205339955E+01 -1.351629370E+02  1.404611048E+02  0.000000000E+00  0.00000E+00  9.000E+00
#rwgt            1           1  -1.5185552333483381E-002           2      439756           0
</event>
<event>
      5   9999  3.79277E-02  3.27995E+02 -1.00000E+00  1.04348E-01
       5    -1     0     0   502     0  0.000000000E+00  0.000000000E+00  8.470505829E+02  8.470505829E+02  0.000000000E+00  0.00000E+00  9.000E+00
      21    -1     0     0   501   502  0.000000000E+00  0.000000000E+00 -4.542245075E+02  4.542245075E+02  0.000000000E+00  0.00000E+00  9.000E+00
      25     1     1     2     0     0 -8.638362737E+01 -1.110384494E+01  7.431752541E+01  1.695096488E+02  1.250000000E+02  0.00000E+00  9.000E+00
      25     1     1     2     0     0  4.126175980E+02 -2.283734568E+01 -2.326203152E+02  4.904202662E+02  1.250000000E+02  0.00000E+00  9.000E+00
       5     1     1     2   501     0 -3.262339706E+02  3.394119062E+01  5.511288652E+02  6.413451754E+02  7.629394531E-06  0.00000E+00  9.000E+00
#rwgt            2          21   5.4447590551244751E-006           2      440617           0
</event>
<event>
      5   9999  3.79277E-02  1.45864E+01 -1.00000E+00  1.78535E-01
      21    -1     0     0   511   501  0.000000000E+00  0.000000000E+00  3.359001197E+02  3.359001197E+02  0.000000000E+00  0.00000E+00  9.000E+00
      21    -1     0     0   501   502  0.000000000E+00  0.000000000E+00 -9.983958003E+01  9.983958003E+01  0.000000000E+00  0.00000E+00  9.000E+00
      25     1     1     2     0     0  9.643253324E+01  6.216096492E+01  1.279716094E+02  2.125204739E+02  1.250000000E+02  0.00000E+00  9.000E+00
      25     1     1     2     0     0 -8.651658897E+01 -7.285853314E+01  7.018319768E+01  1.826038533E+02  1.250000000E+02  0.00000E+00  9.000E+00
      21     1     1     2   511   502 -9.915944274E+00  1.069756822E+01  3.790573259E+01  4.061537246E+01  8.259061849E-07  0.00000E+00  9.000E+00
#rwgt            1           1   4.8205863792320704E-002           2      440726           0
</event>
<event>
      5   9999  3.79277E-02  2.62080E+01 -1.00000E+00  1.57231E-01
      21    -1     0     0   512   501  0.000000000E+00  0.000000000E+00  8.640992371E+02  8.640992371E+02  0.000000000E+00  0.00000E+00  9.000E+00
      21    -1     0     0   501   502  0.000000000E+00  0.000000000E+00 -6.624872689E+01  6.624872689E+01  0.000000000E+00  0.00000E+00  9.000E+00
      25     1     1     2     0     0 -8.445420649E+01  3.126313093E+01  5.041466363E+01  1.621003845E+02  1.250000000E+02  0.00000E+00  9.000E+00
      25     1     1     2     0     0  6.800681188E+01 -5.166759094E+01  6.394586230E+02  6.571352958E+02  1.250000000E+02  0.00000E+00  9.000E+00
      21     1     1     2   512   502  1.644739462E+01  2.040446001E+01  1.079772236E+02  1.111122837E+02  1.348699152E-06  0.00000E+00  9.000E+00
#rwgt            1           1   5.0093767321813636E-002           2      440904           0
</event>
<event>
      5   9999 -3.79277E-02  4.02335E+00 -1.00000E+00  2.62876E-01
      21    -1     0     0   502   501  0.000000000E+00  0.000000000E+00  2.965017345E+02  2.965017345E+02  0.000000000E+00  0.00000E+00  9.000E+00
      21    -1     0     0   511   502  0.000000000E+00  0.000000000E+00 -4.789354673E+02  4.789354673E+02  0.000000000E+00  0.00000E+00  9.000E+00
      25     1     1     2     0     0 -3.321700382E+02 -5.518474394E+01  2.083155075E+01  3.597794377E+02  1.250000000E+02  0.00000E+00  9.000E+00
      25     1     1     2     0     0  3.281842310E+02  5.463642671E+01 -1.925584970E+02  4.042199938E+02  1.250000000E+02  0.00000E+00  9.000E+00
      21     1     1     2   511   501  3.985807184E+00  5.483172215E-01 -1.070678652E+01  1.143777025E+01  2.064765462E-07  0.00000E+00  9.000E+00
#rwgt            1           1  -1.3767041790447366E-002           2      441112           0
</event>
<event>
      5   9999  3.79277E-02  1.09030E+02 -1.00000E+00  1.22162E-01
      21    -1     0     0   502   501  0.000000000E+00  0.000000000E+00  4.382062649E+02  4.382062649E+02  0.000000000E+00  0.00000E+00  9.000E+00
      -2    -1     0     0     0   502  0.000000000E+00  0.000000000E+00 -2.676713540E+02  2.676713540E+02  0.000000000E+00  0.00000E+00  9.000E+00
      25     1     1     2     0     0 -1.176193704E+02 -2.533225254E+01  8.725118828E+01  1.942004355E+02  1.250000000E+02  0.00000E+00  9.000E+00
      25     1     1     2     0     0  1.441778506E+02 -8.041391158E+01  2.423905438E+02  3.187974679E+02  1.250000000E+02  0.00000E+00  9.000E+00
      -2     1     1     2     0   501 -2.655848025E+01  1.057461641E+02 -1.591068212E+02  1.928797155E+02  3.814697266E-06  0.00000E+00  9.000E+00
#rwgt            1           1   2.7676958436567808E-002           2      441655           0
</event>
<event>
      5   9999  3.79277E-02  1.42832E+02 -1.00000E+00  1.17243E-01
       2    -1     0     0   502     0  0.000000000E+00  0.000000000E+00  7.406743888E+02  7.406743888E+02  0.000000000E+00  0.00000E+00  9.000E+00
      21    -1     0     0   501   502  0.000000000E+00  0.000000000E+00 -5.517478118E+02  5.517478118E+02  0.000000000E+00  0.00000E+00  9.000E+00
      25     1     1     2     0     0 -9.228352059E+01  1.894257458E+02 -4.083207636E+02  4.761819057E+02  1.250000000E+02  0.00000E+00  9.000E+00
      25     1     1     2     0     0  1.326852044E+02 -5.242662122E+01 -1.239870008E+01  1.900858802E+02  1.250000000E+02  0.00000E+00  9.000E+00
       2     1     1     2   501     0 -4.040168383E+01 -1.369991246E+02  6.096460406E+02  6.261544147E+02  7.629394531E-06  0.00000E+00  9.000E+00
#rwgt            1           1   3.7632848337906685E-002           2      441771           0
</event>
<event>
      5   9999  3.79277E-02  5.07650E+01 -1.00000E+00  1.38700E-01
      21    -1     0     0   502   501  0.000000000E+00  0.000000000E+00  2.991820494E+02  2.991820494E+02  0.000000000E+00  0.00000E+00  9.000E+00
      21    -1     0     0   501   511  0.000000000E+00  0.000000000E+00 -2.609398080E+02  2.609398080E+02  0.000000000E+00  0.00000E+00  9.000E+00
      25     1     1     2     0     0 -1.444482025E+02  1.554098868E+02 -8.915834176E+01  2.619002215E+02  1.250000000E+02  0.00000E+00  9.000E+00
      25     1     1     2     0     0  1.200550068E+02 -1.108895866E+02  1.361314392E+02  2.467113168E+02  1.250000000E+02  0.00000E+00  9.000E+00
      21     1     1     2   502   511  2.439319568E+01 -4.452030019E+01 -8.730856062E+00  5.151031908E+01  6.307962682E-07  0.00000E+00  9.000E+00
#rwgt            2          11   3.6390547172544907E-003           2      441864           0
</event>
<event>
      5   9999  3.79277E-02  1.45503E+02 -1.00000E+00  1.16920E-01
      21    -1     0     0   502   501  0.000000000E+00  0.000000000E+00  8.297629454E+02  8.297629454E+02  0.000000000E+00  0.00000E+00  9.000E+00
      21    -1     0     0   512   502  0.000000000E+00  0.000000000E+00 -1.540926295E+02  1.540926295E+02  0.000000000E+00  0.00000E+00  9.000E+00
      25     1     1     2     0     0  7.858139023E+01  9.038169911E+01  4.993794831E+02  5.285345349E+02  1.250000000E+02  0.00000E+00  9.000E+00
      25     1     1     2     0     0  5.173507632E+01 -1.551026441E+02  2.220795484E+02  3.027832131E+02  1.250000000E+02  0.00000E+00  9.000E+00
      21     1     1     2   512   501 -1.303164665E+02  6.472094499E+01 -4.578871553E+01  1.525378269E+02  2.939421655E-06  0.00000E+00  9.000E+00
#rwgt            2          11   3.2495964324355882E-003           2      442004           0
</event>
<event>
      5   9999 -3.79277E-02  3.89875E+01 -1.00000E+00  1.45534E-01
       4    -1     0     0   502     0  0.000000000E+00  0.000000000E+00  3.135106139E+02  3.135106139E+02  0.000000000E+00  0.00000E+00  9.000E+00
      21    -1     0     0   501   502  0.000000000E+00  0.000000000E+00 -2.267444864E+02  2.267444864E+02  0.000000000E+00  0.00000E+00  9.000E+00
      25     1     1     2     0     0  5.084650688E+01  1.616446661E+02  2.393408735E+00  2.105827480E+02  1.250000000E+02  0.00000E+00  9.000E+00
      25     1     1     2     0     0 -7.033908157E+01 -1.278798760E+02 -4.261916504E+01  1.968304913E+02  1.250000000E+02  0.00000E+00  9.000E+00
       4     1     1     2   501     0  1.949257468E+01 -3.376479011E+01  1.269918838E+02  1.328418611E+02  1.907348633E-06  0.00000E+00  9.000E+00
#rwgt            1           1 -0.13789068684551131                2      442099           0
</event>
<event>
      5   9999  3.79277E-02  9.87138E+01 -1.00000E+00  1.24081E-01
      21    -1     0     0   511   501  0.000000000E+00  0.000000000E+00  1.361264060E+02  1.361264060E+02  0.000000000E+00  0.00000E+00  9.000E+00
      21    -1     0     0   501   502  0.000000000E+00  0.000000000E+00 -3.666828588E+02  3.666828588E+02  0.000000000E+00  0.00000E+00  9.000E+00
      25     1     1     2     0     0  8.132256829E+01  1.391500260E+02 -1.380700227E+02  2.463014840E+02  1.250000000E+02  0.00000E+00  9.000E+00
      25     1     1     2     0     0 -3.434729965E+01 -5.232991036E+01 -4.420635823E+01  1.466197757E+02  1.250000000E+02  0.00000E+00  9.000E+00
      21     1     1     2   511   502 -4.697526864E+01 -8.682011564E+01 -4.828007182E+01  1.098880052E+02  6.743495762E-07  0.00000E+00  9.000E+00
#rwgt            1           1   4.0556837529787136E-002           2      442194           0
</event>
<event>
      5   9999  3.79277E-02  3.47580E+01 -1.00000E+00  1.48728E-01
      21    -1     0     0   502   501  0.000000000E+00  0.000000000E+00  5.465675388E+02  5.465675388E+02  0.000000000E+00  0.00000E+00  9.000E+00
      21    -1     0     0   512   502  0.000000000E+00  0.000000000E+00 -6.405246512E+01  6.405246512E+01  0.000000000E+00  0.00000E+00  9.000E+00
      25     1     1     2     0     0  9.824874060E+01  2.465132073E+01  2.348305744E+02  2.846592723E+02  1.250000000E+02  0.00000E+00  9.000E+00
      25     1     1     2     0     0 -1.105933819E+02 -5.714329461E+01  2.164135149E+02  2.792061276E+02  1.250000000E+02  0.00000E+00  9.000E+00
      21     1     1     2   512   501  1.234464127E+01  3.249197388E+01  3.127098436E+01  4.675460402E+01  7.539457465E-07  0.00000E+00  9.000E+00
#rwgt            1           1   3.0662980314659895E-002           2      442266           0
</event>
<event>
      5   9999 -3.79277E-02  9.56764E+01 -1.00000E+00  1.24697E-01
      21    -1     0     0   511   501  0.000000000E+00  0.000000000E+00  3.362090425E+02  3.362090425E+02  0.000000000E+00  0.00000E+00  9.000E+00
      21    -1     0     0   501   502  0.000000000E+00  0.000000000E+00 -1.753424313E+02  1.753424313E+02  0.000000000E+00  0.00000E+00  9.000E+00
      25     1     1     2     0     0 -1.514022284E+02 -8.910921485E+01  3.892030237E+01  2.190955884E+02  1.250000000E+02  0.00000E+00  9.000E+00
      25     1     1     2     0     0  1.102823839E+02  2.719771165E+00  5.451119980E+01  1.754026005E+02  1.250000000E+02  0.00000E+00  9.000E+00
      21     1     1     2   511   502  4.111984442E+01  8.638944368E+01  6.743510905E+01  1.170532849E+02  0.000000000E+00  0.00000E+00  9.000E+00
#rwgt            1           1  -3.8187439573100689E-002           2      442374           0
</event>
<event>
      5   9999  3.79277E-02  2.35094E+01 -1.00000E+00  1.60777E-01
      21    -1     0     0   512   501  0.000000000E+00  0.000000000E+00  5.441609323E+02  5.441609323E+02  0.000000000E+00  0.00000E+00  9.000E+00
      21    -1     0     0   501   502  0.000000000E+00  0.000000000E+00 -6.191298315E+01  6.191298315E+01  0.000000000E+00  0.00000E+00  9.000E+00
      25     1     1     2     0     0  7.373675495E+01 -2.559321183E+00  3.175118819E+02  3.491166772E+02  1.250000000E+02  0.00000E+00  9.000E+00
      25     1     1     2     0     0 -7.999546354E+01 -2.010167279E+01  8.157475143E+01  1.705367746E+02  1.250000000E+02  0.00000E+00  9.000E+00
      21     1     1     2   512   502  6.258708593E+00  2.266099397E+01  8.316131583E+01  8.642046362E+01  9.536743164E-07  0.00000E+00  9.000E+00
#rwgt            1           1   3.2805344322656839E-002           2      442476           0
</event>
<event>
      5   9999  3.79277E-02  1.03613E+02 -1.00000E+00  1.23139E-01
      21    -1     0     0   502   501  0.000000000E+00  0.000000000E+00  3.532203860E+02  3.532203860E+02  0.000000000E+00  0.00000E+00  9.000E+00
      -3    -1     0     0     0   502  0.000000000E+00  0.000000000E+00 -5.104988579E+02  5.104988579E+02  0.000000000E+00  0.00000E+00  9.000E+00
      25     1     1     2     0     0  1.437891672E+02 -1.965701035E+02 -1.896414453E+02  3.330225337E+02  1.250000000E+02  0.00000E+00  9.000E+00
      25     1     1     2     0     0 -2.473621189E+02  1.936758254E+02  1.534679063E+02  3.713162284E+02  1.250000000E+02  0.00000E+00  9.000E+00
      -3     1     1     2     0   501  1.035729517E+02  2.894278177E+00 -1.211049330E+02  1.593804818E+02  2.697398305E-06  0.00000E+00  9.000E+00
#rwgt            2           8   1.5917928760294841E-005           2      442600           0
</event>
<event>
      5   9999  3.79277E-02  8.84631E+01 -1.00000E+00  1.26271E-01
      21    -1     0     0   502   511  0.000000000E+00  0.000000000E+00  3.915404158E+02  3.915404158E+02  0.000000000E+00  0.00000E+00  9.000E+00
      21    -1     0     0   501   502  0.000000000E+00  0.000000000E+00 -7.603864079E+02  7.603864079E+02  0.000000000E+00  0.00000E+00  9.000E+00
      25     1     1     2     0     0 -6.100538881E+01 -2.106792005E+01 -6.451817752E+02  6.603408497E+02  1.250000000E+02  0.00000E+00  9.000E+00
      25     1     1     2     0     0  8.692257323E+01  1.056493989E+02 -1.614589095E+01  1.860188674E+02  1.250000000E+02  0.00000E+00  9.000E+00
      21     1     1     2   501   511 -2.591718441E+01 -8.458147889E+01  2.924816740E+02  3.055671066E+02  3.814697266E-06  0.00000E+00  9.000E+00
#rwgt            1           1   2.9423251738550042E-002           2      442619           0
</event>
<event>
      5   9999  3.79277E-02  2.26637E+01 -1.00000E+00  1.62010E-01
      21    -1     0     0   502   501  0.000000000E+00  0.000000000E+00  3.125489285E+02  3.125489285E+02  0.000000000E+00  0.00000E+00  9.000E+00
      21    -1     0     0   512   502  0.000000000E+00  0.000000000E+00 -3.309047749E+02  3.309047749E+02  0.000000000E+00  0.00000E+00  9.000E+00
      25     1     1     2     0     0  1.051810842E+02  3.070427897E+01 -2.536819936E+02  3.032908952E+02  1.250000000E+02  0.00000E+00  9.000E+00
      25     1     1     2     0     0 -8.262203619E+01 -2.852893868E+01  2.632212274E+02  3.042214913E+02  1.250000000E+02  0.00000E+00  9.000E+00
      21     1     1     2   512   501 -2.255904806E+01 -2.175340290E+00 -2.789508026E+01  3.594131686E+01  3.371747881E-07  0.00000E+00  9.000E+00
#rwgt            1           1   4.3536501272940384E-002           2      442738           0
</event>
<event>
      5   9999  3.79277E-02  5.48815E+01 -1.00000E+00  1.36806E-01
      21    -1     0     0   502   501  0.000000000E+00  0.000000000E+00  1.357782536E+02  1.357782536E+02  0.000000000E+00  0.00000E+00  9.000E+00
      21    -1     0     0   511   502  0.000000000E+00  0.000000000E+00 -3.868223623E+02  3.868223623E+02  0.000000000E+00  0.00000E+00  9.000E+00
      25     1     1     2     0     0  1.773809562E+01 -1.685859682E+02 -9.285381572E+01  2.301797120E+02  1.250000000E+02  0.00000E+00  9.000E+00
      25     1     1     2     0     0  2.838609245E+01  1.388447248E+02 -1.059067229E+02  2.166214712E+02  1.250000000E+02  0.00000E+00  9.000E+00
      21     1     1     2   511   501 -4.612418808E+01  2.974124347E+01 -5.228357006E+01  7.579943263E+01  0.000000000E+00  0.00000E+00  9.000E+00
#rwgt            1           1   3.0247325789809591E-002           2      442892           0
</event>
<event>
      5   9999  3.79277E-02  8.58016E+00 -1.00000E+00  2.03773E-01
      21    -1     0     0   502   501  0.000000000E+00  0.000000000E+00  5.141241717E+02  5.141241717E+02  0.000000000E+00  0.00000E+00  9.000E+00
      21    -1     0     0   512   502  0.000000000E+00  0.000000000E+00 -6.617764233E+01  6.617764233E+01  0.000000000E+00  0.00000E+00  9.000E+00
      25     1     1     2     0     0 -4.235060818E+01  1.169096751E+02  2.273184962E+02  2.876806299E+02  1.250000000E+02  0.00000E+00  9.000E+00
      25     1     1     2     0     0  5.090227391E+01 -1.162109854E+02  2.212374097E+02  2.840194114E+02  1.250000000E+02  0.00000E+00  9.000E+00
      21     1     1     2   512   501 -8.551665726E+00 -6.986897079E-01 -6.093764843E-01  8.601772707E+00  1.377853901E-07  0.00000E+00  9.000E+00
#rwgt            1           1   3.7199455413818049E-002           2      443007           0
</event>
<event>
      5   9999  3.79277E-02  1.16559E+02 -1.00000E+00  1.20907E-01
      21    -1     0     0   511   501  0.000000000E+00  0.000000000E+00  2.041069642E+01  2.041069642E+01  0.000000000E+00  0.00000E+00  9.000E+00
      21    -1     0     0   501   502  0.000000000E+00  0.000000000E+00 -2.169701367E+03  2.169701367E+03  0.000000000E+00  0.00000E+00  9.000E+00
      25     1     1     2     0     0 -5.950699245E+01  9.850742922E+01 -1.039950160E+03  1.053739119E+03  1.250000000E+02  0.00000E+00  9.000E+00
      25     1     1     2     0     0  1.202081097E+01  7.939850961E+00 -6.771142877E+02  6.887062507E+02  1.250000000E+02  0.00000E+00  9.000E+00
      21     1     1     2   511   502  4.748618148E+01 -1.064472802E+02 -4.322262235E+02  4.476666942E+02  0.000000000E+00  0.00000E+00  9.000E+00
#rwgt            1           1   6.6619266622413076E-002           2      443561           0
</event>
<event>
      5   9999  3.79277E-02  7.22666E+01 -1.00000E+00  1.30524E-01
      21    -1     0     0   502   501  0.000000000E+00  0.000000000E+00  4.275863820E+02  4.275863820E+02  0.000000000E+00  0.00000E+00  9.000E+00
      21    -1     0     0   501   512  0.000000000E+00  0.000000000E+00 -1.646356096E+02  1.646356096E+02  0.000000000E+00  0.00000E+00  9.000E+00
      25     1     1     2     0     0 -6.620033337E+00  7.480274673E+01  3.191560339E+02  3.508915071E+02  1.250000000E+02  0.00000E+00  9.000E+00
      25     1     1     2     0     0 -6.135837916E+01 -5.027922054E+01 -7.598218395E+01  1.664065593E+02  1.250000000E+02  0.00000E+00  9.000E+00
      21     1     1     2   502   512  6.797841249E+01 -2.452352619E+01  1.977692249E+01  7.492392519E+01  8.920806376E-07  0.00000E+00  9.000E+00
#rwgt            1           1   4.2292979675505264E-002           2      443781           0
</event>
<event>
      5   9999  3.79277E-02  6.07656E+01 -1.00000E+00  1.34410E-01
      21    -1     0     0   502   511  0.000000000E+00  0.000000000E+00  5.466035811E+02  5.466035811E+02  0.000000000E+00  0.00000E+00  9.000E+00
      21    -1     0     0   501   502  0.000000000E+00  0.000000000E+00 -3.429717241E+02  3.429717241E+02  0.000000000E+00  0.00000E+00  9.000E+00
      25     1     1     2     0     0  2.703720679E+02 -8.603064945E+01 -1.807673160E+02  3.588929510E+02  1.250000000E+02  0.00000E+00  9.000E+00
      25     1     1     2     0     0 -2.194676069E+02  1.192148417E+02  2.203760212E+02  3.557650906E+02  1.250000000E+02  0.00000E+00  9.000E+00
      21     1     1     2   501   511 -5.090446094E+01 -3.318419224E+01  1.640231519E+02  1.749172636E+02  0.000000000E+00  0.00000E+00  9.000E+00
#rwgt            1           1   4.5029996854350399E-002           2      443904           0
</event>
<event>
      5   9999  3.79277E-02  6.04995E+01 -1.00000E+00  1.34511E-01
       2    -1     0     0   502     0  0.000000000E+00  0.000000000E+00  4.367938105E+02  4.367938105E+02  0.000000000E+00  0.00000E+00  9.000E+00
      21    -1     0     0   501   502  0.000000000E+00  0.000000000E+00 -2.197212906E+03  2.197212906E+03  0.000000000E+00  0.00000E+00  9.000E+00
      25     1     1     2     0     0 -3.148420353E+02  1.409348115E+02 -3.130559382E+02  4.823040003E+02  1.250000000E+02  0.00000E+00  9.000E+00
      25     1     1     2     0     0  2.608670254E+02 -1.136054849E+02 -1.783393609E+03  1.810269476E+03  1.250000000E+02  0.00000E+00  9.000E+00
       2     1     1     2   501     0  5.397500991E+01 -2.732932659E+01  3.360304512E+02  3.414332408E+02  6.607249480E-06  0.00000E+00  9.000E+00
#rwgt            1           1  0.13545058748662017                2      444053           0
</event>
<event>
      5   9999  3.79277E-02  3.82921E+01 -1.00000E+00  1.46025E-01
      21    -1     0     0   511   501  0.000000000E+00  0.000000000E+00  9.237677913E+02  9.237677913E+02  0.000000000E+00  0.00000E+00  9.000E+00
      21    -1     0     0   501   502  0.000000000E+00  0.000000000E+00 -7.403710955E+02  7.403710955E+02  0.000000000E+00  0.00000E+00  9.000E+00
      25     1     1     2     0     0 -2.403291160E+02  2.405126149E+02 -1.325846877E+02  3.857565311E+02  1.250000000E+02  0.00000E+00  9.000E+00
      25     1     1     2     0     0  2.508528166E+02 -2.036950514E+02 -4.182700158E+02  5.431331472E+02  1.250000000E+02  0.00000E+00  9.000E+00
      21     1     1     2   511   502 -1.052370058E+01 -3.681756350E+01  7.342513992E+02  7.352492084E+02  0.000000000E+00  0.00000E+00  9.000E+00
#rwgt            1           1   1.3395646592888579E-002           2      444185           0
</event>
<event>
      5   9999  3.79277E-02  1.20338E+02 -1.00000E+00  1.20317E-01
      21    -1     0     0   512   501  0.000000000E+00  0.000000000E+00  1.025086779E+03  1.025086779E+03  0.000000000E+00  0.00000E+00  9.000E+00
      21    -1     0     0   501   502  0.000000000E+00  0.000000000E+00 -3.274315300E+02  3.274315300E+02  0.000000000E+00  0.00000E+00  9.000E+00
      25     1     1     2     0     0  1.755197185E+02 -3.148337829E+01 -1.120006398E+02  2.448826617E+02  1.250000000E+02  0.00000E+00  9.000E+00
      25     1     1     2     0     0 -2.330981274E+02 -7.418522002E+01 -1.416649236E+01  2.750706698E+02  1.250000000E+02  0.00000E+00  9.000E+00
      21     1     1     2   512   502  5.757840891E+01  1.056685983E+02  8.238223807E+02  8.325649769E+02  1.078959322E-05  0.00000E+00  9.000E+00
#rwgt            1           1  0.10803016882286719                2      444345           0
</event>
<event>
      5   9999  3.79277E-02  3.01393E+01 -1.00000E+00  1.52900E-01
      21    -1     0     0   502   501  0.000000000E+00  0.000000000E+00  4.510749801E+02  4.510749801E+02  0.000000000E+00  0.00000E+00  9.000E+00
      21    -1     0     0   511   502  0.000000000E+00  0.000000000E+00 -1.078745900E+02  1.078745900E+02  0.000000000E+00  0.00000E+00  9.000E+00
      25     1     1     2     0     0 -1.275920220E+02 -2.754318789E+01  3.190345389E+02  3.666693173E+02  1.250000000E+02  0.00000E+00  9.000E+00
      25     1     1     2     0     0  9.839010305E+01  2.008492376E+01  2.409656013E+01  1.621408670E+02  1.250000000E+02  0.00000E+00  9.000E+00
      21     1     1     2   511   501  2.920191895E+01  7.458264126E+00  6.929103847E-02  3.013938579E+01  3.254209530E-07  0.00000E+00  9.000E+00
#rwgt            1           1   4.0888011934382205E-002           2      444439           0
</event>
<event>
      5   9999  3.79277E-02  2.09028E+02 -1.00000E+00  1.10954E-01
      21    -1     0     0   502   512  0.000000000E+00  0.000000000E+00  4.373971515E+02  4.373971515E+02  0.000000000E+00  0.00000E+00  9.000E+00
      21    -1     0     0   501   502  0.000000000E+00  0.000000000E+00 -5.401269408E+02  5.401269408E+02  0.000000000E+00  0.00000E+00  9.000E+00
      25     1     1     2     0     0  1.401630579E+02 -1.089953753E+02 -2.601729406E+02  3.388814448E+02  1.250000000E+02  0.00000E+00  9.000E+00
      25     1     1     2     0     0 -3.490540501E+02  1.014301454E+02  1.307822167E+01  3.846073896E+02  1.250000000E+02  0.00000E+00  9.000E+00
      21     1     1     2   501   512  2.088909922E+02  7.565229967E+00  1.443649296E+02  2.540352578E+02  0.000000000E+00  0.00000E+00  9.000E+00
#rwgt            1           1   4.0785349159019171E-002           2      444663           0
</event>
<event>
      5   9999  3.79277E-02  2.73260E+01 -1.00000E+00  1.55910E-01
      21    -1     0     0   511   501  0.000000000E+00  0.000000000E+00  4.524807128E+01  4.524807128E+01  0.000000000E+00  0.00000E+00  9.000E+00
      21    -1     0     0   501   502  0.000000000E+00  0.000000000E+00 -1.652750473E+03  1.652750473E+03  0.000000000E+00  0.00000E+00  9.000E+00
      25     1     1     2     0     0 -2.794667330E+01  1.696630034E+02 -3.760608788E+02  4.319876571E+02  1.250000000E+02  0.00000E+00  9.000E+00
      25     1     1     2     0     0  2.054063819E+01 -1.959662751E+02 -1.207000103E+03  1.229348994E+03  1.250000000E+02  0.00000E+00  9.000E+00
      21     1     1     2   511   502  7.406035115E+00  2.630327162E+01 -2.444141980E+01  3.666189379E+01  7.539457465E-07  0.00000E+00  9.000E+00
#rwgt            1           1   3.5834965860432492E-002           2      444935           0
</event>
<event>
      5   9999  3.79277E-02  1.37139E+02 -1.00000E+00  1.17958E-01
      21    -1     0     0   502   501  0.000000000E+00  0.000000000E+00  4.006639642E+02  4.006639642E+02  0.000000000E+00  0.00000E+00  9.000E+00
      21    -1     0     0   512   502  0.000000000E+00  0.000000000E+00 -4.365268512E+02  4.365268512E+02  0.000000000E+00  0.00000E+00  9.000E+00
      25     1     1     2     0     0 -2.055934625E+01  1.107471252E+01  2.993471480E+02  3.252369152E+02  1.250000000E+02  0.00000E+00  9.000E+00
      25     1     1     2     0     0  3.411509731E+01  1.253926474E+02 -3.749080580E+01  1.841676313E+02  1.250000000E+02  0.00000E+00  9.000E+00
      21     1     1     2   512   501 -1.355575106E+01 -1.364673600E+02 -2.977192292E+02  3.277862690E+02  3.814697266E-06  0.00000E+00  9.000E+00
#rwgt            2          11   2.4426033131323454E-003           2      445432           0
</event>
<event>
      5   9999  3.79277E-02  6.41159E+01 -1.00000E+00  1.33181E-01
      21    -1     0     0   502   501  0.000000000E+00  0.000000000E+00  3.341657180E+02  3.341657180E+02  0.000000000E+00  0.00000E+00  9.000E+00
      21    -1     0     0   501   511  0.000000000E+00  0.000000000E+00 -1.115070412E+03  1.115070412E+03  0.000000000E+00  0.00000E+00  9.000E+00
      25     1     1     2     0     0  1.112087682E+01 -2.462844296E+02 -1.301809518E+02  3.055352261E+02  1.250000000E+02  0.00000E+00  9.000E+00
      25     1     1     2     0     0 -1.007529416E+01  3.103918001E+02  1.309012951E+02  3.594505949E+02  1.250000000E+02  0.00000E+00  9.000E+00
      21     1     1     2   502   511 -1.045582659E+00 -6.410737051E+01 -7.816250376E+02  7.842503093E+02  1.078959322E-05  0.00000E+00  9.000E+00
#rwgt            1           1   2.0665077506918091E-002           2      445497           0
</event>
<event>
      5   9999  3.79277E-02  4.19467E+01 -1.00000E+00  1.43572E-01
      21    -1     0     0   502   501  0.000000000E+00  0.000000000E+00  2.799977709E+02  2.799977709E+02  0.000000000E+00  0.00000E+00  9.000E+00
      21    -1     0     0   501   512  0.000000000E+00  0.000000000E+00 -2.801308038E+02  2.801308038E+02  0.000000000E+00  0.00000E+00  9.000E+00
      25     1     1     2     0     0 -8.248109862E+01 -8.551100537E+01 -1.699037982E+02  2.420899922E+02  1.250000000E+02  0.00000E+00  9.000E+00
      25     1     1     2     0     0  6.220943565E+01  4.878790400E+01  2.120147895E+02  2.585063721E+02  1.250000000E+02  0.00000E+00  9.000E+00
      21     1     1     2   502   512  2.027166296E+01  3.672310137E+01 -4.224402420E+01  5.953221039E+01  4.768371582E-07  0.00000E+00  9.000E+00
#rwgt            1           1   3.5516295974803262E-002           2      445648           0
</event>
<event>
      5   9999  3.79277E-02  4.82483E+01 -1.00000E+00  1.39965E-01
      21    -1     0     0   511   501  0.000000000E+00  0.000000000E+00  1.812229737E+03  1.812229737E+03  0.000000000E+00  0.00000E+00  9.000E+00
      21    -1     0     0   501   502  0.000000000E+00  0.000000000E+00 -3.779696678E+02  3.779696678E+02  0.000000000E+00  0.00000E+00  9.000E+00
      25     1     1     2     0     0  8.604804317E+00  1.688739874E+02 -8.225276812E+01  2.257941189E+02  1.250000000E+02  0.00000E+00  9.000E+00
      25     1     1     2     0     0 -5.666540124E+01 -1.731253941E+02 -1.690301950E+02  2.781718473E+02  1.250000000E+02  0.00000E+00  9.000E+00
      21     1     1     2   511   502  4.806059692E+01  4.251406714E+00  1.685543032E+03  1.686233438E+03  0.000000000E+00  0.00000E+00  9.000E+00
#rwgt            1           1   1.9147821683971021E-002           2      445921           0
</event>
<event>
      5   9999  3.79277E-02  2.77195E+01 -1.00000E+00  1.55464E-01
      21    -1     0     0   512   501  0.000000000E+00  0.000000000E+00  3.180057585E+02  3.180057585E+02  0.000000000E+00  0.00000E+00  9.000E+00
      21    -1     0     0   501   502  0.000000000E+00  0.000000000E+00 -4.535445721E+02  4.535445721E+02  0.000000000E+00  0.00000E+00  9.000E+00
      25     1     1     2     0     0  1.862390929E+02  2.702783326E+02 -6.009689154E+01  3.563313250E+02  1.250000000E+02  0.00000E+00  9.000E+00
      25     1     1     2     0     0 -2.095837141E+02 -2.553318049E+02 -1.109165548E+02  3.701987924E+02  1.250000000E+02  0.00000E+00  9.000E+00
      21     1     1     2   512   502  2.334462126E+01 -1.494652779E+01  3.547463268E+01  4.502021322E+01  8.259061849E-07  0.00000E+00  9.000E+00
#rwgt            1           1   2.9311384955466160E-002           2      446172           0
</event>
<event>
      5   9999  3.79277E-02  1.06279E+02 -1.00000E+00  1.22650E-01
      21    -1     0     0   511   501  0.000000000E+00  0.000000000E+00  2.088386200E+02  2.088386200E+02  0.000000000E+00  0.00000E+00  9.000E+00
      21    -1     0     0   501   502  0.000000000E+00  0.000000000E+00 -5.563695021E+02  5.563695021E+02  0.000000000E+00  0.00000E+00  9.000E+00
      25     1     1     2     0     0  5.972020697E+00  1.839616080E+02 -3.730624631E+02  4.343709700E+02  1.250000000E+02  0.00000E+00  9.000E+00
      25     1     1     2     0     0  4.433242396E+01 -9.034141266E+01 -8.151620349E+01  1.799911834E+02  1.250000000E+02  0.00000E+00  9.000E+00
      21     1     1     2   511   502 -5.030444465E+01 -9.362019531E+01  1.070477844E+02  1.508459687E+02  2.697398305E-06  0.00000E+00  9.000E+00
#rwgt            1           1   2.9998170761777240E-002           2      446452           0
</event>
<event>
      5   9999  3.79277E-02  1.05912E+01 -1.00000E+00  1.92917E-01
       2    -1     0     0   502     0  0.000000000E+00  0.000000000E+00  1.224674838E+03  1.224674838E+03  0.000000000E+00  0.00000E+00  9.000E+00
      21    -1     0     0   501   502  0.000000000E+00  0.000000000E+00 -6.176104131E+01  6.176104131E+01  0.000000000E+00  0.00000E+00  9.000E+00
      25     1     1     2     0     0  6.707785115E+01 -1.200695264E+02  1.813245355E+02  2.596530694E+02  1.250000000E+02  0.00000E+00  9.000E+00
      25     1     1     2     0     0 -6.632032581E+01  1.306336208E+02  3.886409674E+02  4.337399336E+02  1.250000000E+02  0.00000E+00  9.000E+00
       2     1     1     2   501     0 -7.575253451E-01 -1.056409435E+01  5.929482936E+02  5.930428760E+02  0.000000000E+00  0.00000E+00  9.000E+00
#rwgt            1           1   2.7000072228120637E-002           2      446575           0
</event>
<event>
      5   9999  3.79277E-02  1.08212E+02 -1.00000E+00  1.22306E-01
      21    -1     0     0   502   501  0.000000000E+00  0.000000000E+00  9.656750152E+02  9.656750152E+02  0.000000000E+00  0.00000E+00  9.000E+00
      -1    -1     0     0     0   502  0.000000000E+00  0.000000000E+00 -8.208095950E+01  8.208095950E+01  0.000000000E+00  0.00000E+00  9.000E+00
      25     1     1     2     0     0 -1.344567750E+02 -3.541597108E+01  5.187032176E+02  5.513718739E+02  1.250000000E+02  0.00000E+00  9.000E+00
      25     1     1     2     0     0  1.086075696E+02  1.404950429E+02  2.995128771E+02  3.699559768E+02  1.250000000E+02  0.00000E+00  9.000E+00
      -1     1     1     2     0   501  2.584920538E+01 -1.050790718E+02  6.537796098E+01  1.264281240E+02  1.348699152E-06  0.00000E+00  9.000E+00
#rwgt            1           1   4.1396521307113895E-002           2      446881           0
</event>
<event>
      5   9999  3.79277E-02  3.31107E+01 -1.00000E+00  1.50122E-01
      21    -1     0     0   502   501  0.000000000E+00  0.000000000E+00  7.734877326E+01  7.734877326E+01  0.000000000E+00  0.00000E+00  9.000E+00
      21    -1     0     0   501   511  0.000000000E+00  0.000000000E+00 -1.346243594E+03  1.346243594E+03  0.000000000E+00  0.00000E+00  9.000E+00
      25     1     1     2     0     0 -2.070376016E+02 -1.875829139E+02 -5.759999086E+02  6.522674396E+02  1.250000000E+02  0.00000E+00  9.000E+00
      25     1     1     2     0     0  1.815761228E+02  2.087497056E+02 -5.949497423E+02  6.679345206E+02  1.250000000E+02  0.00000E+00  9.000E+00
      21     1     1     2   502   511  2.546147877E+01 -2.116679168E+01 -9.794516971E+01  1.033904069E+02  1.348699152E-06  0.00000E+00  9.000E+00
#rwgt            1           1   2.0889621195166866E-002           2      447079           0
</event>
<event>
      5   9999  3.79277E-02  5.64501E+01 -1.00000E+00  1.36134E-01
      21    -1     0     0   502   501  0.000000000E+00  0.000000000E+00  1.076401798E+02  1.076401798E+02  0.000000000E+00  0.00000E+00  9.000E+00
      21    -1     0     0   501   512  0.000000000E+00  0.000000000E+00 -6.266483698E+02  6.266483698E+02  0.000000000E+00  0.00000E+00  9.000E+00
      25     1     1     2     0     0  1.776650343E+02 -2.178869942E+01 -1.972063904E+02  2.942022642E+02  1.250000000E+02  0.00000E+00  9.000E+00
      25     1     1     2     0     0 -1.781595590E+02  7.823663884E+01 -1.996726857E+02  3.055421109E+02  1.250000000E+02  0.00000E+00  9.000E+00
      21     1     1     2   502   512  4.945247089E-01 -5.644793942E+01 -1.221291139E+02  1.345441745E+02  1.348699152E-06  0.00000E+00  9.000E+00
#rwgt            1           1   4.0677394911558577E-002           2      447310           0
</event>
<event>
      5   9999  3.79277E-02  1.11810E+02 -1.00000E+00  1.21686E-01
      21    -1     0     0   502   501  0.000000000E+00  0.000000000E+00  9.942823571E+01  9.942823571E+01  0.000000000E+00  0.00000E+00  9.000E+00
      21    -1     0     0   501   511  0.000000000E+00  0.000000000E+00 -8.030862640E+02  8.030862640E+02  0.000000000E+00  0.00000E+00  9.000E+00
      25     1     1     2     0     0  1.209599918E+02  2.851853142E+01 -4.175347771E+02  4.532161916E+02  1.250000000E+02  0.00000E+00  9.000E+00
      25     1     1     2     0     0 -8.526922730E+01 -1.344788718E+02 -8.576696721E+01  2.198553633E+02  1.250000000E+02  0.00000E+00  9.000E+00
      21     1     1     2   502   511 -3.569076455E+01  1.059603404E+02 -2.003562840E+02  2.294429449E+02  2.697398305E-06  0.00000E+00  9.000E+00
#rwgt            1           1   4.3146035367351426E-002           2      447443           0
</event>
<event>
      5   9999  3.79277E-02  3.01003E+01 -1.00000E+00  1.52939E-01
      21    -1     0     0   502   512  0.000000000E+00  0.000000000E+00  9.209527695E+01  9.209527695E+01  0.000000000E+00  0.00000E+00  9.000E+00
      21    -1     0     0   501   502  0.000000000E+00  0.000000000E+00 -7.821281125E+02  7.821281125E+02  0.000000000E+00  0.00000E+00  9.000E+00
      25     1     1     2     0     0  5.610243941E+01 -1.347262087E+02 -1.573622746E+02  2.483677122E+02  1.250000000E+02  0.00000E+00  9.000E+00
      25     1     1     2     0     0 -3.071110645E+01  1.508911586E+02 -5.543495245E+02  5.887611647E+02  1.250000000E+02  0.00000E+00  9.000E+00
      21     1     1     2   501   512 -2.539133296E+01 -1.616494992E+01  2.167896356E+01  3.709451248E+01  8.920806376E-07  0.00000E+00  9.000E+00
#rwgt            1           1   3.2465902893254635E-002           2      447544           0
</event>
<event>
      5   9999  3.79277E-02  1.14968E+02 -1.00000E+00  1.21163E-01
       1    -1     0     0   502     0  0.000000000E+00  0.000000000E+00  7.721685238E+02  7.721685238E+02  0.000000000E+00  0.00000E+00  9.000E+00
      21    -1     0     0   501   502  0.000000000E+00  0.000000000E+00 -2.029124378E+02  2.029124378E+02  0.000000000E+00  0.00000E+00  9.000E+00
      25     1     1     2     0     0  4.664501013E+01  2.382530973E+02 -4.802913340E+01  2.772581703E+02  1.250000000E+02  0.00000E+00  9.000E+00
      25     1     1     2     0     0  2.868861792E+01 -1.514051644E+02  2.939154248E+02  3.546235153E+02  1.250000000E+02  0.00000E+00  9.000E+00
       1     1     1     2   501     0 -7.533362805E+01 -8.684793290E+01  3.233697946E+02  3.431992759E+02  3.814697266E-06  0.00000E+00  9.000E+00
#rwgt            1           1   2.9485986053415545E-002           2      447656           0
</event>
<event>
      5   9999  3.79277E-02  6.57412E+01 -1.00000E+00  1.32616E-01
      21    -1     0     0   502   501  0.000000000E+00  0.000000000E+00  5.393003316E+02  5.393003316E+02  0.000000000E+00  0.00000E+00  9.000E+00
      21    -1     0     0   501   511  0.000000000E+00  0.000000000E+00 -2.871698332E+02  2.871698332E+02  0.000000000E+00  0.00000E+00  9.000E+00
      25     1     1     2     0     0  2.271692202E+02  2.750281993E+01  1.741303095E+02  3.135420616E+02  1.250000000E+02  0.00000E+00  9.000E+00
      25     1     1     2     0     0 -2.238796986E+02  3.815606724E+01  2.304814892E+02  3.468785404E+02  1.250000000E+02  0.00000E+00  9.000E+00
      21     1     1     2   502   511 -3.289521640E+00 -6.565888716E+01 -1.524813003E+02  1.660495629E+02  2.697398305E-06  0.00000E+00  9.000E+00
#rwgt            1           1   3.5838806292116734E-002           2      447764           0
</event>
<event>
      5   9999  3.79277E-02  1.36437E+01 -1.00000E+00  1.81351E-01
      21    -1     0     0   502   501  0.000000000E+00  0.000000000E+00  4.159915647E+01  4.159915647E+01  0.000000000E+00  0.00000E+00  9.000E+00
      21    -1     0     0   501   512  0.000000000E+00  0.000000000E+00 -1.647991109E+03  1.647991109E+03  0.000000000E+00  0.00000E+00  9.000E+00
      25     1     1     2     0     0 -4.582526832E+01 -1.748366990E+02 -9.626621639E+02  9.874265889E+02  1.250000000E+02  0.00000E+00  9.000E+00
      25     1     1     2     0     0  5.606413971E+01  1.838542994E+02 -4.241075001E+02  4.821179968E+02  1.250000000E+02  0.00000E+00  9.000E+00
      21     1     1     2   502   512 -1.023887140E+01 -9.017600470E+00 -2.196222881E+02  2.200456794E+02  0.000000000E+00  0.00000E+00  9.000E+00
#rwgt            1           1   3.1466527113952619E-002           2      447859           0
</event>
<event>
      5   9999  3.79277E-02  2.95539E+01 -1.00000E+00  1.53493E-01
      21    -1     0     0   502   501  0.000000000E+00  0.000000000E+00  1.058760035E+02  1.058760035E+02  0.000000000E+00  0.00000E+00  9.000E+00
      21    -1     0     0   511   502  0.000000000E+00  0.000000000E+00 -5.702386899E+02  5.702386899E+02  0.000000000E+00  0.00000E+00  9.000E+00
      25     1     1     2     0     0  7.736248183E+01  1.119094166E+02 -2.814242899E+02  3.366501182E+02  1.250000000E+02  0.00000E+00  9.000E+00
      25     1     1     2     0     0 -5.542897396E+01 -1.317173185E+02 -4.068063731E+01  1.941693523E+02  1.250000000E+02  0.00000E+00  9.000E+00
      21     1     1     2   511   501 -2.193350787E+01  1.980790185E+01 -1.422577592E+02  1.452952229E+02  2.697398305E-06  0.00000E+00  9.000E+00
#rwgt            1           1   2.8749859873351404E-002           2      448087           0
</event>
<event>
      5   9999  3.79277E-02  3.89486E+01 -1.00000E+00  1.45561E-01
      21    -1     0     0   502   501  0.000000000E+00  0.000000000E+00  3.414463551E+02  3.414463551E+02  0.000000000E+00  0.00000E+00  9.000E+00
      21    -1     0     0   512   502  0.000000000E+00  0.000000000E+00 -5.180581702E+02  5.180581702E+02  0.000000000E+00  0.00000E+00  9.000E+00
      25     1     1     2     0     0  1.173887901E+02  1.608095173E+02 -3.751356293E+02  4.427093508E+02  1.250000000E+02  0.00000E+00  9.000E+00
      25     1     1     2     0     0 -1.221606370E+02 -1.221543735E+02  2.647622143E+02  3.399543239E+02  1.250000000E+02  0.00000E+00  9.000E+00
      21     1     1     2   512   501  4.771846933E+00 -3.865514382E+01 -6.623840018E+01  7.684085063E+01  1.348699152E-06  0.00000E+00  9.000E+00
#rwgt            1           1   5.9286785805835733E-002           2      448386           0
</event>
<event>
      5   9999  3.79277E-02  6.90735E+01 -1.00000E+00  1.31514E-01
      21    -1     0     0   502   501  0.000000000E+00  0.000000000E+00  1.195868546E+02  1.195868546E+02  0.000000000E+00  0.00000E+00  9.000E+00
      21    -1     0     0   501   511  0.000000000E+00  0.000000000E+00 -7.690118639E+02  7.690118639E+02  0.000000000E+00  0.00000E+00  9.000E+00
      25     1     1     2     0     0 -3.562879456E+01 -7.162945830E+01 -3.687370164E+02  3.974822984E+02  1.250000000E+02  0.00000E+00  9.000E+00
      25     1     1     2     0     0  1.018626465E+02  9.123119072E+01  1.650548024E+01  1.860015048E+02  1.250000000E+02  0.00000E+00  9.000E+00
      21     1     1     2   502   511 -6.623385194E+01 -1.960173242E+01 -2.971934731E+02  3.051149153E+02  3.814697266E-06  0.00000E+00  9.000E+00
#rwgt            1           1   3.7252015548385538E-002           2      448527           0
</event>
<event>
      5   9999  3.79277E-02  1.38884E+01 -1.00000E+00  1.80593E-01
      21    -1     0     0   502   512  0.000000000E+00  0.000000000E+00  1.090807505E+02  1.090807505E+02  0.000000000E+00  0.00000E+00  9.000E+00
      21    -1     0     0   501   502  0.000000000E+00  0.000000000E+00 -3.604042245E+02  3.604042245E+02  0.000000000E+00  0.00000E+00  9.000E+00
      25     1     1     2     0     0  1.294593037E+02 -3.171093917E+01 -4.659959511E+01  1.885784114E+02  1.250000000E+02  0.00000E+00  9.000E+00
      25     1     1     2     0     0 -1.157094402E+02  3.366751773E+01 -2.026570526E+02  2.668652418E+02  1.250000000E+02  0.00000E+00  9.000E+00
      21     1     1     2   501   512 -1.374986351E+01 -1.956578558E+00 -2.066826304E+00  1.404132178E+01  1.264405455E-07  0.00000E+00  9.000E+00
#rwgt            1           1   3.5208725607755252E-002           2      448600           0
</event>
<event>
      5   9999  3.79277E-02  3.48171E+01 -1.00000E+00  1.48680E-01
      21    -1     0     0   502   511  0.000000000E+00  0.000000000E+00  6.119221552E+01  6.119221552E+01  0.000000000E+00  0.00000E+00  9.000E+00
      21    -1     0     0   501   502  0.000000000E+00  0.000000000E+00 -8.605173941E+02  8.605173941E+02  0.000000000E+00  0.00000E+00  9.000E+00
      25     1     1     2     0     0 -6.701957508E+01 -2.455225915E+00 -7.682549360E+01  1.613220631E+02  1.250000000E+02  0.00000E+00  9.000E+00
      25     1     1     2     0     0  9.108154471E+01  2.761978752E+01 -7.032850800E+02  7.206202913E+02  1.250000000E+02  0.00000E+00  9.000E+00
      21     1     1     2   501   511 -2.406196963E+01 -2.516456160E+01 -1.921460492E+01  3.976725519E+01  4.129530925E-07  0.00000E+00  9.000E+00
#rwgt            1           1   3.8240267389740984E-002           2      448831           0
</event>
<event>
      5   9999  3.79277E-02  3.95665E+01 -1.00000E+00  1.45134E-01
      21    -1     0     0   512   501  0.000000000E+00  0.000000000E+00  1.214994055E+02  1.214994055E+02  0.000000000E+00  0.00000E+00  9.000E+00
      21    -1     0     0   501   502  0.000000000E+00  0.000000000E+00 -4.454710528E+02  4.454710528E+02  0.000000000E+00  0.00000E+00  9.000E+00
      25     1     1     2     0     0  1.282383556E+02 -2.259950379E+01 -1.852750800E+02  2.586651672E+02  1.250000000E+02  0.00000E+00  9.000E+00
      25     1     1     2     0     0 -1.442057889E+02 -1.360201565E+01 -1.714771681E+02  2.569236142E+02  1.250000000E+02  0.00000E+00  9.000E+00
      21     1     1     2   512   502  1.596743331E+01  3.620151943E+01  3.278060081E+01  5.138167694E+01  0.000000000E+00  0.00000E+00  9.000E+00
#rwgt            1           1   4.6410096464566446E-002           2      448946           0
</event>
<event>
      5   9999  3.79277E-02  6.80993E+01 -1.00000E+00  1.31829E-01
      21    -1     0     0   502   501  0.000000000E+00  0.000000000E+00  2.273471780E+02  2.273471780E+02  0.000000000E+00  0.00000E+00  9.000E+00
      21    -1     0     0   501   511  0.000000000E+00  0.000000000E+00 -2.671232910E+02  2.671232910E+02  0.000000000E+00  0.00000E+00  9.000E+00
      25     1     1     2     0     0  1.074462361E+02 -7.351217022E+01 -6.216527161E+01  1.908880662E+02  1.250000000E+02  0.00000E+00  9.000E+00
      25     1     1     2     0     0 -1.490871586E+02  1.273967062E+02  3.222233052E+01  2.347768732E+02  1.250000000E+02  0.00000E+00  9.000E+00
      21     1     1     2   502   511  4.164092244E+01 -5.388453596E+01 -9.833171919E+00  6.880552962E+01  8.678567278E-07  0.00000E+00  9.000E+00
#rwgt            1           1   4.7692030685112609E-002           2      449073           0
</event>
<event>
      5   9999 -3.79277E-02  3.46320E+01 -1.00000E+00  1.48831E-01
      21    -1     0     0   502   501  0.000000000E+00  0.000000000E+00  8.979097058E+02  8.979097058E+02  0.000000000E+00  0.00000E+00  9.000E+00
      21    -1     0     0   501   512  0.000000000E+00  0.000000000E+00 -4.616108064E+02  4.616108064E+02  0.000000000E+00  0.00000E+00  9.000E+00
      25     1     1     2     0     0  1.344037527E+02  7.297291592E+01  3.385920826E+02  3.919936398E+02  1.250000000E+02  0.00000E+00  9.000E+00
      25     1     1     2     0     0 -1.271490233E+02 -1.068365153E+02  5.115860454E+02  5.522012287E+02  1.250000000E+02  0.00000E+00  9.000E+00
      21     1     1     2   502   512 -7.254729415E+00  3.386359936E+01 -4.138792286E+02  4.153256437E+02  5.394796609E-06  0.00000E+00  9.000E+00
#rwgt            1           1 -0.38938868406286414                2      449188           0
</event>
<event>
      5   9999  3.79277E-02  1.30168E+01 -1.00000E+00  1.83389E-01
      21    -1     0     0   502   501  0.000000000E+00  0.000000000E+00  5.277950276E+01  5.277950276E+01  0.000000000E+00  0.00000E+00  9.000E+00
       1    -1     0     0   501     0  0.000000000E+00  0.000000000E+00 -1.221352477E+03  1.221352477E+03  0.000000000E+00  0.00000E+00  9.000E+00
      25     1     1     2     0     0 -1.151941877E+02  8.003634511E+01 -5.579870609E+02  5.887699700E+02  1.250000000E+02  0.00000E+00  9.000E+00
      25     1     1     2     0     0  1.232638480E+02 -9.024995729E+01 -2.240251460E+02  2.985821446E+02  1.250000000E+02  0.00000E+00  9.000E+00
       1     1     1     2   502     0 -8.069660307E+00  1.021361217E+01 -3.865607676E+02  3.867798655E+02  0.000000000E+00  0.00000E+00  9.000E+00
#rwgt            1           1   4.1313293689800558E-002           2      449347           0
</event>
<event>
      5   9999  3.79277E-02  7.74744E+01 -1.00000E+00  1.29027E-01
      21    -1     0     0   502   501  0.000000000E+00  0.000000000E+00  7.000749747E+01  7.000749747E+01  0.000000000E+00  0.00000E+00  9.000E+00
      21    -1     0     0   501   511  0.000000000E+00  0.000000000E+00 -1.423457623E+03  1.423457623E+03  0.000000000E+00  0.00000E+00  9.000E+00
      25     1     1     2     0     0 -8.447058911E+01 -2.897696264E+01 -8.637454590E+02  8.773004974E+02  1.250000000E+02  0.00000E+00  9.000E+00
      25     1     1     2     0     0  9.799063631E+00  8.326500880E+00 -5.477674621E+00  1.257790014E+02  1.250000000E+02  0.00000E+00  9.000E+00
      21     1     1     2   502   511  7.467152548E+01  2.065046176E+01 -4.842269915E+02  4.903856214E+02  5.394796609E-06  0.00000E+00  9.000E+00
#rwgt            1           1   3.1013272688898821E-002           2      449598           0
</event>
<event>
      5   9999  3.79277E-02  1.13304E+02 -1.00000E+00  1.21436E-01
      21    -1     0     0   502   512  0.000000000E+00  0.000000000E+00  9.719034252E+02  9.719034252E+02  0.000000000E+00  0.00000E+00  9.000E+00
      21    -1     0     0   501   502  0.000000000E+00  0.000000000E+00 -4.426595731E+02  4.426595731E+02  0.000000000E+00  0.00000E+00  9.000E+00
      25     1     1     2     0     0 -2.252227465E+02  3.864934181E+02  1.836427923E+02  4.994518225E+02  1.250000000E+02  0.00000E+00  9.000E+00
      25     1     1     2     0     0  3.263474588E+02 -4.375962494E+02  9.146456006E+00  5.600908846E+02  1.250000000E+02  0.00000E+00  9.000E+00
      21     1     1     2   501   512 -1.011247123E+02  5.110283123E+01  3.364546039E+02  3.550202913E+02  3.814697266E-06  0.00000E+00  9.000E+00
#rwgt            1           1   9.3816185506528232E-002           2      449696           0
</event>
<event>
      5   9999  3.79277E-02  1.03707E+01 -1.00000E+00  1.93947E-01
      21    -1     0     0   502   511  0.000000000E+00  0.000000000E+00  2.854076036E+02  2.854076036E+02  0.000000000E+00  0.00000E+00  9.000E+00
      21    -1     0     0   501   502  0.000000000E+00  0.000000000E+00 -1.300836560E+02  1.300836560E+02  0.000000000E+00  0.00000E+00  9.000E+00
      25     1     1     2     0     0  5.526898582E+01 -4.930576012E+00  2.023597064E+02  2.442405006E+02  1.250000000E+02  0.00000E+00  9.000E+00
      25     1     1     2     0     0 -4.870039901E+01 -3.094661014E+00 -6.607260708E+01  1.495723744E+02  1.250000000E+02  0.00000E+00  9.000E+00
      21     1     1     2   501   511 -6.568586805E+00  8.025237027E+00  1.903684832E+01  2.167838453E+01  0.000000000E+00  0.00000E+00  9.000E+00
#rwgt            1           1   4.9973088697185343E-002           2      449828           0
</event>
<event>
      5   9999  3.79277E-02  1.05809E+01 -1.00000E+00  1.92965E-01
      21    -1     0     0   512   501  0.000000000E+00  0.000000000E+00  1.498701839E+02  1.498701839E+02  0.000000000E+00  0.00000E+00  9.000E+00
      21    -1     0     0   501   502  0.000000000E+00  0.000000000E+00 -4.965174911E+02  4.965174911E+02  0.000000000E+00  0.00000E+00  9.000E+00
      25     1     1     2     0     0 -8.649179788E+01  1.531723854E+02 -3.534062810E+02  4.140816468E+02  1.250000000E+02  0.00000E+00  9.000E+00
      25     1     1     2     0     0  8.137318138E+01 -1.624327530E+02  1.125085263E+01  2.208111763E+02  1.250000000E+02  0.00000E+00  9.000E+00
      21     1     1     2   512   502  5.118616500E+00  9.260367657E+00 -4.491878809E+00  1.149485186E+01  1.884864366E-07  0.00000E+00  9.000E+00
#rwgt            1           1   4.8323444712298311E-002           2      450070           0
</event>
<event>
      5   9999 -3.79277E-02  2.36455E+01 -1.00000E+00  1.60584E-01
      21    -1     0     0   502   501  0.000000000E+00  0.000000000E+00  1.426550281E+02  1.426550281E+02  0.000000000E+00  0.00000E+00  9.000E+00
      21    -1     0     0   501   511  0.000000000E+00  0.000000000E+00 -4.983131947E+02  4.983131947E+02  0.000000000E+00  0.00000E+00  9.000E+00
      25     1     1     2     0     0  6.433334727E+01 -1.955442153E+02 -4.970314873E+01  2.459099890E+02  1.250000000E+02  0.00000E+00  9.000E+00
      25     1     1     2     0     0 -6.559280752E+01  1.719322569E+02 -2.519617321E+02  3.361143136E+02  1.250000000E+02  0.00000E+00  9.000E+00
      21     1     1     2   502   511  1.259460248E+00  2.361195838E+01 -5.399328577E+01  5.894392018E+01  6.743495762E-07  0.00000E+00  9.000E+00
#rwgt            1           1  -1.9815646736543853E-002           2      450311           0
</event>
<event>
      5   9999  3.79277E-02  4.31508E+01 -1.00000E+00  1.42827E-01
      21    -1     0     0   512   501  0.000000000E+00  0.000000000E+00  5.327751887E+02  5.327751887E+02  0.000000000E+00  0.00000E+00  9.000E+00
      21    -1     0     0   501   502  0.000000000E+00  0.000000000E+00 -8.976013338E+01  8.976013338E+01  0.000000000E+00  0.00000E+00  9.000E+00
      25     1     1     2     0     0 -3.482505831E+01  1.280038043E+02  1.382240150E+02  2.287545342E+02  1.250000000E+02  0.00000E+00  9.000E+00
      25     1     1     2     0     0  9.827702588E+00 -1.631765490E+02  2.432682884E+02  3.186340063E+02  1.250000000E+02  0.00000E+00  9.000E+00
      21     1     1     2   512   502  2.499735573E+01  3.517274469E+01  6.152275197E+01  7.514678151E+01  1.348699152E-06  0.00000E+00  9.000E+00
#rwgt            1           1   4.5033169972100114E-002           2      450463           0
</event>
<event>
      5   9999  3.79277E-02  1.34794E+02 -1.00000E+00  1.18264E-01
      21    -1     0     0   502   501  0.000000000E+00  0.000000000E+00  9.233571257E+01  9.233571257E+01  0.000000000E+00  0.00000E+00  9.000E+00
       1    -1     0     0   501     0  0.000000000E+00  0.000000000E+00 -1.523635226E+03  1.523635226E+03  0.000000000E+00  0.00000E+00  9.000E+00
      25     1     1     2     0     0  1.000904635E+02  1.946358264E+02 -4.894161096E+02  5.505037094E+02  1.250000000E+02  0.00000E+00  9.000E+00
      25     1     1     2     0     0 -1.704748731E+02 -7.967762404E+01 -1.721645851E+02  2.840349459E+02  1.250000000E+02  0.00000E+00  9.000E+00
       1     1     1     2   502     0  7.038440954E+01 -1.149582023E+02 -7.697188188E+02  7.814322833E+02  0.000000000E+00  0.00000E+00  9.000E+00
#rwgt            1           1   3.8131206068563364E-002           2      450638           0
</event>
<event>
      5   9999  3.79277E-02  1.92706E+01 -1.00000E+00  1.67711E-01
      21    -1     0     0   502   511  0.000000000E+00  0.000000000E+00  5.540506546E+02  5.540506546E+02  0.000000000E+00  0.00000E+00  9.000E+00
      21    -1     0     0   501   502  0.000000000E+00  0.000000000E+00 -1.798171535E+02  1.798171535E+02  0.000000000E+00  0.00000E+00  9.000E+00
      25     1     1     2     0     0 -1.341657665E+02  1.621382594E+02 -8.778391333E+00  2.449312725E+02  1.250000000E+02  0.00000E+00  9.000E+00
      25     1     1     2     0     0  1.450688254E+02 -1.780278478E+02  2.759250148E+02  3.801295733E+02  1.250000000E+02  0.00000E+00  9.000E+00
      21     1     1     2   501   511 -1.090305889E+01  1.588958833E+01  1.070868776E+02  1.088069624E+02  0.000000000E+00  0.00000E+00  9.000E+00
#rwgt            1           1   3.6385403808456708E-002           2      450848           0
</event>
<event>
      5   9999  3.79277E-02  3.26184E+02 -1.00000E+00  1.04424E-01
      21    -1     0     0   502   501  0.000000000E+00  0.000000000E+00  4.579319081E+02  4.579319081E+02  0.000000000E+00  0.00000E+00  9.000E+00
      21    -1     0     0   512   502  0.000000000E+00  0.000000000E+00 -1.800350968E+03  1.800350968E+03  0.000000000E+00  0.00000E+00  9.000E+00
      25     1     1     2     0     0 -1.930315483E+02 -4.534179680E+01  8.744716296E+00  2.345602849E+02  1.250000000E+02  0.00000E+00  9.000E+00
      25     1     1     2     0     0  2.856831274E+02 -2.674071031E+02  1.870037681E+02  4.513499943E+02  1.250000000E+02  0.00000E+00  9.000E+00
      21     1     1     2   512   501 -9.265157911E+01  3.127488999E+02 -1.538167544E+03  1.572372597E+03  0.000000000E+00  0.00000E+00  9.000E+00
#rwgt            2          11   1.4240361816049187E-003           2      451032           0
</event>
<event>
      5   9999  3.79277E-02  7.43641E+01 -1.00000E+00  1.29904E-01
       2    -1     0     0   502     0  0.000000000E+00  0.000000000E+00  2.445037947E+03  2.445037947E+03  0.000000000E+00  0.00000E+00  9.000E+00
      21    -1     0     0   501   502  0.000000000E+00  0.000000000E+00 -2.857576072E+01  2.857576072E+01  0.000000000E+00  0.00000E+00  9.000E+00
      25     1     1     2     0     0  4.002117376E+01  9.552393091E+01  7.501151699E+02  7.674791748E+02  1.250000000E+02  0.00000E+00  9.000E+00
      25     1     1     2     0     0 -6.541463844E+01 -1.654180689E+02  6.175117942E+02  6.546663489E+02  1.250000000E+02  0.00000E+00  9.000E+00
       2     1     1     2   501     0  2.539346468E+01  6.989413795E+01  1.048835222E+03  1.051468184E+03  0.000000000E+00  0.00000E+00  9.000E+00
#rwgt            1           1   5.4071936023432757E-002           2      451082           0
</event>
<event>
      5   9999  3.79277E-02  4.05917E+01 -1.00000E+00  1.44446E-01
      21    -1     0     0   502   501  0.000000000E+00  0.000000000E+00  1.404668144E+03  1.404668144E+03  0.000000000E+00  0.00000E+00  9.000E+00
      21    -1     0     0   501   511  0.000000000E+00  0.000000000E+00 -1.094912830E+02  1.094912830E+02  0.000000000E+00  0.00000E+00  9.000E+00
      25     1     1     2     0     0 -8.684523546E+01 -3.499573255E+01  2.999979464E+02  3.382167413E+02  1.250000000E+02  0.00000E+00  9.000E+00
      25     1     1     2     0     0  1.054033568E+02 -1.105229211E+00  1.074483362E+03  1.086853524E+03  1.250000000E+02  0.00000E+00  9.000E+00
      21     1     1     2   502   511 -1.855812131E+01  3.610096176E+01 -7.930444711E+01  8.908916117E+01  1.651812370E-06  0.00000E+00  9.000E+00
#rwgt            1           1   4.6672611348514838E-002           2      451239           0
</event>
<event>
      5   9999  3.79277E-02  1.08628E+02 -1.00000E+00  1.22233E-01
      21    -1     0     0   502   501  0.000000000E+00  0.000000000E+00  1.557226745E+02  1.557226745E+02  0.000000000E+00  0.00000E+00  9.000E+00
       2    -1     0     0   501     0  0.000000000E+00  0.000000000E+00 -2.249562330E+03  2.249562330E+03  0.000000000E+00  0.00000E+00  9.000E+00
      25     1     1     2     0     0  1.298840749E+02  6.615267006E+01 -2.541316328E+02  3.185183440E+02  1.250000000E+02  0.00000E+00  9.000E+00
      25     1     1     2     0     0 -7.714454131E+01  2.881369728E+01  7.607222542E+01  1.679091805E+02  1.250000000E+02  0.00000E+00  9.000E+00
       2     1     1     2   502     0 -5.273953358E+01 -9.496636735E+01 -1.915780248E+03  1.918857480E+03  2.157918644E-05  0.00000E+00  9.000E+00
#rwgt            1           1   5.1941749522113008E-002           2      451412           0
</event>
<event>
      5   9999  3.79277E-02  5.93917E+01 -1.00000E+00  1.34940E-01
      21    -1     0     0   502   501  0.000000000E+00  0.000000000E+00  3.276064115E+02  3.276064115E+02  0.000000000E+00  0.00000E+00  9.000E+00
      21    -1     0     0   501   511  0.000000000E+00  0.000000000E+00 -3.015956873E+02  3.015956873E+02  0.000000000E+00  0.00000E+00  9.000E+00
      25     1     1     2     0     0  1.041775944E+02  6.460387210E-01  2.555588237E+02  3.029665013E+02  1.250000000E+02  0.00000E+00  9.000E+00
      25     1     1     2     0     0 -9.671293310E+01 -5.956674858E+01 -1.431973617E+02  2.214318707E+02  1.250000000E+02  0.00000E+00  9.000E+00
      21     1     1     2   502   511 -7.464661295E+00  5.892070986E+01 -8.635073778E+01  1.048037267E+02  1.348699152E-06  0.00000E+00  9.000E+00
#rwgt            1           1   3.4248261523565908E-002           2      451614           0
</event>
<event>
      5   9999  3.79277E-02  2.03969E+01 -1.00000E+00  1.65668E-01
      21    -1     0     0   502   501  0.000000000E+00  0.000000000E+00  2.240631516E+02  2.240631516E+02  0.000000000E+00  0.00000E+00  9.000E+00
      21    -1     0     0   512   502  0.000000000E+00  0.000000000E+00 -1.683697008E+02  1.683697008E+02  0.000000000E+00  0.00000E+00  9.000E+00
      25     1     1     2     0     0 -1.105132849E+02 -1.685270501E+01  1.006088354E+02  1.955615953E+02  1.250000000E+02  0.00000E+00  9.000E+00
      25     1     1     2     0     0  1.087789964E+02  3.717569439E+01 -3.223887575E+01  1.728561466E+02  1.250000000E+02  0.00000E+00  9.000E+00
      21     1     1     2   512   501  1.734288453E+00 -2.032298937E+01 -1.267650879E+01  2.401511042E+01  2.920019320E-07  0.00000E+00  9.000E+00
#rwgt            1           1   3.9214193850171539E-002           2      451739           0
</event>
<event>
      5   9999  3.79277E-02  3.77045E+01 -1.00000E+00  1.46450E-01
       2    -1     0     0   502     0  0.000000000E+00  0.000000000E+00  5.797762023E+01  5.797762023E+01  0.000000000E+00  0.00000E+00  9.000E+00
      21    -1     0     0   501   502  0.000000000E+00  0.000000000E+00 -7.474192178E+02  7.474192178E+02  0.000000000E+00  0.00000E+00  9.000E+00
      25     1     1     2     0     0  1.316014135E+00 -7.379435526E+01 -3.483282615E+02  3.773657596E+02  1.250000000E+02  0.00000E+00  9.000E+00
      25     1     1     2     0     0  1.059901265E+00  3.616481736E+01 -3.621743558E+02  3.848431906E+02  1.250000000E+02  0.00000E+00  9.000E+00
       2     1     1     2   501     0 -2.375915400E+00  3.762953790E+01  2.106101973E+01  4.318788776E+01  7.539457465E-07  0.00000E+00  9.000E+00
#rwgt            1           1   2.5740046538805794E-002           2      451956           0
</event>
<event>
      5   9999  3.79277E-02  3.20542E+01 -1.00000E+00  1.51068E-01
      21    -1     0     0   502   501  0.000000000E+00  0.000000000E+00  1.003178782E+03  1.003178782E+03  0.000000000E+00  0.00000E+00  9.000E+00
      21    -1     0     0   511   502  0.000000000E+00  0.000000000E+00 -6.229028872E+01  6.229028872E+01  0.000000000E+00  0.00000E+00  9.000E+00
      25     1     1     2     0     0  1.739412344E+01  1.532894732E+02  2.977673720E+02  3.578975076E+02  1.250000000E+02  0.00000E+00  9.000E+00
      25     1     1     2     0     0 -2.119464256E+01 -1.214613403E+02  6.512501223E+02  6.745026255E+02  1.250000000E+02  0.00000E+00  9.000E+00
      21     1     1     2   511   501  3.800519117E+00 -3.182813292E+01 -8.129000846E+00  3.306893778E+01  4.768371582E-07  0.00000E+00  9.000E+00
#rwgt            1           1   4.4117983133024639E-002           2      452120           0
</event>
<event>
      5   9999  3.79277E-02  4.95641E+01 -1.00000E+00  1.39293E-01
      21    -1     0     0   502   501  0.000000000E+00  0.000000000E+00  9.755200934E+01  9.755200934E+01  0.000000000E+00  0.00000E+00  9.000E+00
      21    -1     0     0   501   512  0.000000000E+00  0.000000000E+00 -8.352366223E+02  8.352366223E+02  0.000000000E+00  0.00000E+00  9.000E+00
      25     1     1     2     0     0  8.854841688E+01  1.439610001E+02 -6.168499945E+01  2.190790516E+02  1.250000000E+02  0.00000E+00  9.000E+00
      25     1     1     2     0     0 -5.503935079E+01 -1.074405370E+02 -5.827246918E+02  6.080837652E+02  1.250000000E+02  0.00000E+00  9.000E+00
      21     1     1     2   502   512 -3.350906609E+01 -3.652046309E+01 -9.327492174E+01  1.056258148E+02  1.348699152E-06  0.00000E+00  9.000E+00
#rwgt            1           1   3.8813015263953199E-002           2      452254           0
</event>
<event>
      5   9999 -3.79277E-02  1.23535E+01 -1.00000E+00  1.85712E-01
      21    -1     0     0   502   501  0.000000000E+00  0.000000000E+00  5.537556063E+01  5.537556063E+01  0.000000000E+00  0.00000E+00  9.000E+00
      21    -1     0     0   511   502  0.000000000E+00  0.000000000E+00 -1.578530418E+03  1.578530418E+03  0.000000000E+00  0.00000E+00  9.000E+00
      25     1     1     2     0     0  1.555402955E+02 -5.281503434E+01 -2.250653308E+02  3.053876463E+02  1.250000000E+02  0.00000E+00  9.000E+00
      25     1     1     2     0     0 -1.599229944E+02  4.126511614E+01 -6.927571784E+02  7.230599437E+02  1.250000000E+02  0.00000E+00  9.000E+00
      21     1     1     2   511   501  4.382698900E+00  1.154991820E+01 -6.053323483E+02  6.054583888E+02  7.629394531E-06  0.00000E+00  9.000E+00
#rwgt            1           1  -3.3278342358359879E-002           2      452358           0
</event>
<event>
      5   9999  3.79277E-02  1.07159E+02 -1.00000E+00  1.22492E-01
      21    -1     0     0   502   512  0.000000000E+00  0.000000000E+00  4.671588477E+02  4.671588477E+02  0.000000000E+00  0.00000E+00  9.000E+00
      21    -1     0     0   501   502  0.000000000E+00  0.000000000E+00 -4.148471649E+02  4.148471649E+02  0.000000000E+00  0.00000E+00  9.000E+00
      25     1     1     2     0     0 -1.319877253E+02 -2.005492237E+02 -1.404332828E+02  3.049381211E+02  1.250000000E+02  0.00000E+00  9.000E+00
      25     1     1     2     0     0  2.043809375E+02  2.795579407E+02  1.372438388E+01  3.684257979E+02  1.250000000E+02  0.00000E+00  9.000E+00
      21     1     1     2   501   512 -7.239321222E+01 -7.900871700E+01  1.790205817E+02  2.086420936E+02  1.907348633E-06  0.00000E+00  9.000E+00
#rwgt            1           1   3.0888359136750254E-002           2      452520           0
</event>
<event>
      5   9999  3.79277E-02  6.84859E+00 -1.00000E+00  2.16905E-01
      21    -1     0     0   502   501  0.000000000E+00  0.000000000E+00  9.594571514E+01  9.594571514E+01  0.000000000E+00  0.00000E+00  9.000E+00
      21    -1     0     0   511   502  0.000000000E+00  0.000000000E+00 -1.069437285E+03  1.069437285E+03  0.000000000E+00  0.00000E+00  9.000E+00
      25     1     1     2     0     0  8.576157322E+01 -2.390257543E+02 -4.890512380E+02  5.650526276E+02  1.250000000E+02  0.00000E+00  9.000E+00
      25     1     1     2     0     0 -8.789068887E+01  2.325165262E+02 -2.764328744E+02  3.922102015E+02  1.250000000E+02  0.00000E+00  9.000E+00
      21     1     1     2   511   501  2.129115656E+00  6.509228100E+00 -2.080074572E+02  2.081201707E+02  0.000000000E+00  0.00000E+00  9.000E+00
#rwgt            2          11   6.4143791307566317E-004           2      452792           0
</event>
<event>
      5   9999  3.79277E-02  3.86950E+01 -1.00000E+00  1.45739E-01
      21    -1     0     0   502   501  0.000000000E+00  0.000000000E+00  1.699761488E+03  1.699761488E+03  0.000000000E+00  0.00000E+00  9.000E+00
      -4    -1     0     0     0   502  0.000000000E+00  0.000000000E+00 -3.983862938E+01  3.983862938E+01  0.000000000E+00  0.00000E+00  9.000E+00
      25     1     1     2     0     0 -1.677670182E+02 -5.767723203E+01  7.842000630E+02  8.136751037E+02  1.250000000E+02  0.00000E+00  9.000E+00
      25     1     1     2     0     0  1.516773845E+02  9.286851328E+01  8.546523730E+02  8.818652213E+02  1.250000000E+02  0.00000E+00  9.000E+00
      -4     1     1     2     0   501  1.608963374E+01 -3.519128125E+01  2.107042227E+01  4.405979215E+01  1.092571186E-06  0.00000E+00  9.000E+00
#rwgt            1           1   3.2431330699524710E-002           2      452872           0
</event>
<event>
      5   9999  3.79277E-02  1.11369E+02 -1.00000E+00  1.21760E-01
      21    -1     0     0   502   501  0.000000000E+00  0.000000000E+00  7.414544818E+02  7.414544818E+02  0.000000000E+00  0.00000E+00  9.000E+00
       5    -1     0     0   501     0  0.000000000E+00  0.000000000E+00 -8.495898203E+01  8.495898203E+01  0.000000000E+00  0.00000E+00  9.000E+00
      25     1     1     2     0     0 -1.199846615E+02 -1.926657012E+01  3.740478961E+02  4.126794740E+02  1.250000000E+02  0.00000E+00  9.000E+00
      25     1     1     2     0     0  6.779732697E+01  1.176515546E+02  2.157434961E+02  2.839165757E+02  1.250000000E+02  0.00000E+00  9.000E+00
       5     1     1     2   502     0  5.218733449E+01 -9.838498445E+01  6.670410760E+01  1.298174141E+02  2.861022949E-06  0.00000E+00  9.000E+00
#rwgt            1           1   3.4759980238164227E-002           2      452974           0
</event>
<event>
      5   9999  3.79277E-02  2.04744E+01 -1.00000E+00  1.65533E-01
      21    -1     0     0   502   511  0.000000000E+00  0.000000000E+00  1.320015778E+02  1.320015778E+02  0.000000000E+00  0.00000E+00  9.000E+00
      21    -1     0     0   501   502  0.000000000E+00  0.000000000E+00 -4.825697375E+02  4.825697375E+02  0.000000000E+00  0.00000E+00  9.000E+00
      25     1     1     2     0     0 -1.105161481E+01  8.787116654E+01 -3.259291184E+02  3.601364607E+02  1.250000000E+02  0.00000E+00  9.000E+00
      25     1     1     2     0     0 -8.163187982E-01 -1.045550712E+02 -8.984488601E+01  1.860901202E+02  1.250000000E+02  0.00000E+00  9.000E+00
      21     1     1     2   501   511  1.186793361E+01  1.668390466E+01  6.520584474E+01  6.834473433E+01  1.348699152E-06  0.00000E+00  9.000E+00
#rwgt            1           1   4.6404947929135687E-002           2      453104           0
</event>
<event>
      5   9999  3.79277E-02  2.01357E+01 -1.00000E+00  1.66127E-01
      21    -1     0     0   502   501  0.000000000E+00  0.000000000E+00  7.673958763E+01  7.673958763E+01  0.000000000E+00  0.00000E+00  9.000E+00
      21    -1     0     0   501   512  0.000000000E+00  0.000000000E+00 -6.005829548E+02  6.005829548E+02  0.000000000E+00  0.00000E+00  9.000E+00
      25     1     1     2     0     0  1.492866911E+02 -1.219075715E+01 -1.409094633E+02  2.406566175E+02  1.250000000E+02  0.00000E+00  9.000E+00
      25     1     1     2     0     0 -1.291518857E+02  1.238526833E+01 -2.886883711E+02  3.402933735E+02  1.250000000E+02  0.00000E+00  9.000E+00
      21     1     1     2   502   512 -2.013480538E+01 -1.945111784E-01 -9.424553277E+01  9.637255143E+01  1.348699152E-06  0.00000E+00  9.000E+00
#rwgt            1           1  0.38853725142634576                2      453295           0
</event>
<event>
      5   9999  3.79277E-02  1.74664E+01 -1.00000E+00  1.71374E-01
      21    -1     0     0   502   501  0.000000000E+00  0.000000000E+00  9.939660414E+01  9.939660414E+01  0.000000000E+00  0.00000E+00  9.000E+00
      21    -1     0     0   501   511  0.000000000E+00  0.000000000E+00 -9.635038873E+02  9.635038873E+02  0.000000000E+00  0.00000E+00  9.000E+00
      25     1     1     2     0     0  1.062131618E+02 -1.377557732E+02 -1.312099358E+02  2.511950160E+02  1.250000000E+02  0.00000E+00  9.000E+00
      25     1     1     2     0     0 -1.140045545E+02  1.221234792E+02 -2.380506369E+02  3.165506095E+02  1.250000000E+02  0.00000E+00  9.000E+00
      21     1     1     2   502   511  7.791392704E+00  1.563229398E+01 -4.948467106E+02  4.951548660E+02  9.344061824E-06  0.00000E+00  9.000E+00
#rwgt            1           1   3.7659417499602686E-002           2      453606           0
</event>
<event>
      5   9999  3.79277E-02  3.98279E+01 -1.00000E+00  1.44956E-01
      21    -1     0     0   502   512  0.000000000E+00  0.000000000E+00  2.739884228E+02  2.739884228E+02  0.000000000E+00  0.00000E+00  9.000E+00
      21    -1     0     0   501   502  0.000000000E+00  0.000000000E+00 -2.470179620E+02  2.470179620E+02  0.000000000E+00  0.00000E+00  9.000E+00
      25     1     1     2     0     0  1.553704533E+02 -6.628594148E+01  1.038717768E+02  2.344102170E+02  1.250000000E+02  0.00000E+00  9.000E+00
      25     1     1     2     0     0 -1.775812803E+02  3.322631076E+01 -9.909058939E+01  2.410042401E+02  1.250000000E+02  0.00000E+00  9.000E+00
      21     1     1     2   501   512  2.221082697E+01  3.305963072E+01  2.218927332E+01  4.559192767E+01  5.331201500E-07  0.00000E+00  9.000E+00
#rwgt            1           1   4.2239561837474411E-002           2      453816           0
</event>
<event>
      5   9999  3.79277E-02  7.71230E+00 -1.00000E+00  2.09772E-01
      21    -1     0     0   502   501  0.000000000E+00  0.000000000E+00  6.577625498E+02  6.577625498E+02  0.000000000E+00  0.00000E+00  9.000E+00
      21    -1     0     0   511   502  0.000000000E+00  0.000000000E+00 -7.068051318E+01  7.068051318E+01  0.000000000E+00  0.00000E+00  9.000E+00
      25     1     1     2     0     0  2.948934590E+01 -1.228679583E+02  4.886223423E+02  5.199451414E+02  1.250000000E+02  0.00000E+00  9.000E+00
      25     1     1     2     0     0 -3.206759456E+01  1.155993854E+02  1.007948007E+02  2.004398672E+02  1.250000000E+02  0.00000E+00  9.000E+00
      21     1     1     2   511   501  2.578248659E+00  7.268572882E+00 -2.335106330E+00  8.058054322E+00  1.861154437E-07  0.00000E+00  9.000E+00
#rwgt            1           1   4.4385792444498959E-002           2      453954           0
</event>
<event>
      5   9999  3.79277E-02  3.23272E+01 -1.00000E+00  1.50820E-01
      21    -1     0     0   502   512  0.000000000E+00  0.000000000E+00  7.728314167E+02  7.728314167E+02  0.000000000E+00  0.00000E+00  9.000E+00
      21    -1     0     0   501   502  0.000000000E+00  0.000000000E+00 -1.095652619E+02  1.095652619E+02  0.000000000E+00  0.00000E+00  9.000E+00
      25     1     1     2     0     0  2.628084171E+01 -7.998012798E+01 -3.211049673E+01  1.540895438E+02  1.250000000E+02  0.00000E+00  9.000E+00
      25     1     1     2     0     0 -2.044374330E+00  1.013726599E+02  4.000146167E+02  4.311812719E+02  1.250000000E+02  0.00000E+00  9.000E+00
      21     1     1     2   501   512 -2.423646738E+01 -2.139253193E+01  2.953620348E+02  2.971258628E+02  0.000000000E+00  0.00000E+00  9.000E+00
#rwgt            1           1   4.7472980835770999E-002           2      454302           0
</event>
<event>
      5   9999  3.79277E-02  4.39735E+01 -1.00000E+00  1.42335E-01
      21    -1     0     0   502   501  0.000000000E+00  0.000000000E+00  3.275186073E+01  3.275186073E+01  0.000000000E+00  0.00000E+00  9.000E+00
      21    -1     0     0   501   511  0.000000000E+00  0.000000000E+00 -3.324077388E+03  3.324077388E+03  0.000000000E+00  0.00000E+00  9.000E+00
      25     1     1     2     0     0  1.755127174E+02 -1.884599544E+02 -1.637011182E+03  1.661852123E+03  1.250000000E+02  0.00000E+00  9.000E+00
      25     1     1     2     0     0 -2.157444058E+02  2.062103489E+02 -1.401371494E+03  1.438240391E+03  1.250000000E+02  0.00000E+00  9.000E+00
      21     1     1     2   502   511  4.023168847E+01 -1.775039453E+01 -2.529428509E+02  2.567367349E+02  5.394796609E-06  0.00000E+00  9.000E+00
#rwgt            1           1   3.9363538000295475E-002           2      454477           0
</event>
<event>
      5   9999  3.79277E-02  3.87681E+01 -1.00000E+00  1.45688E-01
      21    -1     0     0   502   512  0.000000000E+00  0.000000000E+00  1.282290833E+02  1.282290833E+02  0.000000000E+00  0.00000E+00  9.000E+00
      21    -1     0     0   501   502  0.000000000E+00  0.000000000E+00 -4.045472811E+02  4.045472811E+02  0.000000000E+00  0.00000E+00  9.000E+00
      25     1     1     2     0     0  1.932314508E+01 -7.142392512E+01  3.252504566E+01  1.488544242E+02  1.250000000E+02  0.00000E+00  9.000E+00
      25     1     1     2     0     0  1.700776436E+01  8.495278073E+01 -3.098247332E+02  3.451414265E+02  1.250000000E+02  0.00000E+00  9.000E+00
      21     1     1     2   501   512 -3.633090944E+01 -1.352885561E+01  9.814898172E-01  3.878051363E+01  4.856041293E-07  0.00000E+00  9.000E+00
#rwgt            1           1   4.1879464358172414E-002           2      454656           0
</event>
<event>
      5   9999  3.79277E-02  1.92471E+01 -1.00000E+00  1.67756E-01
      21    -1     0     0   502   501  0.000000000E+00  0.000000000E+00  9.440250072E+02  9.440250072E+02  0.000000000E+00  0.00000E+00  9.000E+00
      -1    -1     0     0     0   502  0.000000000E+00  0.000000000E+00 -1.875984374E+02  1.875984374E+02  0.000000000E+00  0.00000E+00  9.000E+00
      25     1     1     2     0     0 -1.464923034E+02 -1.875970487E+02  4.182114099E+02  4.971704245E+02  1.250000000E+02  0.00000E+00  9.000E+00
      25     1     1     2     0     0  1.299347318E+02  1.974102264E+02  4.486954242E+02  5.223087360E+02  1.250000000E+02  0.00000E+00  9.000E+00
      -1     1     1     2     0   501  1.655757158E+01 -9.813177669E+00 -1.104802643E+02  1.121442840E+02  1.348699152E-06  0.00000E+00  9.000E+00
#rwgt            1           1   6.2300802928362355E-002           2      454769           0
</event>
<event>
      5   9999  3.79277E-02  3.34531E+01 -1.00000E+00  1.49825E-01
      21    -1     0     0   502   501  0.000000000E+00  0.000000000E+00  2.656863202E+02  2.656863202E+02  0.000000000E+00  0.00000E+00  9.000E+00
      21    -1     0     0   511   502  0.000000000E+00  0.000000000E+00 -2.826881948E+02  2.826881948E+02  0.000000000E+00  0.00000E+00  9.000E+00
      25     1     1     2     0     0 -4.290079312E+01  1.635299769E+02 -1.462555133E+02  2.561214684E+02  1.250000000E+02  0.00000E+00  9.000E+00
      25     1     1     2     0     0  7.589485058E+01 -1.690529056E+02  1.303970228E+02  2.587804026E+02  1.250000000E+02  0.00000E+00  9.000E+00
      21     1     1     2   511   501 -3.299405746E+01  5.522928676E+00 -1.143384088E+00  3.347264399E+01  7.423710052E-07  0.00000E+00  9.000E+00
#rwgt            1           1   4.1027210948969786E-002           2      454942           0
</event>
<event>
      5   9999  3.79277E-02  1.05579E+02 -1.00000E+00  1.22777E-01
      21    -1     0     0   502   512  0.000000000E+00  0.000000000E+00  6.282572276E+02  6.282572276E+02  0.000000000E+00  0.00000E+00  9.000E+00
      21    -1     0     0   501   502  0.000000000E+00  0.000000000E+00 -2.300766599E+02  2.300766599E+02  0.000000000E+00  0.00000E+00  9.000E+00
      25     1     1     2     0     0  1.546398844E+02  7.207881461E+00 -1.935083955E+01  1.999122367E+02  1.250000000E+02  0.00000E+00  9.000E+00
      25     1     1     2     0     0 -2.422321177E+02 -6.615376908E+01  6.162484290E+01  2.871852038E+02  1.250000000E+02  0.00000E+00  9.000E+00
      21     1     1     2   501   512  8.759223329E+01  5.894588762E+01  3.559065644E+02  3.712364470E+02  5.394796609E-06  0.00000E+00  9.000E+00
#rwgt            1           1   4.3501805221920639E-002           2      455094           0
</event>
<event>
      5   9999  3.79277E-02  9.12453E+01 -1.00000E+00  1.25644E-01
      21    -1     0     0   502   501  0.000000000E+00  0.000000000E+00  1.978280772E+03  1.978280772E+03  0.000000000E+00  0.00000E+00  9.000E+00
      21    -1     0     0   501   511  0.000000000E+00  0.000000000E+00 -5.387641960E+01  5.387641960E+01  0.000000000E+00  0.00000E+00  9.000E+00
      25     1     1     2     0     0  1.837933298E+01 -1.931443395E+02  1.160863455E+03  1.183584174E+03  1.250000000E+02  0.00000E+00  9.000E+00
      25     1     1     2     0     0  5.917779464E+01  2.412130196E+02  6.001424838E+02  6.614240191E+02  1.250000000E+02  0.00000E+00  9.000E+00
      21     1     1     2   502   511 -7.755712763E+01 -4.806868010E+01  1.633984131E+02  1.871489980E+02  1.907348633E-06  0.00000E+00  9.000E+00
#rwgt            1           1   4.8920639385242000E-002           2      455195           0
</event>
<event>
      5   9999 -3.79277E-02  5.02109E+01 -1.00000E+00  1.38971E-01
      21    -1     0     0   512   501  0.000000000E+00  0.000000000E+00  8.970823032E+01  8.970823032E+01  0.000000000E+00  0.00000E+00  9.000E+00
      21    -1     0     0   501   502  0.000000000E+00  0.000000000E+00 -8.623770210E+02  8.623770210E+02  0.000000000E+00  0.00000E+00  9.000E+00
      25     1     1     2     0     0 -1.989489007E+01  1.879631814E+02 -4.343006810E+02  4.898653343E+02  1.250000000E+02  0.00000E+00  9.000E+00
      25     1     1     2     0     0 -6.738939640E+00 -2.305281478E+02 -3.031405132E+02  4.008837873E+02  1.250000000E+02  0.00000E+00  9.000E+00
      21     1     1     2   512   502  2.663382971E+01  4.256496637E+01 -3.522759648E+01  6.133612966E+01  6.743495762E-07  0.00000E+00  9.000E+00
#rwgt            1           1 -0.27665663969480170                2      455300           0
</event>
<event>
      5   9999  3.79277E-02  2.40283E+02 -1.00000E+00  1.08822E-01
      21    -1     0     0   502   501  0.000000000E+00  0.000000000E+00  2.353346807E+02  2.353346807E+02  0.000000000E+00  0.00000E+00  9.000E+00
      21    -1     0     0   511   502  0.000000000E+00  0.000000000E+00 -8.039763100E+02  8.039763100E+02  0.000000000E+00  0.00000E+00  9.000E+00
      25     1     1     2     0     0  1.489699966E+02  1.455075783E+01 -2.088229694E+01  1.961245899E+02  1.250000000E+02  0.00000E+00  9.000E+00
      25     1     1     2     0     0 -3.669181031E+02  8.661422343E+01 -2.974914057E+02  4.962429391E+02  1.250000000E+02  0.00000E+00  9.000E+00
      21     1     1     2   511   501  2.179481065E+02 -1.011649813E+02 -2.502679265E+02  3.469434617E+02  2.697398305E-06  0.00000E+00  9.000E+00
#rwgt            1           1   3.1079687615072120E-002           2      455505           0
</event>
<event>
      5   9999  3.79277E-02  5.58604E+01 -1.00000E+00  1.36384E-01
      21    -1     0     0   502   501  0.000000000E+00  0.000000000E+00  5.278746309E+02  5.278746309E+02  0.000000000E+00  0.00000E+00  9.000E+00
      21    -1     0     0   512   502  0.000000000E+00  0.000000000E+00 -8.969705303E+01  8.969705303E+01  0.000000000E+00  0.00000E+00  9.000E+00
      25     1     1     2     0     0 -1.272298592E+02 -8.650893810E+01  2.474356893E+02  3.170499232E+02  1.250000000E+02  0.00000E+00  9.000E+00
      25     1     1     2     0     0  1.204415013E+02  3.106254545E+01  1.468765742E+02  2.294967647E+02  1.250000000E+02  0.00000E+00  9.000E+00
      21     1     1     2   512   501  6.788357860E+00  5.544639265E+01  4.386531437E+01  7.102499606E+01  1.168007728E-06  0.00000E+00  9.000E+00
#rwgt            1           1   4.1159895178725085E-002           2      455558           0
</event>
<event>
      5   9999  3.79277E-02  6.81603E+01 -1.00000E+00  1.31809E-01
      21    -1     0     0   502   501  0.000000000E+00  0.000000000E+00  7.153512334E+01  7.153512334E+01  0.000000000E+00  0.00000E+00  9.000E+00
       1    -1     0     0   501     0  0.000000000E+00  0.000000000E+00 -1.019771363E+03  1.019771363E+03  0.000000000E+00  0.00000E+00  9.000E+00
      25     1     1     2     0     0 -8.265962627E+01 -2.895340408E+01 -2.199001682E+02  2.676789073E+02  1.250000000E+02  0.00000E+00  9.000E+00
      25     1     1     2     0     0  9.978888524E+01 -3.701940739E+01 -1.013297793E+02  1.929274017E+02  1.250000000E+02  0.00000E+00  9.000E+00
       1     1     1     2   502     0 -1.712925897E+01  6.597281148E+01 -6.270062918E+02  6.307001770E+02  1.321449896E-05  0.00000E+00  9.000E+00
#rwgt            1           1   2.1071027087102779E-002           2      455867           0
</event>
<event>
      5   9999  3.79277E-02  3.95022E+01 -1.00000E+00  1.45178E-01
      21    -1     0     0   502   501  0.000000000E+00  0.000000000E+00  3.586348161E+02  3.586348161E+02  0.000000000E+00  0.00000E+00  9.000E+00
      21    -1     0     0   501   511  0.000000000E+00  0.000000000E+00 -1.075779546E+02  1.075779546E+02  0.000000000E+00  0.00000E+00  9.000E+00
      25     1     1     2     0     0  8.267941680E+01 -1.082651156E+01  2.413715264E+02  2.843207925E+02  1.250000000E+02  0.00000E+00  9.000E+00
      25     1     1     2     0     0 -5.359996101E+01  3.756241851E+01 -4.922944818E-01  1.410997288E+02  1.250000000E+02  0.00000E+00  9.000E+00
      21     1     1     2   502   511 -2.907945579E+01 -2.673590694E+01  1.017762955E+01  4.079224942E+01  8.429369702E-07  0.00000E+00  9.000E+00
#rwgt            1           1   5.0913743520806999E-002           2      455936           0
</event>
<event>
      5   9999  3.79277E-02  8.66046E+01 -1.00000E+00  1.26704E-01
      21    -1     0     0   502   501  0.000000000E+00  0.000000000E+00  1.594850839E+02  1.594850839E+02  0.000000000E+00  0.00000E+00  9.000E+00
      21    -1     0     0   512   502  0.000000000E+00  0.000000000E+00 -8.455067649E+02  8.455067649E+02  0.000000000E+00  0.00000E+00  9.000E+00
      25     1     1     2     0     0  1.111245772E+02 -1.654887535E+02 -3.941140906E+02  4.590055725E+02  1.250000000E+02  0.00000E+00  9.000E+00
      25     1     1     2     0     0 -1.290490916E+02  2.502181881E+02 -8.177756222E+01  3.187089258E+02  1.250000000E+02  0.00000E+00  9.000E+00
      21     1     1     2   512   501  1.792451434E+01 -8.472943457E+01 -2.101300282E+02  2.272773505E+02  0.000000000E+00  0.00000E+00  9.000E+00
#rwgt            2          11   1.9421524377428046E-003           2      456181           0
</event>
<event>
      5   9999  3.79277E-02  2.87086E+01 -1.00000E+00  1.54379E-01
      21    -1     0     0   502   511  0.000000000E+00  0.000000000E+00  7.136859950E+02  7.136859950E+02  0.000000000E+00  0.00000E+00  9.000E+00
      21    -1     0     0   501   502  0.000000000E+00  0.000000000E+00 -5.751725123E+01  5.751725123E+01  0.000000000E+00  0.00000E+00  9.000E+00
      25     1     1     2     0     0  1.258852048E+02 -4.143491768E+00  2.789811655E+02  3.306353641E+02  1.250000000E+02  0.00000E+00  9.000E+00
      25     1     1     2     0     0 -1.485988413E+02  2.170122784E+01  2.980752120E+02  3.564076190E+02  1.250000000E+02  0.00000E+00  9.000E+00
      21     1     1     2   501   511  2.271363647E+01 -1.755773607E+01  7.911236637E+01  8.416026313E+01  1.348699152E-06  0.00000E+00  9.000E+00
#rwgt            1           1   3.1426250976817602E-002           2      456216           0
</event>
<event>
      5   9999  3.79277E-02  1.68137E+01 -1.00000E+00  1.72837E-01
      21    -1     0     0   502   501  0.000000000E+00  0.000000000E+00  4.905528147E+02  4.905528147E+02  0.000000000E+00  0.00000E+00  9.000E+00
      21    -1     0     0   512   502  0.000000000E+00  0.000000000E+00 -1.494446957E+02  1.494446957E+02  0.000000000E+00  0.00000E+00  9.000E+00
      25     1     1     2     0     0 -1.874446774E+02  7.329942053E+01  8.919111229E+01  2.531568025E+02  1.250000000E+02  0.00000E+00  9.000E+00
      25     1     1     2     0     0  1.927952830E+02 -8.923907496E+01  2.676165558E+02  3.638368516E+02  1.250000000E+02  0.00000E+00  9.000E+00
      21     1     1     2   512   501 -5.350605564E+00  1.593965443E+01 -1.569954913E+01  2.300385633E+01  7.152557373E-07  0.00000E+00  9.000E+00
#rwgt            1           1   3.9493619261163890E-002           2      456401           0
</event>
<event>
      5   9999  3.79277E-02  1.67720E+01 -1.00000E+00  1.72934E-01
      21    -1     0     0   502   501  0.000000000E+00  0.000000000E+00  1.483436351E+02  1.483436351E+02  0.000000000E+00  0.00000E+00  9.000E+00
       2    -1     0     0   501     0  0.000000000E+00  0.000000000E+00 -3.502915651E+02  3.502915651E+02  0.000000000E+00  0.00000E+00  9.000E+00
      25     1     1     2     0     0  1.332063858E+02  2.197252694E+00  8.535743402E+00  1.828841930E+02  1.250000000E+02  0.00000E+00  9.000E+00
      25     1     1     2     0     0 -1.422896954E+02  1.190218601E+01 -1.218006715E+02  2.254959490E+02  1.250000000E+02  0.00000E+00  9.000E+00
       2     1     1     2   502     0  9.083309607E+00 -1.409943871E+01 -8.868300199E+01  9.025505818E+01  9.536743164E-07  0.00000E+00  9.000E+00
#rwgt            1           1  0.12495575064686286                2      456575           0
</event>
<event>
      5   9999  3.79277E-02  3.22377E+01 -1.00000E+00  1.50901E-01
      21    -1     0     0   502   511  0.000000000E+00  0.000000000E+00  2.785553717E+02  2.785553717E+02  0.000000000E+00  0.00000E+00  9.000E+00
      21    -1     0     0   501   502  0.000000000E+00  0.000000000E+00 -3.695743368E+02  3.695743368E+02  0.000000000E+00  0.00000E+00  9.000E+00
      25     1     1     2     0     0  1.165561188E+02 -2.500176276E+02 -2.321584156E+01  3.037402150E+02  1.250000000E+02  0.00000E+00  9.000E+00
      25     1     1     2     0     0 -1.271618781E+02  2.195744242E+02 -9.885049386E+01  2.996322599E+02  1.250000000E+02  0.00000E+00  9.000E+00
      21     1     1     2   501   511  1.060575927E+01  3.044320335E+01  3.104737031E+01  4.475723364E+01  8.920806376E-07  0.00000E+00  9.000E+00
#rwgt            1           1   3.2490545801358114E-002           2      456736           0
</event>
<event>
      5   9999  3.79277E-02  6.15565E+01 -1.00000E+00  1.34112E-01
      21    -1     0     0   502   501  0.000000000E+00  0.000000000E+00  2.152365857E+02  2.152365857E+02  0.000000000E+00  0.00000E+00  9.000E+00
      21    -1     0     0   501   512  0.000000000E+00  0.000000000E+00 -5.351646816E+02  5.351646816E+02  0.000000000E+00  0.00000E+00  9.000E+00
      25     1     1     2     0     0  1.240650993E+02 -7.057940237E+01 -3.629362281E+02  4.095379183E+02  1.250000000E+02  0.00000E+00  9.000E+00
      25     1     1     2     0     0 -1.690454812E+02  2.855599522E+01  1.188442746E+02  2.431887769E+02  1.250000000E+02  0.00000E+00  9.000E+00
      21     1     1     2   502   512  4.498038197E+01  4.202340716E+01 -7.583614249E+01  9.767457202E+01  9.536743164E-07  0.00000E+00  9.000E+00
#rwgt            1           1   4.0808986852398421E-002           2      457043           0
</event>
<event>
      5   9999  3.79277E-02  2.44793E+01 -1.00000E+00  1.59439E-01
      21    -1     0     0   502   501  0.000000000E+00  0.000000000E+00  1.861269591E+02  1.861269591E+02  0.000000000E+00  0.00000E+00  9.000E+00
      21    -1     0     0   511   502  0.000000000E+00  0.000000000E+00 -9.418715162E+02  9.418715162E+02  0.000000000E+00  0.00000E+00  9.000E+00
      25     1     1     2     0     0  7.336265451E+01  1.525555375E+02 -2.792847365E+01  2.122740463E+02  1.250000000E+02  0.00000E+00  9.000E+00
      25     1     1     2     0     0 -5.322925788E+01 -1.386313828E+02 -6.729334143E+00  1.942222905E+02  1.250000000E+02  0.00000E+00  9.000E+00
      21     1     1     2   511   501 -2.013339663E+01 -1.392415465E+01 -7.210867493E+02  7.215021385E+02  1.078959322E-05  0.00000E+00  9.000E+00
#rwgt            1           1   4.2510190980735232E-002           2      457254           0
</event>
<event>
      5   9999  3.79277E-02  1.01890E+01 -1.00000E+00  1.94822E-01
      21    -1     0     0   502   501  0.000000000E+00  0.000000000E+00  3.234124349E+02  3.234124349E+02  0.000000000E+00  0.00000E+00  9.000E+00
       2    -1     0     0   501     0  0.000000000E+00  0.000000000E+00 -1.329527930E+03  1.329527930E+03  0.000000000E+00  0.00000E+00  9.000E+00
      25     1     1     2     0     0  8.414672518E+01 -3.617055670E+01  2.282470989E+02  2.758817114E+02  1.250000000E+02  0.00000E+00  9.000E+00
      25     1     1     2     0     0 -9.055633184E+01  2.825011765E+01 -1.497860245E+01  1.576320935E+02  1.250000000E+02  0.00000E+00  9.000E+00
       2     1     1     2   502     0  6.409606664E+00  7.920439051E+00 -1.219383991E+03  1.219426560E+03  2.642899792E-05  0.00000E+00  9.000E+00
#rwgt            1           1   1.4549113412178441E-002           2      457390           0
</event>
<event>
      5   9999  3.79277E-02  2.67686E+01 -1.00000E+00  1.56559E-01
      21    -1     0     0   511   501  0.000000000E+00  0.000000000E+00  7.099375388E+02  7.099375388E+02  0.000000000E+00  0.00000E+00  9.000E+00
      21    -1     0     0   501   502  0.000000000E+00  0.000000000E+00 -6.223182911E+01  6.223182911E+01  0.000000000E+00  0.00000E+00  9.000E+00
      25     1     1     2     0     0 -2.553287774E+01 -7.782128150E+01  5.421587162E+02  5.623781230E+02  1.250000000E+02  0.00000E+00  9.000E+00
      25     1     1     2     0     0  2.710386773E+01  5.109878266E+01  4.720075212E+01  1.455974458E+02  1.250000000E+02  0.00000E+00  9.000E+00
      21     1     1     2   511   502 -1.570989992E+00  2.672249884E+01  5.834624136E+01  6.419379904E+01  9.536743164E-07  0.00000E+00  9.000E+00
#rwgt            1           1   3.4633204056277844E-002           2      457724           0
</event>
<event>
      5   9999  3.79277E-02  3.70533E+01 -1.00000E+00  1.46932E-01
      21    -1     0     0   502   512  0.000000000E+00  0.000000000E+00  9.680220508E+02  9.680220508E+02  0.000000000E+00  0.00000E+00  9.000E+00
      21    -1     0     0   501   502  0.000000000E+00  0.000000000E+00 -1.563554737E+02  1.563554737E+02  0.000000000E+00  0.00000E+00  9.000E+00
      25     1     1     2     0     0  2.704009546E+02  1.226011054E+02  4.516592764E+02  5.547691495E+02  1.250000000E+02  0.00000E+00  9.000E+00
      25     1     1     2     0     0 -3.041837878E+02 -1.378217775E+02  2.072726335E+02  4.124434067E+02  1.250000000E+02  0.00000E+00  9.000E+00
      21     1     1     2   501   512  3.378283315E+01  1.522067206E+01  1.527346672E+02  1.571649683E+02  1.907348633E-06  0.00000E+00  9.000E+00
#rwgt            1           1   3.1856272408152107E-002           2      458042           0
</event>
<event>
      5   9999  3.79277E-02  7.64833E+01 -1.00000E+00  1.29302E-01
      21    -1     0     0   502   501  0.000000000E+00  0.000000000E+00  3.958879001E+02  3.958879001E+02  0.000000000E+00  0.00000E+00  9.000E+00
       2    -1     0     0   501     0  0.000000000E+00  0.000000000E+00 -1.186063598E+03  1.186063598E+03  0.000000000E+00  0.00000E+00  9.000E+00
      25     1     1     2     0     0 -5.919215856E+01  4.272683862E-01  3.192203960E+02  3.478944601E+02  1.250000000E+02  0.00000E+00  9.000E+00
      25     1     1     2     0     0 -1.587027677E+01  1.424687205E+01 -4.884319373E+00  1.269003374E+02  1.250000000E+02  0.00000E+00  9.000E+00
       2     1     1     2   502     0  7.506243533E+01 -1.467414044E+01 -1.104511775E+03  1.107156701E+03  2.157918644E-05  0.00000E+00  9.000E+00
#rwgt            1           1   4.1280863893698408E-002           2      458168           0
</event>
<event>
      5   9999  3.79277E-02  9.74126E+01 -1.00000E+00  1.24342E-01
       2    -1     0     0   502     0  0.000000000E+00  0.000000000E+00  4.131400461E+02  4.131400461E+02  0.000000000E+00  0.00000E+00  9.000E+00
      21    -1     0     0   501   502  0.000000000E+00  0.000000000E+00 -7.330093678E+02  7.330093678E+02  0.000000000E+00  0.00000E+00  9.000E+00
      25     1     1     2     0     0 -9.399793374E+01  1.636530529E+02 -4.525755474E+02  5.060311842E+02  1.250000000E+02  0.00000E+00  9.000E+00
      25     1     1     2     0     0  1.847546797E+02 -1.990427610E+02 -1.547268022E+02  3.366269385E+02  1.250000000E+02  0.00000E+00  9.000E+00
       2     1     1     2   501     0 -9.075674600E+01  3.538970812E+01  2.874330279E+02  3.034912913E+02  0.000000000E+00  0.00000E+00  9.000E+00
#rwgt            2          18   2.7983498868941432E-004           2      458320           0
</event>
<event>
      5   9999  3.79277E-02  2.79561E+01 -1.00000E+00  1.55199E-01
       2    -1     0     0   502     0  0.000000000E+00  0.000000000E+00  3.148330637E+03  3.148330637E+03  0.000000000E+00  0.00000E+00  9.000E+00
      21    -1     0     0   501   502  0.000000000E+00  0.000000000E+00 -1.871726620E+01  1.871726620E+01  0.000000000E+00  0.00000E+00  9.000E+00
      25     1     1     2     0     0  2.671917980E+01  6.062369487E+01  2.601613140E+03  2.605456789E+03  1.250000000E+02  0.00000E+00  9.000E+00
      25     1     1     2     0     0 -5.193478466E+01 -4.855237649E+01  3.091125400E+02  3.409253841E+02  1.250000000E+02  0.00000E+00  9.000E+00
       2     1     1     2   501     0  2.521560487E+01 -1.207131838E+01  2.188876908E+02  2.206657305E+02  3.814697266E-06  0.00000E+00  9.000E+00
#rwgt            1           1   5.5320729978572729E-002           2      458339           0
</event>
<event>
      5   9999  3.79277E-02  2.82031E+01 -1.00000E+00  1.54927E-01
      21    -1     0     0   502   501  0.000000000E+00  0.000000000E+00  1.011801608E+02  1.011801608E+02  0.000000000E+00  0.00000E+00  9.000E+00
       1    -1     0     0   501     0  0.000000000E+00  0.000000000E+00 -3.367506779E+02  3.367506779E+02  0.000000000E+00  0.00000E+00  9.000E+00
      25     1     1     2     0     0  5.414210173E+01 -3.217056011E+01 -1.694933056E+02  2.198164979E+02  1.250000000E+02  0.00000E+00  9.000E+00
      25     1     1     2     0     0 -7.511339991E+01  5.102847982E+01 -9.376181726E+00  1.547864380E+02  1.250000000E+02  0.00000E+00  9.000E+00
       1     1     1     2   502     0  2.097129818E+01 -1.885791972E+01 -5.670102990E+01  6.332790281E+01  6.743495762E-07  0.00000E+00  9.000E+00
#rwgt            1           1   4.8983531155441615E-002           2      458431           0
</event>
<event>
      5   9999  3.79277E-02  3.29972E+01 -1.00000E+00  1.50222E-01
      21    -1     0     0   502   511  0.000000000E+00  0.000000000E+00  1.156598626E+02  1.156598626E+02  0.000000000E+00  0.00000E+00  9.000E+00
      21    -1     0     0   501   502  0.000000000E+00  0.000000000E+00 -4.836720569E+02  4.836720569E+02  0.000000000E+00  0.00000E+00  9.000E+00
      25     1     1     2     0     0 -5.395337818E+01  1.536138585E+02 -2.320839714E+02  3.098324617E+02  1.250000000E+02  0.00000E+00  9.000E+00
      25     1     1     2     0     0  8.694522896E+01 -1.530203985E+02 -1.383737068E+02  2.564117741E+02  1.250000000E+02  0.00000E+00  9.000E+00
      21     1     1     2   501   511 -3.299185079E+01 -5.934600363E-01  2.445483858E+00  3.308768357E+01  6.114925304E-07  0.00000E+00  9.000E+00
#rwgt            1           1   2.4498295241166643E-003           2      458527           0
</event>
<event>
      5   9999  3.79277E-02  1.79193E+01 -1.00000E+00  1.70404E-01
      21    -1     0     0   502   501  0.000000000E+00  0.000000000E+00  1.081650817E+02  1.081650817E+02  0.000000000E+00  0.00000E+00  9.000E+00
       2    -1     0     0   501     0  0.000000000E+00  0.000000000E+00 -1.916686665E+03  1.916686665E+03  0.000000000E+00  0.00000E+00  9.000E+00
      25     1     1     2     0     0 -3.584404853E+01 -1.186464343E+02 -6.460461528E+01  1.875114090E+02  1.250000000E+02  0.00000E+00  9.000E+00
      25     1     1     2     0     0  2.809502717E+01  1.348035996E+02 -1.386420947E+02  2.319654531E+02  1.250000000E+02  0.00000E+00  9.000E+00
       2     1     1     2   502     0  7.749021362E+00 -1.615716531E+01 -1.605274873E+03  1.605374884E+03  2.157918644E-05  0.00000E+00  9.000E+00
#rwgt            1           1   4.8117785153224256E-002           2      458632           0
</event>
<event>
      5   9999  3.79277E-02  6.13850E+01 -1.00000E+00  1.34176E-01
       2    -1     0     0   502     0  0.000000000E+00  0.000000000E+00  3.971051157E+02  3.971051157E+02  0.000000000E+00  0.00000E+00  9.000E+00
      21    -1     0     0   501   502  0.000000000E+00  0.000000000E+00 -2.449658712E+02  2.449658712E+02  0.000000000E+00  0.00000E+00  9.000E+00
      25     1     1     2     0     0  1.167835639E+02  1.244461190E+02 -1.051058064E+02  2.362148764E+02  1.250000000E+02  0.00000E+00  9.000E+00
      25     1     1     2     0     0 -8.565659727E+01 -1.773538990E+02  1.361694148E+02  2.701084369E+02  1.250000000E+02  0.00000E+00  9.000E+00
       2     1     1     2   501     0 -3.112696661E+01  5.290778000E+01  1.210756361E+02  1.357476736E+02  1.348699152E-06  0.00000E+00  9.000E+00
#rwgt            1           1   3.6457467317899589E-002           2      458778           0
</event>
<event>
      5   9999  3.79277E-02  6.40505E+01 -1.00000E+00  1.33205E-01
      21    -1     0     0   502   501  0.000000000E+00  0.000000000E+00  9.594111227E+02  9.594111227E+02  0.000000000E+00  0.00000E+00  9.000E+00
      21    -1     0     0   511   502  0.000000000E+00  0.000000000E+00 -1.146748651E+02  1.146748651E+02  0.000000000E+00  0.00000E+00  9.000E+00
      25     1     1     2     0     0  5.838259692E+01  2.017438785E+02  1.300525904E+02  2.768533843E+02  1.250000000E+02  0.00000E+00  9.000E+00
      25     1     1     2     0     0 -8.011329723E+00 -2.413064488E+02  6.570140900E+02  7.110453559E+02  1.250000000E+02  0.00000E+00  9.000E+00
      21     1     1     2   511   501 -5.037126720E+01  3.956257037E+01  5.766957714E+01  8.618724767E+01  1.784161275E-06  0.00000E+00  9.000E+00
#rwgt            1           1   3.7760963188581756E-002           2      458831           0
</event>
<event>
      5   9999  3.79277E-02  2.38381E+01 -1.00000E+00  1.60315E-01
      21    -1     0     0   502   512  0.000000000E+00  0.000000000E+00  3.173379802E+02  3.173379802E+02  0.000000000E+00  0.00000E+00  9.000E+00
      21    -1     0     0   501   502  0.000000000E+00  0.000000000E+00 -1.480381425E+02  1.480381425E+02  0.000000000E+00  0.00000E+00  9.000E+00
      25     1     1     2     0     0  8.463490538E+01  5.204097119E+01 -5.829509234E+01  1.699842572E+02  1.250000000E+02  0.00000E+00  9.000E+00
      25     1     1     2     0     0 -8.698968415E+01 -2.831947085E+01  1.556190425E+02  2.195711365E+02  1.250000000E+02  0.00000E+00  9.000E+00
      21     1     1     2   501   512  2.354778770E+00 -2.372150033E+01  7.197588752E+01  7.582072899E+01  9.536743164E-07  0.00000E+00  9.000E+00
#rwgt            1           1   3.3142013385350180E-002           2      458966           0
</event>
<event>
      5   9999 -3.79277E-02  5.53353E+01 -1.00000E+00  1.36609E-01
      21    -1     0     0   502   501  0.000000000E+00  0.000000000E+00  8.964468530E+01  8.964468530E+01  0.000000000E+00  0.00000E+00  9.000E+00
       4    -1     0     0   501     0  0.000000000E+00  0.000000000E+00 -3.260771235E+03  3.260771235E+03  0.000000000E+00  0.00000E+00  9.000E+00
      25     1     1     2     0     0 -1.523311685E+02 -1.146199544E+02 -3.290765388E+02  4.003234782E+02  1.250000000E+02  0.00000E+00  9.000E+00
      25     1     1     2     0     0  9.710880608E+01  1.110856310E+02 -1.202232396E+02  2.277032388E+02  1.250000000E+02  0.00000E+00  9.000E+00
       4     1     1     2   502     0  5.522236242E+01  3.534323430E+00 -2.721826771E+03  2.722389203E+03  3.051757812E-05  0.00000E+00  9.000E+00
#rwgt            1           1  -3.9833385247982755E-003           2      459172           0
</event>
<event>
      5   9999  3.79277E-02  4.56745E+01 -1.00000E+00  1.41355E-01
      21    -1     0     0   502   501  0.000000000E+00  0.000000000E+00  7.722926176E+02  7.722926176E+02  0.000000000E+00  0.00000E+00  9.000E+00
      -1    -1     0     0     0   502  0.000000000E+00  0.000000000E+00 -1.129393146E+02  1.129393146E+02  0.000000000E+00  0.00000E+00  9.000E+00
      25     1     1     2     0     0  7.282239094E+01 -1.316110921E+02  8.995171130E+01  2.152693442E+02  1.250000000E+02  0.00000E+00  9.000E+00
      25     1     1     2     0     0 -5.303982672E+01  1.727791525E+02  5.823959452E+02  6.224756186E+02  1.250000000E+02  0.00000E+00  9.000E+00
      -1     1     1     2     0   501 -1.978256422E+01 -4.116806034E+01 -1.299435359E+01  4.748696942E+01  1.348699152E-06  0.00000E+00  9.000E+00
#rwgt            1           1   4.1792748574155034E-002           2      459332           0
</event>
<event>
      5   9999  3.79277E-02  6.25245E+00 -1.00000E+00  2.22727E-01
      21    -1     0     0   502   511  0.000000000E+00  0.000000000E+00  7.120841422E+01  7.120841422E+01  0.000000000E+00  0.00000E+00  9.000E+00
      21    -1     0     0   501   502  0.000000000E+00  0.000000000E+00 -6.521448641E+02  6.521448641E+02  0.000000000E+00  0.00000E+00  9.000E+00
      25     1     1     2     0     0 -9.968778546E+01 -1.335126709E+02 -3.264755520E+02  3.872655083E+02  1.250000000E+02  0.00000E+00  9.000E+00
      25     1     1     2     0     0  1.040716478E+02  1.379707959E+02 -2.478497305E+02  3.269882831E+02  1.250000000E+02  0.00000E+00  9.000E+00
      21     1     1     2   501   511 -4.383862379E+00 -4.458124979E+00 -6.611167372E+00  9.099486893E+00  0.000000000E+00  0.00000E+00  9.000E+00
#rwgt            1           1   4.9601302703013522E-002           2      459419           0
</event>
<event>
      5   9999  3.79277E-02  1.14102E+02 -1.00000E+00  1.21305E-01
      21    -1     0     0   512   501  0.000000000E+00  0.000000000E+00  3.581971514E+02  3.581971514E+02  0.000000000E+00  0.00000E+00  9.000E+00
      21    -1     0     0   501   502  0.000000000E+00  0.000000000E+00 -2.162266884E+02  2.162266884E+02  0.000000000E+00  0.00000E+00  9.000E+00
      25     1     1     2     0     0 -1.137344957E+02  7.602431741E+01  9.636213731E+01  2.088681255E+02  1.250000000E+02  0.00000E+00  9.000E+00
      25     1     1     2     0     0  1.984627210E+02  3.978827684E-01 -1.743695922E+01  2.351949350E+02  1.250000000E+02  0.00000E+00  9.000E+00
      21     1     1     2   512   502 -8.472822525E+01 -7.642220017E+01  6.304528490E+01  1.303607793E+02  3.090257978E-06  0.00000E+00  9.000E+00
#rwgt            1           1   3.5663745867423394E-002           2      459868           0
</event>
<event>
      5   9999  3.79277E-02  6.15631E+01 -1.00000E+00  1.34109E-01
      21    -1     0     0   511   501  0.000000000E+00  0.000000000E+00  1.099523887E+02  1.099523887E+02  0.000000000E+00  0.00000E+00  9.000E+00
      21    -1     0     0   501   502  0.000000000E+00  0.000000000E+00 -1.301928016E+03  1.301928016E+03  0.000000000E+00  0.00000E+00  9.000E+00
      25     1     1     2     0     0 -4.322543881E+01 -8.406278397E+01 -1.463325044E+01  1.573979740E+02  1.250000000E+02  0.00000E+00  9.000E+00
      25     1     1     2     0     0  1.295451322E+01  3.045601073E+01 -1.185366613E+03  1.192398589E+03  1.250000000E+02  0.00000E+00  9.000E+00
      21     1     1     2   511   502  3.027092560E+01  5.360677323E+01  8.024235856E+00  6.208384197E+01  1.111910230E-06  0.00000E+00  9.000E+00
#rwgt            1           1   4.3777645300445076E-002           2      460000           0
</event>
<event>
      5   9999  3.79277E-02  2.96681E+01 -1.00000E+00  1.53376E-01
      21    -1     0     0   502   512  0.000000000E+00  0.000000000E+00  3.269949650E+02  3.269949650E+02  0.000000000E+00  0.00000E+00  9.000E+00
      21    -1     0     0   501   502  0.000000000E+00  0.000000000E+00 -3.432297888E+02  3.432297888E+02  0.000000000E+00  0.00000E+00  9.000E+00
      25     1     1     2     0     0  5.404932224E-01 -2.432050578E+02 -1.934632157E+02  3.349656819E+02  1.250000000E+02  0.00000E+00  9.000E+00
      25     1     1     2     0     0 -1.858485331E+01  2.196551510E+02  1.472848830E+02  2.931068387E+02  1.250000000E+02  0.00000E+00  9.000E+00
      21     1     1     2   501   512  1.804436009E+01  2.354990675E+01  2.994350883E+01  4.215223316E+01  4.768371582E-07  0.00000E+00  9.000E+00
#rwgt            1           1   2.8400389193361127E-002           2      460122           0
</event>
<event>
      5   9999  3.79277E-02  1.31117E+01 -1.00000E+00  1.83071E-01
      21    -1     0     0   511   501  0.000000000E+00  0.000000000E+00  8.800418128E+01  8.800418128E+01  0.000000000E+00  0.00000E+00  9.000E+00
      21    -1     0     0   501   502  0.000000000E+00  0.000000000E+00 -7.480064860E+02  7.480064860E+02  0.000000000E+00  0.00000E+00  9.000E+00
      25     1     1     2     0     0 -1.482160318E+02  5.013840373E+01 -5.158096291E+02  5.533230748E+02  1.250000000E+02  0.00000E+00  9.000E+00
      25     1     1     2     0     0  1.612522361E+02 -5.154358201E+01 -1.583730738E+02  2.633743628E+02  1.250000000E+02  0.00000E+00  9.000E+00
      21     1     1     2   511   502 -1.303620432E+01  1.405178283E+00  1.418039815E+01  1.931322969E+01  5.057621821E-07  0.00000E+00  9.000E+00
#rwgt            1           1   3.6894893760808158E-002           2      460275           0
</event>
<event>
      5   9999  3.79277E-02  6.45448E+01 -1.00000E+00  1.33030E-01
      21    -1     0     0   502   512  0.000000000E+00  0.000000000E+00  3.144651619E+02  3.144651619E+02  0.000000000E+00  0.00000E+00  9.000E+00
      21    -1     0     0   501   502  0.000000000E+00  0.000000000E+00 -1.853006092E+02  1.853006092E+02  0.000000000E+00  0.00000E+00  9.000E+00
      25     1     1     2     0     0  1.394740150E+02 -1.363269416E+02  6.985512684E+01  2.419561419E+02  1.250000000E+02  0.00000E+00  9.000E+00
      25     1     1     2     0     0 -8.154930106E+01  1.078531559E+02  2.865896927E+01  1.863569914E+02  1.250000000E+02  0.00000E+00  9.000E+00
      21     1     1     2   501   512 -5.792471394E+01  2.847378568E+01  3.065045663E+01  7.145263779E+01  1.348699152E-06  0.00000E+00  9.000E+00
#rwgt            1           1   3.8722481047719769E-002           2      460588           0
</event>
<event>
      5   9999 -3.79277E-02  2.06535E+01 -1.00000E+00  1.65225E-01
      21    -1     0     0   502   501  0.000000000E+00  0.000000000E+00  6.290342837E+02  6.290342837E+02  0.000000000E+00  0.00000E+00  9.000E+00
      21    -1     0     0   511   502  0.000000000E+00  0.000000000E+00 -1.009444171E+02  1.009444171E+02  0.000000000E+00  0.00000E+00  9.000E+00
      25     1     1     2     0     0 -1.126994000E+02  1.267874096E+02  4.392189113E+02  4.871493139E+02  1.250000000E+02  0.00000E+00  9.000E+00
      25     1     1     2     0     0  9.318966888E+01 -1.335652304E+02  8.181563617E+01  2.210040350E+02  1.250000000E+02  0.00000E+00  9.000E+00
      21     1     1     2   511   501  1.950973114E+01  6.777820724E+00  7.055319132E+00  2.182535202E+01  2.230201594E-07  0.00000E+00  9.000E+00
#rwgt            1           1  -4.2787709337531753E-002           2      460686           0
</event>
<event>
      5   9999  3.79277E-02  5.90252E+01 -1.00000E+00  1.35085E-01
      21    -1     0     0   502   501  0.000000000E+00  0.000000000E+00  6.288972577E+02  6.288972577E+02  0.000000000E+00  0.00000E+00  9.000E+00
      21    -1     0     0   501   512  0.000000000E+00  0.000000000E+00 -8.186072280E+01  8.186072280E+01  0.000000000E+00  0.00000E+00  9.000E+00
      25     1     1     2     0     0  1.231696794E+02 -2.503657873E+01  4.531508514E+02  4.865884240E+02  1.250000000E+02  0.00000E+00  9.000E+00
      25     1     1     2     0     0 -6.584525713E+01  1.096958970E+01  8.276291339E+01  1.641055441E+02  1.250000000E+02  0.00000E+00  9.000E+00
      21     1     1     2   502   512 -5.732442229E+01  1.406698903E+01  1.112277011E+01  6.006401241E+01  4.298152060E-07  0.00000E+00  9.000E+00
#rwgt            1           1   4.0584579208521716E-002           2      460813           0
</event>
<event>
      5   9999  3.79277E-02  7.21072E+01 -1.00000E+00  1.30572E-01
      21    -1     0     0   502   511  0.000000000E+00  0.000000000E+00  1.265239148E+02  1.265239148E+02  0.000000000E+00  0.00000E+00  9.000E+00
      21    -1     0     0   501   502  0.000000000E+00  0.000000000E+00 -6.862868829E+02  6.862868829E+02  0.000000000E+00  0.00000E+00  9.000E+00
      25     1     1     2     0     0 -2.151888833E+02  3.458274098E+01 -3.544246304E+02  4.344468208E+02  1.250000000E+02  0.00000E+00  9.000E+00
      25     1     1     2     0     0  1.659712467E+02 -8.728068244E+01 -2.073329344E+02  3.062291919E+02  1.250000000E+02  0.00000E+00  9.000E+00
      21     1     1     2   501   511  4.921763659E+01  5.269794147E+01  1.994596727E+00  7.213478497E+01  3.891457575E-07  0.00000E+00  9.000E+00
#rwgt            1           1   5.2397338392913315E-002           2      460909           0
</event>
<event>
      5   9999 -3.79277E-02  1.24663E+01 -1.00000E+00  1.85304E-01
      21    -1     0     0   502   501  0.000000000E+00  0.000000000E+00  2.336700446E+02  2.336700446E+02  0.000000000E+00  0.00000E+00  9.000E+00
      21    -1     0     0   512   502  0.000000000E+00  0.000000000E+00 -3.441204200E+02  3.441204200E+02  0.000000000E+00  0.00000E+00  9.000E+00
      25     1     1     2     0     0 -7.907491264E+01 -1.926412777E+02  7.300058004E+01  2.536091252E+02  1.250000000E+02  0.00000E+00  9.000E+00
      25     1     1     2     0     0  8.360523653E+01  2.042553017E+02 -1.806637841E+02  3.114072362E+02  1.250000000E+02  0.00000E+00  9.000E+00
      21     1     1     2   512   501 -4.530323892E+00 -1.161402400E+01 -2.787171373E+00  1.277410319E+01  1.429269172E-07  0.00000E+00  9.000E+00
#rwgt            1           1  -5.9527529546575565E-002           2      461178           0
</event>
<event>
      5   9999  3.79277E-02  2.74960E+01 -1.00000E+00  1.55716E-01
      21    -1     0     0   502   511  0.000000000E+00  0.000000000E+00  8.334854771E+01  8.334854771E+01  0.000000000E+00  0.00000E+00  9.000E+00
      21    -1     0     0   501   502  0.000000000E+00  0.000000000E+00 -6.501323753E+02  6.501323753E+02  0.000000000E+00  0.00000E+00  9.000E+00
      25     1     1     2     0     0 -5.713558467E+01 -1.588216518E+02 -1.572353966E+02  2.623676086E+02  1.250000000E+02  0.00000E+00  9.000E+00
      25     1     1     2     0     0  2.978582566E+01  1.559898425E+02 -3.821310895E+02  4.322836984E+02  1.250000000E+02  0.00000E+00  9.000E+00
      21     1     1     2   501   511  2.734975902E+01  2.831809265E+00 -2.741734157E+01  3.882961603E+01  0.000000000E+00  0.00000E+00  9.000E+00
#rwgt            1           1   4.1621715680081273E-002           2      461450           0
</event>
<event>
      5   9999  3.79277E-02  4.54956E+01 -1.00000E+00  1.41456E-01
      21    -1     0     0   512   501  0.000000000E+00  0.000000000E+00  6.617129351E+02  6.617129351E+02  0.000000000E+00  0.00000E+00  9.000E+00
      21    -1     0     0   501   502  0.000000000E+00  0.000000000E+00 -2.099791979E+02  2.099791979E+02  0.000000000E+00  0.00000E+00  9.000E+00
      25     1     1     2     0     0 -1.868796487E+02  3.817006549E+01  2.717528992E+02  3.547613215E+02  1.250000000E+02  0.00000E+00  9.000E+00
      25     1     1     2     0     0  1.433304101E+02 -5.133508687E+01 -1.084952983E+02  2.248891446E+02  1.250000000E+02  0.00000E+00  9.000E+00
      21     1     1     2   512   502  4.354923864E+01  1.316502138E+01  2.884761363E+02  2.920416669E+02  3.814697266E-06  0.00000E+00  9.000E+00
#rwgt            1           1   5.0056704338267664E-002           2      461652           0
</event>
<event>
      5   9999  3.79277E-02  2.66531E+02 -1.00000E+00  1.07289E-01
      21    -1     0     0   502   501  0.000000000E+00  0.000000000E+00  1.387565747E+02  1.387565747E+02  0.000000000E+00  0.00000E+00  9.000E+00
      21    -1     0     0   501   511  0.000000000E+00  0.000000000E+00 -1.410968714E+03  1.410968714E+03  0.000000000E+00  0.00000E+00  9.000E+00
      25     1     1     2     0     0 -5.015259016E+01  1.723370327E+02 -2.655596846E+01  2.203305576E+02  1.250000000E+02  0.00000E+00  9.000E+00
      25     1     1     2     0     0 -1.307684536E+02  2.338327215E+01 -3.466665202E+02  3.917267442E+02  1.250000000E+02  0.00000E+00  9.000E+00
      21     1     1     2   502   511  1.809210438E+02 -1.957203048E+02 -8.989896502E+02  9.376679865E+02  0.000000000E+00  0.00000E+00  9.000E+00
#rwgt            1           1   3.7444381674516261E-002           2      461793           0
</event>
<event>
      5   9999  3.79277E-02  2.76601E+01 -1.00000E+00  1.55530E-01
       2    -1     0     0   502     0  0.000000000E+00  0.000000000E+00  3.177383705E+03  3.177383705E+03  0.000000000E+00  0.00000E+00  9.000E+00
      21    -1     0     0   501   502  0.000000000E+00  0.000000000E+00 -8.076265490E+02  8.076265490E+02  0.000000000E+00  0.00000E+00  9.000E+00
      25     1     1     2     0     0  4.050713165E+01 -9.841897263E+01 -5.910979645E+02  6.134728400E+02  1.250000000E+02  0.00000E+00  9.000E+00
      25     1     1     2     0     0 -1.785033676E+01  1.142855878E+02 -1.699565673E+02  2.406035430E+02  1.250000000E+02  0.00000E+00  9.000E+00
       2     1     1     2   501     0 -2.265679489E+01 -1.586661517E+01  3.130811688E+03  3.130933871E+03  0.000000000E+00  0.00000E+00  9.000E+00
#rwgt            1           1   3.2446898854158038E-002           2      461838           0
</event>
<event>
      5   9999  3.79277E-02  6.40091E+01 -1.00000E+00  1.33219E-01
      21    -1     0     0   502   501  0.000000000E+00  0.000000000E+00  1.175054598E+02  1.175054598E+02  0.000000000E+00  0.00000E+00  9.000E+00
      21    -1     0     0   501   511  0.000000000E+00  0.000000000E+00 -7.100605639E+02  7.100605639E+02  0.000000000E+00  0.00000E+00  9.000E+00
      25     1     1     2     0     0  5.477004873E+01 -4.754724544E+01  4.112763731E+01  1.502563853E+02  1.250000000E+02  0.00000E+00  9.000E+00
      25     1     1     2     0     0 -1.174786281E+02  3.470993153E+01 -4.736260989E+02  5.049283998E+02  1.250000000E+02  0.00000E+00  9.000E+00
      21     1     1     2   502   511  6.270857937E+01  1.283731390E+01 -1.600566425E+02  1.723812384E+02  3.303624740E-06  0.00000E+00  9.000E+00
#rwgt            1           1   4.2988158607974766E-002           2      461920           0
</event>
<event>
      5   9999  3.79277E-02  9.01587E+01  7.55638E-03  1.25886E-01
      -2    -1     0     0     0   501  0.000000000E+00  0.000000000E+00  4.056947917E+02  4.056947917E+02  0.000000000E+00  0.00000E+00  9.000E+00
       2    -1     0     0   502     0  0.000000000E+00  0.000000000E+00 -1.630690552E+02  1.630690552E+02  0.000000000E+00  0.00000E+00  9.000E+00
      25     1     1     2     0     0  8.428085486E+01  3.467585800E+01  1.420184721E+01  1.553459690E+02  1.250000000E+02  0.00000E+00  9.000E+00
      25     1     1     2     0     0 -1.679006217E+00 -7.080801746E+01  2.762369853E+02  3.113654869E+02  1.250000000E+02  0.00000E+00  9.000E+00
      21     1     1     2   502   501 -8.260184864E+01  3.613215946E+01 -4.781309600E+01  1.020523909E+02  2.023048729E-06  0.00000E+00  9.000E+00
#rwgt            3           4   4.2554453069428945E-005           2      462101           0
</event>
<event>
      5   9999  3.79277E-02  1.14502E+02 -1.00000E+00  1.21239E-01
      21    -1     0     0   502   501  0.000000000E+00  0.000000000E+00  1.101829994E+02  1.101829994E+02  0.000000000E+00  0.00000E+00  9.000E+00
       2    -1     0     0   501     0  0.000000000E+00  0.000000000E+00 -3.261978191E+03  3.261978191E+03  0.000000000E+00  0.00000E+00  9.000E+00
      25     1     1     2     0     0 -1.013025721E+02  1.599503458E+01 -6.418519944E+01  1.739620421E+02  1.250000000E+02  0.00000E+00  9.000E+00
      25     1     1     2     0     0  2.044428094E+02  3.373317197E+01 -2.161879174E+02  3.244949997E+02  1.250000000E+02  0.00000E+00  9.000E+00
       2     1     1     2   502     0 -1.031402373E+02 -4.972820656E+01 -2.871422075E+03  2.873704149E+03  6.103515625E-05  0.00000E+00  9.000E+00
#rwgt            1           1   3.0276711434269146E-002           2      462150           0
</event>
<event>
      5   9999  3.79277E-02  3.06256E+01 -1.00000E+00  1.52420E-01
      21    -1     0     0   502   511  0.000000000E+00  0.000000000E+00  7.770331396E+02  7.770331396E+02  0.000000000E+00  0.00000E+00  9.000E+00
      21    -1     0     0   501   502  0.000000000E+00  0.000000000E+00 -1.015930769E+02  1.015930769E+02  0.000000000E+00  0.00000E+00  9.000E+00
      25     1     1     2     0     0  1.304924291E+02  1.844833962E+02  2.176460898E+02  3.377235821E+02  1.250000000E+02  0.00000E+00  9.000E+00
      25     1     1     2     0     0 -1.009326861E+02 -1.924926312E+02  3.621513585E+02  4.404763633E+02  1.250000000E+02  0.00000E+00  9.000E+00
      21     1     1     2   501   511 -2.955974298E+01  8.009235006E+00  9.564261427E+01  1.004262710E+02  1.348699152E-06  0.00000E+00  9.000E+00
#rwgt            1           1   3.6642004409126024E-002           2      462229           0
</event>
<event>
      5   9999  3.79277E-02  5.27954E+01 -1.00000E+00  1.37741E-01
      21    -1     0     0   512   501  0.000000000E+00  0.000000000E+00  1.420591350E+02  1.420591350E+02  0.000000000E+00  0.00000E+00  9.000E+00
      21    -1     0     0   501   502  0.000000000E+00  0.000000000E+00 -4.791490518E+02  4.791490518E+02  0.000000000E+00  0.00000E+00  9.000E+00
      25     1     1     2     0     0 -8.408163832E+01  8.192251704E+01  1.903076304E+01  1.725346071E+02  1.250000000E+02  0.00000E+00  9.000E+00
      25     1     1     2     0     0  1.098971495E+02 -3.586913560E+01 -3.573775444E+02  3.958632183E+02  1.250000000E+02  0.00000E+00  9.000E+00
      21     1     1     2   512   502 -2.581551118E+01 -4.605338144E+01  1.256864574E+00  5.281036137E+01  1.012621344E-06  0.00000E+00  9.000E+00
#rwgt            1           1   4.8871464749626878E-002           2      462565           0
</event>
<event>
      5   9999  3.79277E-02  2.10054E+01 -1.00000E+00  1.64631E-01
      21    -1     0     0   502   501  0.000000000E+00  0.000000000E+00  1.198160222E+02  1.198160222E+02  0.000000000E+00  0.00000E+00  9.000E+00
      21    -1     0     0   501   511  0.000000000E+00  0.000000000E+00 -7.815023699E+02  7.815023699E+02  0.000000000E+00  0.00000E+00  9.000E+00
      25     1     1     2     0     0  1.025317606E+02  1.714295338E+02 -5.247251743E+02  5.752063591E+02  1.250000000E+02  0.00000E+00  9.000E+00
      25     1     1     2     0     0 -1.027311353E+02 -1.924339605E+02 -7.756045487E+01  2.631067074E+02  1.250000000E+02  0.00000E+00  9.000E+00
      21     1     1     2   502   511  1.993746824E-01  2.100442669E+01 -5.940071851E+01  6.300532557E+01  0.000000000E+00  0.00000E+00  9.000E+00
#rwgt            1           1   3.1347741282966260E-002           2      462705           0
</event>
<event>
      5   9999  3.79277E-02  9.18241E+01 -1.00000E+00  1.25517E-01
      21    -1     0     0   502   501  0.000000000E+00  0.000000000E+00  5.466926457E+02  5.466926457E+02  0.000000000E+00  0.00000E+00  9.000E+00
      21    -1     0     0   512   502  0.000000000E+00  0.000000000E+00 -1.323985122E+02  1.323985122E+02  0.000000000E+00  0.00000E+00  9.000E+00
      25     1     1     2     0     0 -8.440921986E+01 -5.816250821E+01  2.477913524E+01  1.635444872E+02  1.250000000E+02  0.00000E+00  9.000E+00
      25     1     1     2     0     0  1.170722654E+02 -2.765582918E+01  3.865280285E+02  4.236740221E+02  1.250000000E+02  0.00000E+00  9.000E+00
      21     1     1     2   512   501 -3.266304550E+01  8.581833739E+01  2.986969749E+00  9.187264861E+01  1.681125733E-06  0.00000E+00  9.000E+00
#rwgt            1           1   3.5594559775741830E-002           2      462899           0
</event>
<event>
      5   9999  3.79277E-02  1.45414E+02 -1.00000E+00  1.16931E-01
      21    -1     0     0   511   501  0.000000000E+00  0.000000000E+00  6.501814356E+02  6.501814356E+02  0.000000000E+00  0.00000E+00  9.000E+00
      21    -1     0     0   501   502  0.000000000E+00  0.000000000E+00 -1.261850504E+02  1.261850504E+02  0.000000000E+00  0.00000E+00  9.000E+00
      25     1     1     2     0     0 -1.245547837E+02 -1.192834658E+02  1.445004366E+02  2.573865100E+02  1.250000000E+02  0.00000E+00  9.000E+00
      25     1     1     2     0     0 -2.044046932E+01  1.082529929E+02  7.742060415E+01  1.837266263E+02  1.250000000E+02  0.00000E+00  9.000E+00
      21     1     1     2   511   502  1.449952530E+02  1.103047284E+01  3.020753445E+02  3.352533497E+02  3.814697266E-06  0.00000E+00  9.000E+00
#rwgt            1           1   3.8769364315632070E-002           2      462994           0
</event>
<event>
      5   9999  3.79277E-02  1.42054E+02 -1.00000E+00  1.17338E-01
      21    -1     0     0   512   501  0.000000000E+00  0.000000000E+00  6.132350257E+01  6.132350257E+01  0.000000000E+00  0.00000E+00  9.000E+00
      21    -1     0     0   501   502  0.000000000E+00  0.000000000E+00 -1.349688519E+03  1.349688519E+03  0.000000000E+00  0.00000E+00  9.000E+00
      25     1     1     2     0     0  1.162233333E+02 -1.147083055E+02 -6.555458344E+02  6.870452675E+02  1.250000000E+02  0.00000E+00  9.000E+00
      25     1     1     2     0     0  2.431761723E+01  9.403135124E+01 -5.169702127E+02  5.406629656E+02  1.250000000E+02  0.00000E+00  9.000E+00
      21     1     1     2   512   502 -1.405409505E+02  2.067695425E+01 -1.158489694E+02  1.833037886E+02  3.814697266E-06  0.00000E+00  9.000E+00
#rwgt            1           1   4.0812385508302407E-002           2      463246           0
</event>
<event>
      5   9999  3.79277E-02  2.24703E+02 -1.00000E+00  1.09837E-01
      21    -1     0     0   502   501  0.000000000E+00  0.000000000E+00  7.055377189E+02  7.055377189E+02  0.000000000E+00  0.00000E+00  9.000E+00
      21    -1     0     0   501   511  0.000000000E+00  0.000000000E+00 -3.576669465E+02  3.576669465E+02  0.000000000E+00  0.00000E+00  9.000E+00
      25     1     1     2     0     0  6.318303365E+01 -8.978438480E+01 -3.248590748E+01  1.695100755E+02  1.250000000E+02  0.00000E+00  9.000E+00
      25     1     1     2     0     0 -2.617719698E+02  1.949211108E+02  5.219122043E+02  6.281211289E+02  1.250000000E+02  0.00000E+00  9.000E+00
      21     1     1     2   502   511  1.985889362E+02 -1.051367260E+02 -1.415555244E+02  2.655734610E+02  3.814697266E-06  0.00000E+00  9.000E+00
#rwgt            2          11   1.7750810910985106E-003           2      463324           0
</event>
<event>
      5   9999  3.79277E-02  5.33829E+01 -1.00000E+00  1.37472E-01
      21    -1     0     0   502   501  0.000000000E+00  0.000000000E+00  1.520338293E+03  1.520338293E+03  0.000000000E+00  0.00000E+00  9.000E+00
      21    -1     0     0   501   512  0.000000000E+00  0.000000000E+00 -4.413756869E+01  4.413756869E+01  0.000000000E+00  0.00000E+00  9.000E+00
      25     1     1     2     0     0  5.100860073E+01 -1.774033868E+02  9.480218527E+02  9.738810359E+02  1.250000000E+02  0.00000E+00  9.000E+00
      25     1     1     2     0     0  1.695321532E+00  1.689165914E+02  4.379231003E+02  4.857338065E+02  1.250000000E+02  0.00000E+00  9.000E+00
      21     1     1     2   502   512 -5.270392226E+01  8.486795347E+00  9.025577163E+01  1.048610196E+02  2.697398305E-06  0.00000E+00  9.000E+00
#rwgt            1           1   3.0880117957016614E-002           2      463509           0
</event>
<event>
      5   9999  3.79277E-02  2.35167E+01 -1.00000E+00  1.60767E-01
      21    -1     0     0   502   501  0.000000000E+00  0.000000000E+00  4.120653855E+03  4.120653855E+03  0.000000000E+00  0.00000E+00  9.000E+00
      21    -1     0     0   501   511  0.000000000E+00  0.000000000E+00 -1.600064307E+01  1.600064307E+01  0.000000000E+00  0.00000E+00  9.000E+00
      25     1     1     2     0     0  1.277500410E+02  4.007412193E+01  1.426853354E+03  1.438562303E+03  1.250000000E+02  0.00000E+00  9.000E+00
      25     1     1     2     0     0 -1.066204293E+02 -2.975050895E+01  2.666987536E+03  2.672208922E+03  1.250000000E+02  0.00000E+00  9.000E+00
      21     1     1     2   502   511 -2.112961165E+01 -1.032361298E+01  1.081232287E+01  2.588327257E+01  1.415531884E-06  0.00000E+00  9.000E+00
#rwgt            1           1   5.0426796520011228E-003           2      463618           0
</event>
<event>
      5   9999  3.79277E-02  9.41737E+00 -1.00000E+00  1.98820E-01
      21    -1     0     0   512   501  0.000000000E+00  0.000000000E+00  2.048576134E+03  2.048576134E+03  0.000000000E+00  0.00000E+00  9.000E+00
      21    -1     0     0   501   502  0.000000000E+00  0.000000000E+00 -2.408356586E+01  2.408356586E+01  0.000000000E+00  0.00000E+00  9.000E+00
      25     1     1     2     0     0  1.740990504E+02  3.964782814E+01  1.163840206E+03  1.184074092E+03  1.250000000E+02  0.00000E+00  9.000E+00
      25     1     1     2     0     0 -1.650108760E+02 -3.717963512E+01  7.990139183E+02  8.262319021E+02  1.250000000E+02  0.00000E+00  9.000E+00
      21     1     1     2   512   502 -9.088174459E+00 -2.468193021E+00  6.163844372E+01  6.235370587E+01  1.168007728E-06  0.00000E+00  9.000E+00
#rwgt            1           1  0.10911570136890919                2      463849           0
</event>
<event>
      5   9999 -3.79277E-02  5.27559E+01 -1.00000E+00  1.37759E-01
      21    -1     0     0   511   501  0.000000000E+00  0.000000000E+00  3.511288617E+01  3.511288617E+01  0.000000000E+00  0.00000E+00  9.000E+00
      21    -1     0     0   501   502  0.000000000E+00  0.000000000E+00 -3.300737523E+03  3.300737523E+03  0.000000000E+00  0.00000E+00  9.000E+00
      25     1     1     2     0     0 -2.779201909E+01 -1.144190361E+02 -1.712301746E+03  1.720891159E+03  1.250000000E+02  0.00000E+00  9.000E+00
      25     1     1     2     0     0  6.708468190E+00  1.627788650E+02 -1.548419104E+03  1.561975891E+03  1.250000000E+02  0.00000E+00  9.000E+00
      21     1     1     2   511   502  2.108355090E+01 -4.835982890E+01 -4.903786369E+00  5.298335862E+01  2.028310243E-06  0.00000E+00  9.000E+00
#rwgt            1           1  -2.9471058974129372E-002           2      464214           0
</event>
<event>
      5   9999  3.79277E-02  4.59637E+01 -1.00000E+00  1.41194E-01
      21    -1     0     0   512   501  0.000000000E+00  0.000000000E+00  4.814341840E+01  4.814341840E+01  0.000000000E+00  0.00000E+00  9.000E+00
      21    -1     0     0   501   502  0.000000000E+00  0.000000000E+00 -8.409369189E+02  8.409369189E+02  0.000000000E+00  0.00000E+00  9.000E+00
      25     1     1     2     0     0 -2.723954962E+01  5.079628036E+01 -5.437678761E+02  5.609195649E+02  1.250000000E+02  0.00000E+00  9.000E+00
      25     1     1     2     0     0  6.068831258E+01 -8.232159646E+01 -2.229907491E+02  2.753357781E+02  1.250000000E+02  0.00000E+00  9.000E+00
      21     1     1     2   512   502 -3.344876295E+01  3.152531609E+01 -2.603487538E+01  5.282499440E+01  3.371747881E-07  0.00000E+00  9.000E+00
#rwgt            1           1   5.8516809104911048E-002           2      464360           0
</event>
<event>
      5   9999  3.79277E-02  2.45871E+01 -1.00000E+00  1.59295E-01
      21    -1     0     0   511   501  0.000000000E+00  0.000000000E+00  4.956249618E+02  4.956249618E+02  0.000000000E+00  0.00000E+00  9.000E+00
      21    -1     0     0   501   502  0.000000000E+00  0.000000000E+00 -7.359654499E+01  7.359654499E+01  0.000000000E+00  0.00000E+00  9.000E+00
      25     1     1     2     0     0  2.176728559E+01 -9.292328585E+01  2.956074232E+02  3.348392157E+02  1.250000000E+02  0.00000E+00  9.000E+00
      25     1     1     2     0     0 -2.778624831E+00  1.085423692E+02  8.475867089E+01  1.860059111E+02  1.250000000E+02  0.00000E+00  9.000E+00
      21     1     1     2   511   502 -1.898866076E+01 -1.561908333E+01  4.166232275E+01  4.837637997E+01  4.768371582E-07  0.00000E+00  9.000E+00
#rwgt            1           1   4.1145757589247774E-002           2      464498           0
</event>
<event>
      5   9999  3.79277E-02  6.54542E+01 -1.00000E+00  1.32715E-01
      21    -1     0     0   512   501  0.000000000E+00  0.000000000E+00  1.089982492E+03  1.089982492E+03  0.000000000E+00  0.00000E+00  9.000E+00
      21    -1     0     0   501   502  0.000000000E+00  0.000000000E+00 -1.524093247E+02  1.524093247E+02  0.000000000E+00  0.00000E+00  9.000E+00
      25     1     1     2     0     0  1.754764153E+02  2.930303301E+02  3.520806588E+02  5.062060223E+02  1.250000000E+02  0.00000E+00  9.000E+00
      25     1     1     2     0     0 -2.233341766E+02 -2.483773425E+02  3.828248282E+02  5.232105769E+02  1.250000000E+02  0.00000E+00  9.000E+00
      21     1     1     2   512   502  4.785776121E+01 -4.465298768E+01  2.026676803E+02  2.129752174E+02  2.697398305E-06  0.00000E+00  9.000E+00
#rwgt            1           1   4.3649602735785165E-002           2      464643           0
</event>
<event>
      5   9999  3.79277E-02  7.70443E+00 -1.00000E+00  2.09831E-01
      21    -1     0     0   502   501  0.000000000E+00  0.000000000E+00  2.661483485E+01  2.661483485E+01  0.000000000E+00  0.00000E+00  9.000E+00
      21    -1     0     0   501   511  0.000000000E+00  0.000000000E+00 -9.211708709E+02  9.211708709E+02  0.000000000E+00  0.00000E+00  9.000E+00
      25     1     1     2     0     0  4.650754254E+01  1.505210181E+01 -4.218279186E+02  4.426661385E+02  1.250000000E+02  0.00000E+00  9.000E+00
      25     1     1     2     0     0 -4.719364391E+01 -7.378284079E+00 -2.614888553E+02  2.937398518E+02  1.250000000E+02  0.00000E+00  9.000E+00
      21     1     1     2   502   511  6.861013679E-01 -7.673817727E+00 -2.112392621E+02  2.113797154E+02  3.814697266E-06  0.00000E+00  9.000E+00
#rwgt            1           1   2.7000977448581227E-002           2      464749           0
</event>
<event>
      5   9999  3.79277E-02  3.20460E+01 -1.00000E+00  1.51076E-01
      21    -1     0     0   502   501  0.000000000E+00  0.000000000E+00  3.211483818E+01  3.211483818E+01  0.000000000E+00  0.00000E+00  9.000E+00
      21    -1     0     0   512   502  0.000000000E+00  0.000000000E+00 -1.641050041E+03  1.641050041E+03  0.000000000E+00  0.00000E+00  9.000E+00
      25     1     1     2     0     0 -1.630543291E+02 -7.897524823E+00 -5.175444715E+02  5.568899039E+02  1.250000000E+02  0.00000E+00  9.000E+00
      25     1     1     2     0     0  1.310839955E+02  5.696259819E+00 -6.831190717E+02  7.067475698E+02  1.250000000E+02  0.00000E+00  9.000E+00
      21     1     1     2   512   501  3.197033358E+01  2.201265004E+00 -4.082716601E+02  4.095274060E+02  5.394796609E-06  0.00000E+00  9.000E+00
#rwgt            1           1   3.3049139282415700E-002           2      464949           0
</event>
<event>
      5   9999  3.79277E-02  2.04877E+01 -1.00000E+00  1.65510E-01
      21    -1     0     0   502   501  0.000000000E+00  0.000000000E+00  3.364286612E+02  3.364286612E+02  0.000000000E+00  0.00000E+00  9.000E+00
      21    -1     0     0   501   511  0.000000000E+00  0.000000000E+00 -2.150735998E+02  2.150735998E+02  0.000000000E+00  0.00000E+00  9.000E+00
      25     1     1     2     0     0 -2.022134031E+02  8.843160376E+01 -3.845082759E+00  2.536733995E+02  1.250000000E+02  0.00000E+00  9.000E+00
      25     1     1     2     0     0  1.876153767E+02 -7.405654316E+01  1.371822026E+02  2.740946148E+02  1.250000000E+02  0.00000E+00  9.000E+00
      21     1     1     2   502   511  1.459802636E+01 -1.437506060E+01 -1.198205842E+01  2.373424667E+01  4.129530925E-07  0.00000E+00  9.000E+00
#rwgt            1           1   2.9799935478988314E-002           2      465224           0
</event>
<event>
      5   9999  3.79277E-02  5.62678E+01 -1.00000E+00  1.36211E-01
      21    -1     0     0   502   501  0.000000000E+00  0.000000000E+00  2.870998966E+03  2.870998966E+03  0.000000000E+00  0.00000E+00  9.000E+00
      -1    -1     0     0     0   502  0.000000000E+00  0.000000000E+00 -5.127206188E+01  5.127206188E+01  0.000000000E+00  0.00000E+00  9.000E+00
      25     1     1     2     0     0 -1.765980824E+01 -6.541999124E+01  2.443242182E+02  2.826852802E+02  1.250000000E+02  0.00000E+00  9.000E+00
      25     1     1     2     0     0  2.226959485E+01  9.341339346E+00  2.579991887E+03  2.583131110E+03  1.250000000E+02  0.00000E+00  9.000E+00
      -1     1     1     2     0   501 -4.609786612E+00  5.607865190E+01 -4.589200981E+00  5.645463752E+01  1.105501472E-06  0.00000E+00  9.000E+00
#rwgt            1           1   5.8032269385955931E-002           2      465541           0
</event>
<event>
      5   9999  3.79277E-02  1.72398E+01 -1.00000E+00  1.71873E-01
      21    -1     0     0   502   501  0.000000000E+00  0.000000000E+00  4.167074492E+01  4.167074492E+01  0.000000000E+00  0.00000E+00  9.000E+00
      21    -1     0     0   511   502  0.000000000E+00  0.000000000E+00 -1.273320920E+03  1.273320920E+03  0.000000000E+00  0.00000E+00  9.000E+00
      25     1     1     2     0     0  4.231775765E+01  2.416628683E+01 -9.976116095E+02  1.006592631E+03  1.250000000E+02  0.00000E+00  9.000E+00
      25     1     1     2     0     0 -5.880933509E+01 -2.918995179E+01 -9.942819661E+01  1.726891932E+02  1.250000000E+02  0.00000E+00  9.000E+00
      21     1     1     2   511   501  1.649157744E+01  5.023664954E+00 -1.346103689E+02  1.357098403E+02  2.697398305E-06  0.00000E+00  9.000E+00
#rwgt            1           1   4.4715920153217618E-002           2      465647           0
</event>
<event>
      5   9999  3.79277E-02  5.59284E+01 -1.00000E+00  1.36355E-01
      21    -1     0     0   512   501  0.000000000E+00  0.000000000E+00  2.157378690E+02  2.157378690E+02  0.000000000E+00  0.00000E+00  9.000E+00
      21    -1     0     0   501   502  0.000000000E+00  0.000000000E+00 -2.461529975E+02  2.461529975E+02  0.000000000E+00  0.00000E+00  9.000E+00
      25     1     1     2     0     0  5.014346336E+01  4.732949196E+00  1.009552015E+02  1.683856301E+02  1.250000000E+02  0.00000E+00  9.000E+00
      25     1     1     2     0     0 -6.859041156E+01 -5.753153836E+01 -1.671514856E+02  2.271104172E+02  1.250000000E+02  0.00000E+00  9.000E+00
      21     1     1     2   512   502  1.844694820E+01  5.279858916E+01  3.578115561E+01  6.639481916E+01  8.259061849E-07  0.00000E+00  9.000E+00
#rwgt            1           1   3.6358718729789165E-002           2      465894           0
</event>
<event>
      5   9999  3.79277E-02  4.21214E+01 -1.00000E+00  1.43462E-01
      21    -1     0     0   511   501  0.000000000E+00  0.000000000E+00  3.895188594E+02  3.895188594E+02  0.000000000E+00  0.00000E+00  9.000E+00
      21    -1     0     0   501   502  0.000000000E+00  0.000000000E+00 -1.885862066E+02  1.885862066E+02  0.000000000E+00  0.00000E+00  9.000E+00
      25     1     1     2     0     0  6.607620969E+01  4.756473015E+01 -1.199893964E+02  1.914443112E+02  1.250000000E+02  0.00000E+00  9.000E+00
      25     1     1     2     0     0 -1.080235559E+02 -5.139025891E+01  2.684291555E+02  3.193575721E+02  1.250000000E+02  0.00000E+00  9.000E+00
      21     1     1     2   511   502  4.194734623E+01  3.825528766E+00  5.249289360E+01  6.730318272E+01  6.743495762E-07  0.00000E+00  9.000E+00
#rwgt            1           1   4.4208717110877364E-002           2      465957           0
</event>
<event>
      5   9999  3.79277E-02  5.01946E+01 -1.00000E+00  1.38979E-01
      21    -1     0     0   502   512  0.000000000E+00  0.000000000E+00  1.362377833E+02  1.362377833E+02  0.000000000E+00  0.00000E+00  9.000E+00
      21    -1     0     0   501   502  0.000000000E+00  0.000000000E+00 -3.592371099E+02  3.592371099E+02  0.000000000E+00  0.00000E+00  9.000E+00
      25     1     1     2     0     0 -2.802884062E+01 -1.096270651E+02 -5.518482680E+01  1.774093414E+02  1.250000000E+02  0.00000E+00  9.000E+00
      25     1     1     2     0     0  1.679941602E+01  1.585494194E+02 -1.745528237E+02  2.674206930E+02  1.250000000E+02  0.00000E+00  9.000E+00
      21     1     1     2   501   512  1.122942460E+01 -4.892235422E+01  6.738323884E+00  5.064485885E+01  1.171045465E-06  0.00000E+00  9.000E+00
#rwgt            1           1   4.3141207255182411E-002           2      466025           0
</event>
<event>
      5   9999  3.79277E-02  1.23243E+01 -1.00000E+00  1.85819E-01
      21    -1     0     0   511   501  0.000000000E+00  0.000000000E+00  2.048771325E+03  2.048771325E+03  0.000000000E+00  0.00000E+00  9.000E+00
      21    -1     0     0   501   502  0.000000000E+00  0.000000000E+00 -3.250684960E+01  3.250684960E+01  0.000000000E+00  0.00000E+00  9.000E+00
      25     1     1     2     0     0 -8.000531869E+01 -2.054753464E+02  9.741623575E+02  1.006597371E+03  1.250000000E+02  0.00000E+00  9.000E+00
      25     1     1     2     0     0  7.918951318E+01  1.931781088E+02  9.089320021E+02  9.409416269E+02  1.250000000E+02  0.00000E+00  9.000E+00
      21     1     1     2   511   502  8.158055079E-01  1.229723767E+01  1.331701155E+02  1.337391762E+02  0.000000000E+00  0.00000E+00  9.000E+00
#rwgt            1           1   2.9864994774481381E-002           2      466203           0
</event>
<event>
      5   9999  3.79277E-02  1.11751E+02 -1.00000E+00  1.21696E-01
      21    -1     0     0   502   501  0.000000000E+00  0.000000000E+00  6.327609558E+02  6.327609558E+02  0.000000000E+00  0.00000E+00  9.000E+00
      21    -1     0     0   512   502  0.000000000E+00  0.000000000E+00 -2.942296787E+02  2.942296787E+02  0.000000000E+00  0.00000E+00  9.000E+00
      25     1     1     2     0     0  4.973949659E+01  8.027922891E+01  3.008064830E+02  3.391582408E+02  1.250000000E+02  0.00000E+00  9.000E+00
      25     1     1     2     0     0 -3.422622567E+00 -1.819796835E+02  2.587550180E+02  3.401580205E+02  1.250000000E+02  0.00000E+00  9.000E+00
      21     1     1     2   512   501 -4.631687402E+01  1.017004546E+02 -2.210302238E+02  2.476743732E+02  0.000000000E+00  0.00000E+00  9.000E+00
#rwgt            1           1   3.2191248083552254E-002           2      466394           0
</event>
<event>
      5   9999  3.79277E-02  2.83500E+01 -1.00000E+00  1.54766E-01
      21    -1     0     0   511   501  0.000000000E+00  0.000000000E+00  7.484304559E+01  7.484304559E+01  0.000000000E+00  0.00000E+00  9.000E+00
      21    -1     0     0   501   502  0.000000000E+00  0.000000000E+00 -7.628813078E+02  7.628813078E+02  0.000000000E+00  0.00000E+00  9.000E+00
      25     1     1     2     0     0  4.322614580E+01 -4.097819998E+00 -6.652039139E+02  6.782378188E+02  1.250000000E+02  0.00000E+00  9.000E+00
      25     1     1     2     0     0 -2.481555243E+01 -1.746074609E+01 -2.506327040E+01  1.310490626E+02  1.250000000E+02  0.00000E+00  9.000E+00
      21     1     1     2   511   502 -1.841059337E+01  2.155856609E+01  2.228922020E+00  2.843747199E+01  3.613339559E-07  0.00000E+00  9.000E+00
#rwgt            2          11   1.4493380023409561E-003           2      466606           0
</event>
<event>
      5   9999  3.79277E-02  4.73353E+01 -1.00000E+00  1.40446E-01
       3    -1     0     0   502     0  0.000000000E+00  0.000000000E+00  3.678953434E+03  3.678953434E+03  0.000000000E+00  0.00000E+00  9.000E+00
      21    -1     0     0   501   502  0.000000000E+00  0.000000000E+00 -1.208197034E+02  1.208197034E+02  0.000000000E+00  0.00000E+00  9.000E+00
      25     1     1     2     0     0  1.016860963E+02  1.899802118E+02  1.091697015E+02  2.719844973E+02  1.250000000E+02  0.00000E+00  9.000E+00
      25     1     1     2     0     0 -1.131436562E+02 -1.440524542E+02  2.741099500E+02  3.525817085E+02  1.250000000E+02  0.00000E+00  9.000E+00
       3     1     1     2   501     0  1.145755990E+01 -4.592775759E+01  3.174854079E+03  3.175206931E+03  0.000000000E+00  0.00000E+00  9.000E+00
#rwgt            1           1   3.5346815041310119E-002           2      466626           0
</event>
<event>
      5   9999  3.79277E-02  1.16872E+01 -1.00000E+00  1.88242E-01
      21    -1     0     0   502   511  0.000000000E+00  0.000000000E+00  6.010633324E+02  6.010633324E+02  0.000000000E+00  0.00000E+00  9.000E+00
      21    -1     0     0   501   502  0.000000000E+00  0.000000000E+00 -4.715908055E+01  4.715908055E+01  0.000000000E+00  0.00000E+00  9.000E+00
      25     1     1     2     0     0 -2.907446314E-01 -4.108510876E+01  8.075605599E+01  1.543846212E+02  1.250000000E+02  0.00000E+00  9.000E+00
      25     1     1     2     0     0  1.550631988E+00  2.946598190E+01  4.490305802E+02  4.670375900E+02  1.250000000E+02  0.00000E+00  9.000E+00
      21     1     1     2   501   511 -1.259887357E+00  1.161912687E+01  2.411761573E+01  2.680020175E+01  0.000000000E+00  0.00000E+00  9.000E+00
#rwgt            1           1   2.8158555937860642E-002           2      466740           0
</event>
<event>
      5   9999  3.79277E-02  7.63354E+01 -1.00000E+00  1.29343E-01
      21    -1     0     0   502   501  0.000000000E+00  0.000000000E+00  4.318939997E+02  4.318939997E+02  0.000000000E+00  0.00000E+00  9.000E+00
      21    -1     0     0   501   512  0.000000000E+00  0.000000000E+00 -6.515699640E+02  6.515699640E+02  0.000000000E+00  0.00000E+00  9.000E+00
      25     1     1     2     0     0 -1.279077703E+02  3.522485891E+02  5.341650781E+01  3.986449417E+02  1.250000000E+02  0.00000E+00  9.000E+00
      25     1     1     2     0     0  1.901203364E+02 -3.080141833E+02  1.851290194E+01  3.833878023E+02  1.250000000E+02  0.00000E+00  9.000E+00
      21     1     1     2   502   512 -6.221256606E+01 -4.423440587E+01 -2.916053740E+02  3.014312197E+02  5.394796609E-06  0.00000E+00  9.000E+00
#rwgt            1           1   4.6270041246982634E-002           2      466989           0
</event>
<event>
      5   9999  3.79277E-02  3.94184E+01 -1.00000E+00  1.45236E-01
      21    -1     0     0   502   501  0.000000000E+00  0.000000000E+00  5.335369173E+01  5.335369173E+01  0.000000000E+00  0.00000E+00  9.000E+00
      21    -1     0     0   501   511  0.000000000E+00  0.000000000E+00 -9.289247652E+02  9.289247652E+02  0.000000000E+00  0.00000E+00  9.000E+00
      25     1     1     2     0     0 -2.587594601E+01  1.452217299E+02 -5.441155551E+02  5.774475324E+02  1.250000000E+02  0.00000E+00  9.000E+00
      25     1     1     2     0     0  1.281281195E+01 -1.080308461E+02 -1.652850404E+02  2.340490898E+02  1.250000000E+02  0.00000E+00  9.000E+00
      21     1     1     2   502   511  1.306313406E+01 -3.719088377E+01 -1.661704779E+02  1.707818346E+02  3.303624740E-06  0.00000E+00  9.000E+00
#rwgt            1           1   4.3225443366739218E-002           2      467124           0
</event>
<event>
      5   9999  3.79277E-02  2.35339E+01 -1.00000E+00  1.60742E-01
      21    -1     0     0   502   501  0.000000000E+00  0.000000000E+00  1.279845178E+03  1.279845178E+03  0.000000000E+00  0.00000E+00  9.000E+00
      21    -1     0     0   501   512  0.000000000E+00  0.000000000E+00 -2.776627306E+01  2.776627306E+01  0.000000000E+00  0.00000E+00  9.000E+00
      25     1     1     2     0     0  1.040282587E+02 -2.722747840E+01  3.771463492E+02  4.116158196E+02  1.250000000E+02  0.00000E+00  9.000E+00
      25     1     1     2     0     0 -8.080658978E+01  2.340675601E+01  8.428229084E+02  8.561851646E+02  1.250000000E+02  0.00000E+00  9.000E+00
      21     1     1     2   502   512 -2.322166890E+01  3.820722390E+00  3.210964753E+01  3.981046710E+01  6.743495762E-07  0.00000E+00  9.000E+00
#rwgt            1           1   3.5164009731706546E-002           2      467310           0
</event>
<event>
      5   9999  3.79277E-02  1.01673E+02 -1.00000E+00  1.23505E-01
      21    -1     0     0   502   511  0.000000000E+00  0.000000000E+00  8.588178063E+02  8.588178063E+02  0.000000000E+00  0.00000E+00  9.000E+00
      21    -1     0     0   501   502  0.000000000E+00  0.000000000E+00 -1.935045344E+02  1.935045344E+02  0.000000000E+00  0.00000E+00  9.000E+00
      25     1     1     2     0     0 -1.176042254E+02 -9.866790795E+01 -1.152996596E+02  2.290963147E+02  1.250000000E+02  0.00000E+00  9.000E+00
      25     1     1     2     0     0  2.646473192E+01  5.360054997E+01  2.801771367E+02  3.125661993E+02  1.250000000E+02  0.00000E+00  9.000E+00
      21     1     1     2   501   511  9.113949349E+01  4.506735798E+01  5.004357947E+02  5.106598268E+02  7.629394531E-06  0.00000E+00  9.000E+00
#rwgt            1           1   4.8910278136224422E-002           2      467561           0
</event>
<event>
      5   9999  3.79277E-02  4.41228E+01 -1.00000E+00  1.42247E-01
      21    -1     0     0   502   501  0.000000000E+00  0.000000000E+00  1.250334501E+02  1.250334501E+02  0.000000000E+00  0.00000E+00  9.000E+00
      21    -1     0     0   501   512  0.000000000E+00  0.000000000E+00 -4.870295205E+02  4.870295205E+02  0.000000000E+00  0.00000E+00  9.000E+00
      25     1     1     2     0     0  6.022719256E+01 -1.522231877E+02 -5.005020067E+01  2.119651768E+02  1.250000000E+02  0.00000E+00  9.000E+00
      25     1     1     2     0     0 -1.688162560E+01  1.604686508E+02 -2.338249208E+02  3.103776261E+02  1.250000000E+02  0.00000E+00  9.000E+00
      21     1     1     2   502   512 -4.334556696E+01 -8.245463146E+00 -7.812094892E+01  8.972016773E+01  9.536743164E-07  0.00000E+00  9.000E+00
#rwgt            1           1   3.9272930241868551E-002           2      467636           0
</event>
<event>
      5   9999  3.79277E-02  3.54238E+01 -1.00000E+00  1.48190E-01
      21    -1     0     0   502   501  0.000000000E+00  0.000000000E+00  2.986630193E+02  2.986630193E+02  0.000000000E+00  0.00000E+00  9.000E+00
      -5    -1     0     0     0   502  0.000000000E+00  0.000000000E+00 -2.448771616E+02  2.448771616E+02  0.000000000E+00  0.00000E+00  9.000E+00
      25     1     1     2     0     0 -1.249014003E+02 -1.213664779E+02  6.734025109E+01  2.246995576E+02  1.250000000E+02  0.00000E+00  9.000E+00
      25     1     1     2     0     0  1.583157159E+02  1.096051469E+02  5.993051857E+01  2.372631897E+02  1.250000000E+02  0.00000E+00  9.000E+00
      -5     1     1     2     0   501 -3.341431562E+01  1.176133099E+01 -7.348491198E+01  8.157743366E+01  9.536743164E-07  0.00000E+00  9.000E+00
#rwgt            1           1   1.7353025054002595E-002           2      467724           0
</event>
<event>
      5   9999  3.79277E-02  9.83572E+01 -1.00000E+00  1.24152E-01
      21    -1     0     0   511   501  0.000000000E+00  0.000000000E+00  2.152852544E+02  2.152852544E+02  0.000000000E+00  0.00000E+00  9.000E+00
      21    -1     0     0   501   502  0.000000000E+00  0.000000000E+00 -4.861859929E+02  4.861859929E+02  0.000000000E+00  0.00000E+00  9.000E+00
      25     1     1     2     0     0 -1.799358319E+02 -8.097819619E+01 -6.094394310E+01  2.413991219E+02  1.250000000E+02  0.00000E+00  9.000E+00
      25     1     1     2     0     0  1.577148619E+02 -1.483603150E+01 -2.757800010E+02  3.417216622E+02  1.250000000E+02  0.00000E+00  9.000E+00
      21     1     1     2   511   502  2.222097001E+01  9.581422769E+01  6.582320557E+01  1.183504631E+02  9.536743164E-07  0.00000E+00  9.000E+00
#rwgt            1           1   3.3375098040758673E-002           2      467821           0
</event>
<event>
      5   9999  3.79277E-02  1.15534E+02 -1.00000E+00  1.21072E-01
      21    -1     0     0   502   501  0.000000000E+00  0.000000000E+00  2.531341685E+02  2.531341685E+02  0.000000000E+00  0.00000E+00  9.000E+00
      21    -1     0     0   501   512  0.000000000E+00  0.000000000E+00 -3.154557928E+02  3.154557928E+02  0.000000000E+00  0.00000E+00  9.000E+00
      25     1     1     2     0     0  6.496608491E+00  1.213419386E+02  1.486641438E+02  2.291115441E+02  1.250000000E+02  0.00000E+00  9.000E+00
      25     1     1     2     0     0 -7.608609846E+00 -5.812939461E+00 -1.808943636E+02  2.200896454E+02  1.250000000E+02  0.00000E+00  9.000E+00
      21     1     1     2   502   512  1.112001355E+00 -1.155289992E+02 -3.009140452E+01  1.193887718E+02  2.023048729E-06  0.00000E+00  9.000E+00
#rwgt            1           1   4.3356312334496216E-002           2      467976           0
</event>
<event>
      5   9999  3.79277E-02  5.86521E+01 -1.00000E+00  1.35233E-01
      21    -1     0     0   502   501  0.000000000E+00  0.000000000E+00  1.599312672E+02  1.599312672E+02  0.000000000E+00  0.00000E+00  9.000E+00
       1    -1     0     0   501     0  0.000000000E+00  0.000000000E+00 -1.837785073E+03  1.837785073E+03  0.000000000E+00  0.00000E+00  9.000E+00
      25     1     1     2     0     0  2.604024901E+01 -1.294037647E+02  7.558104333E+01  1.968779393E+02  1.250000000E+02  0.00000E+00  9.000E+00
      25     1     1     2     0     0 -4.383940265E-01  7.663433795E+01 -2.090639776E+02  2.553541867E+02  1.250000000E+02  0.00000E+00  9.000E+00
       1     1     1     2   502     0 -2.560185498E+01  5.276942672E+01 -1.544370871E+03  1.545484214E+03  2.157918644E-05  0.00000E+00  9.000E+00
#rwgt            1           1   2.7002216942921535E-002           2      468039           0
</event>
<event>
      5   9999  3.79277E-02  5.47249E+01 -1.00000E+00  1.36874E-01
      21    -1     0     0   502   501  0.000000000E+00  0.000000000E+00  1.102373856E+03  1.102373856E+03  0.000000000E+00  0.00000E+00  9.000E+00
      21    -1     0     0   511   502  0.000000000E+00  0.000000000E+00 -1.456760426E+02  1.456760426E+02  0.000000000E+00  0.00000E+00  9.000E+00
      25     1     1     2     0     0 -1.421482062E+02  5.497594047E+01  4.787792067E+02  5.177673178E+02  1.250000000E+02  0.00000E+00  9.000E+00
      25     1     1     2     0     0  1.075336341E+02 -1.258913712E+01  5.861346506E+02  6.090162539E+02  1.250000000E+02  0.00000E+00  9.000E+00
      21     1     1     2   511   501  3.461457211E+01 -4.238680336E+01 -1.082160444E+02  1.212663266E+02  3.015782986E-06  0.00000E+00  9.000E+00
#rwgt            1           1   6.3688861129177599E-002           2      468267           0
</event>
<event>
      5   9999  3.79277E-02  3.23924E+01 -1.00000E+00  1.50761E-01
       2    -1     0     0   502     0  0.000000000E+00  0.000000000E+00  5.460118546E+02  5.460118546E+02  0.000000000E+00  0.00000E+00  9.000E+00
      21    -1     0     0   501   502  0.000000000E+00  0.000000000E+00 -3.506736710E+02  3.506736710E+02  0.000000000E+00  0.00000E+00  9.000E+00
      25     1     1     2     0     0 -4.474400048E+01  1.726844255E+02 -1.893058392E+02  2.885890454E+02  1.250000000E+02  0.00000E+00  9.000E+00
      25     1     1     2     0     0  1.501364062E+01 -1.598247846E+02 -1.790857702E+01  2.042427191E+02  1.250000000E+02  0.00000E+00  9.000E+00
       2     1     1     2   501     0  2.973035986E+01 -1.285964089E+01  4.025525998E+02  4.038537610E+02  0.000000000E+00  0.00000E+00  9.000E+00
#rwgt            1           1   1.8739066809698252E-002           2      468349           0
</event>
<event>
      5   9999 -3.79277E-02  6.01536E+01 -1.00000E+00  1.34644E-01
      21    -1     0     0   502   501  0.000000000E+00  0.000000000E+00  1.410407351E+03  1.410407351E+03  0.000000000E+00  0.00000E+00  9.000E+00
       2    -1     0     0   501     0  0.000000000E+00  0.000000000E+00 -4.845445256E+02  4.845445256E+02  0.000000000E+00  0.00000E+00  9.000E+00
      25     1     1     2     0     0  1.084972295E+02 -2.977499335E+01  1.580102161E+02  2.307605413E+02  1.250000000E+02  0.00000E+00  9.000E+00
      25     1     1     2     0     0 -1.517081242E+02 -1.207324158E+01  1.205979407E+03  1.221954356E+03  1.250000000E+02  0.00000E+00  9.000E+00
       2     1     1     2   502     0  4.321089475E+01  4.184823493E+01 -4.381267970E+02  4.422369800E+02  1.078959322E-05  0.00000E+00  9.000E+00
#rwgt            1           1 -0.41963682537104818                2      468553           0
</event>
<event>
      5   9999  3.79277E-02  1.91319E+01 -1.00000E+00  1.67975E-01
      21    -1     0     0   502   501  0.000000000E+00  0.000000000E+00  5.371049556E+02  5.371049556E+02  0.000000000E+00  0.00000E+00  9.000E+00
      21    -1     0     0   501   511  0.000000000E+00  0.000000000E+00 -8.512915873E+01  8.512915873E+01  0.000000000E+00  0.00000E+00  9.000E+00
      25     1     1     2     0     0 -1.458995886E+02  5.158881503E+01  1.741333057E+02  2.643775784E+02  1.250000000E+02  0.00000E+00  9.000E+00
      25     1     1     2     0     0  1.413403580E+02 -7.016954946E+01  2.708878986E+02  3.374998016E+02  1.250000000E+02  0.00000E+00  9.000E+00
      21     1     1     2   502   511  4.559230596E+00  1.858073443E+01  6.954592520E+00  2.035673433E+01  3.153981341E-07  0.00000E+00  9.000E+00
#rwgt            1           1   3.6768082874247848E-002           2      468648           0
</event>
<event>
      5   9999  3.79277E-02  3.21860E+01 -1.00000E+00  1.50948E-01
      21    -1     0     0   502   512  0.000000000E+00  0.000000000E+00  1.022841848E+03  1.022841848E+03  0.000000000E+00  0.00000E+00  9.000E+00
      21    -1     0     0   501   502  0.000000000E+00  0.000000000E+00 -7.732906084E+01  7.732906084E+01  0.000000000E+00  0.00000E+00  9.000E+00
      25     1     1     2     0     0  1.962974695E+02  1.255507449E+02  5.453228552E+02  6.060509075E+02  1.250000000E+02  0.00000E+00  9.000E+00
      25     1     1     2     0     0 -1.727024069E+02 -1.036598942E+02  2.667986052E+02  3.569005334E+02  1.250000000E+02  0.00000E+00  9.000E+00
      21     1     1     2   501   512 -2.359506264E+01 -2.189085068E+01  1.333913266E+02  1.372194677E+02  2.697398305E-06  0.00000E+00  9.000E+00
#rwgt            1           1   1.7658076537404067E-002           2      468949           0
</event>
<event>
      5   9999  3.79277E-02  2.70338E+02 -1.00000E+00  1.07082E-01
       1    -1     0     0   502     0  0.000000000E+00  0.000000000E+00  5.349164573E+02  5.349164573E+02  0.000000000E+00  0.00000E+00  9.000E+00
      21    -1     0     0   501   502  0.000000000E+00  0.000000000E+00 -8.945518218E+02  8.945518218E+02  0.000000000E+00  0.00000E+00  9.000E+00
      25     1     1     2     0     0 -1.217139454E+02 -1.613349078E+02 -5.237923788E+02  5.751753586E+02  1.250000000E+02  0.00000E+00  9.000E+00
      25     1     1     2     0     0 -1.442415196E+02  1.128543989E+02 -2.659637270E+02  3.462707544E+02  1.250000000E+02  0.00000E+00  9.000E+00
       1     1     1     2   501     0  2.659554650E+02  4.848050897E+01  4.301207413E+02  5.080221661E+02  1.206313194E-05  0.00000E+00  9.000E+00
#rwgt            2          17   7.4953161617820167E-004           2      469336           0
</event>
<event>
      5   9999  3.79277E-02  3.62080E+01 -1.00000E+00  1.47575E-01
      21    -1     0     0   502   501  0.000000000E+00  0.000000000E+00  2.231946711E+02  2.231946711E+02  0.000000000E+00  0.00000E+00  9.000E+00
      21    -1     0     0   501   511  0.000000000E+00  0.000000000E+00 -6.498107259E+02  6.498107259E+02  0.000000000E+00  0.00000E+00  9.000E+00
      25     1     1     2     0     0  6.522125065E+01  3.197869971E+02 -2.032855145E+02  4.043111864E+02  1.250000000E+02  0.00000E+00  9.000E+00
      25     1     1     2     0     0 -9.786751673E+01 -3.354472118E+02 -1.807287485E+02  4.127841607E+02  1.250000000E+02  0.00000E+00  9.000E+00
      21     1     1     2   502   511  3.264626608E+01  1.566021477E+01 -4.260179183E+01  5.591004993E+01  6.743495762E-07  0.00000E+00  9.000E+00
#rwgt            1           1  0.19508122166114381                2      469445           0
</event>
<event>
      5   9999  3.79277E-02  3.66220E+01 -1.00000E+00  1.47257E-01
      21    -1     0     0   502   512  0.000000000E+00  0.000000000E+00  1.090473214E+02  1.090473214E+02  0.000000000E+00  0.00000E+00  9.000E+00
      21    -1     0     0   501   502  0.000000000E+00  0.000000000E+00 -1.018413150E+03  1.018413150E+03  0.000000000E+00  0.00000E+00  9.000E+00
      25     1     1     2     0     0  5.892936986E+01 -4.113083967E+01 -6.815032167E+02  6.965888679E+02  1.250000000E+02  0.00000E+00  9.000E+00
      25     1     1     2     0     0 -9.167945687E+01  2.474181757E+01 -3.063684918E+02  3.442440023E+02  1.250000000E+02  0.00000E+00  9.000E+00
      21     1     1     2   501   512  3.275008700E+01  1.638902210E+01  7.850587943E+01  8.662760154E+01  9.536743164E-07  0.00000E+00  9.000E+00
#rwgt            1           1   4.4803815264433534E-002           2      469565           0
</event>
<event>
      5   9999  3.79277E-02  2.19663E+02 -1.00000E+00  1.10185E-01
      21    -1     0     0   502   511  0.000000000E+00  0.000000000E+00  2.489461464E+03  2.489461464E+03  0.000000000E+00  0.00000E+00  9.000E+00
      21    -1     0     0   501   502  0.000000000E+00  0.000000000E+00 -1.737869332E+02  1.737869332E+02  0.000000000E+00  0.00000E+00  9.000E+00
      25     1     1     2     0     0 -1.807699513E+02 -3.067178206E+02  2.926682613E+02  4.775283320E+02  1.250000000E+02  0.00000E+00  9.000E+00
      25     1     1     2     0     0  3.919903600E+02  3.670326852E+02  1.025580646E+03  1.164392586E+03  1.250000000E+02  0.00000E+00  9.000E+00
      21     1     1     2   501   511 -2.112204087E+02 -6.031486462E+01  9.974256242E+02  1.021327479E+03  1.078959322E-05  0.00000E+00  9.000E+00
#rwgt            2          11   6.1821549531180153E-004           2      470076           0
</event>
<event>
      5   9999  3.79277E-02  1.12623E+02 -1.00000E+00  1.21550E-01
      21    -1     0     0   502   501  0.000000000E+00  0.000000000E+00  2.186211553E+02  2.186211553E+02  0.000000000E+00  0.00000E+00  9.000E+00
      21    -1     0     0   501   512  0.000000000E+00  0.000000000E+00 -8.275715998E+02  8.275715998E+02  0.000000000E+00  0.00000E+00  9.000E+00
      25     1     1     2     0     0  2.871646040E+02  8.311948826E+01 -5.718499789E+02  6.572744918E+02  1.250000000E+02  0.00000E+00  9.000E+00
      25     1     1     2     0     0 -1.745988467E+02 -7.953149191E+01  6.379818345E+01  2.377082743E+02  1.250000000E+02  0.00000E+00  9.000E+00
      21     1     1     2   502   512 -1.125657573E+02 -3.587996348E+00 -1.008986490E+02  1.512099891E+02  2.697398305E-06  0.00000E+00  9.000E+00
#rwgt            1           1   3.8181019544302405E-002           2      470186           0
</event>
<event>
      5   9999  3.79277E-02  1.04019E+02 -1.00000E+00  1.23063E-01
      21    -1     0     0   502   511  0.000000000E+00  0.000000000E+00  1.762287835E+02  1.762287835E+02  0.000000000E+00  0.00000E+00  9.000E+00
      21    -1     0     0   501   502  0.000000000E+00  0.000000000E+00 -5.164517501E+02  5.164517501E+02  0.000000000E+00  0.00000E+00  9.000E+00
      25     1     1     2     0     0  5.087201627E+01  1.054114110E+02 -3.882927847E+02  4.243769719E+02  1.250000000E+02  0.00000E+00  9.000E+00
      25     1     1     2     0     0  4.867583995E+01 -7.524136006E+01  2.141967321E-01  1.538039191E+02  1.250000000E+02  0.00000E+00  9.000E+00
      21     1     1     2   501   511 -9.954785622E+01 -3.017005090E+01  4.785562147E+01  1.144996426E+02  2.336015456E-06  0.00000E+00  9.000E+00
#rwgt            1           1   1.2940116796709714E-002           2      470256           0
</event>
<event>
      5   9999  3.79277E-02  5.27670E+01 -1.00000E+00  1.37754E-01
      21    -1     0     0   512   501  0.000000000E+00  0.000000000E+00  4.475428531E+02  4.475428531E+02  0.000000000E+00  0.00000E+00  9.000E+00
      21    -1     0     0   501   502  0.000000000E+00  0.000000000E+00 -2.229194908E+02  2.229194908E+02  0.000000000E+00  0.00000E+00  9.000E+00
      25     1     1     2     0     0  2.748227871E+01 -8.058323164E+00  3.441181556E+02  3.672363234E+02  1.250000000E+02  0.00000E+00  9.000E+00
      25     1     1     2     0     0 -4.213382598E+01  5.875037676E+01 -1.748371150E+02  2.267595265E+02  1.250000000E+02  0.00000E+00  9.000E+00
      21     1     1     2   512   502  1.465154727E+01 -5.069205359E+01  5.534232170E+01  7.646649401E+01  1.348699152E-06  0.00000E+00  9.000E+00
#rwgt            1           1   3.1934359049185679E-002           2      470304           0
</event>
<event>
      5   9999  3.79277E-02  3.08905E+01 -1.00000E+00  1.52163E-01
      21    -1     0     0   502   501  0.000000000E+00  0.000000000E+00  1.494613983E+02  1.494613983E+02  0.000000000E+00  0.00000E+00  9.000E+00
      21    -1     0     0   511   502  0.000000000E+00  0.000000000E+00 -1.047230891E+03  1.047230891E+03  0.000000000E+00  0.00000E+00  9.000E+00
      25     1     1     2     0     0 -1.760568900E+00  1.571974993E+02 -9.317940839E+01  2.214081198E+02  1.250000000E+02  0.00000E+00  9.000E+00
      25     1     1     2     0     0  3.265067539E+01 -1.570325040E+02 -3.652957549E+01  2.066027198E+02  1.250000000E+02  0.00000E+00  9.000E+00
      21     1     1     2   511   501 -3.089010649E+01 -1.649952529E-01 -7.680605083E+02  7.686814492E+02  0.000000000E+00  0.00000E+00  9.000E+00
#rwgt            1           1   3.2519122227475362E-002           2      470439           0
</event>
<event>
      5   9999  3.79277E-02  5.17297E+01 -1.00000E+00  1.38238E-01
      21    -1     0     0   502   501  0.000000000E+00  0.000000000E+00  6.128544636E+02  6.128544636E+02  0.000000000E+00  0.00000E+00  9.000E+00
      21    -1     0     0   512   502  0.000000000E+00  0.000000000E+00 -1.742995074E+02  1.742995074E+02  0.000000000E+00  0.00000E+00  9.000E+00
      25     1     1     2     0     0  8.662844136E+01 -2.612279848E+02  1.963229087E+02  3.604333938E+02  1.250000000E+02  0.00000E+00  9.000E+00
      25     1     1     2     0     0 -8.479844510E+01  2.095306841E+02  2.651274959E+02  3.701506085E+02  1.250000000E+02  0.00000E+00  9.000E+00
      21     1     1     2   512   501 -1.829996255E+00  5.169730076E+01 -2.289544851E+01  5.656996866E+01  1.390207266E-06  0.00000E+00  9.000E+00
#rwgt            1           1   3.7316671629497825E-002           2      470571           0
</event>
<event>
      5   9999  3.79277E-02  3.93765E+01 -1.00000E+00  1.45265E-01
      -4    -1     0     0     0   501  0.000000000E+00  0.000000000E+00  5.227023218E+02  5.227023218E+02  0.000000000E+00  0.00000E+00  9.000E+00
      21    -1     0     0   501   502  0.000000000E+00  0.000000000E+00 -1.228300672E+02  1.228300672E+02  0.000000000E+00  0.00000E+00  9.000E+00
      25     1     1     2     0     0  1.666973548E+02  5.962223133E+01  1.390353597E+02  2.574852419E+02  1.250000000E+02  0.00000E+00  9.000E+00
      25     1     1     2     0     0 -1.713632545E+02 -2.052318666E+01  1.259666226E+02  2.475462708E+02  1.250000000E+02  0.00000E+00  9.000E+00
      -4     1     1     2     0   502  4.665899671E+00 -3.909904467E+01  1.348702723E+02  1.405008764E+02  1.907348633E-06  0.00000E+00  9.000E+00
#rwgt            1           1   3.8390913689961947E-002           2      470806           0
</event>
<event>
      5   9999  3.79277E-02  3.06761E+01 -1.00000E+00  1.52371E-01
      21    -1     0     0   511   501  0.000000000E+00  0.000000000E+00  4.446370886E+01  4.446370886E+01  0.000000000E+00  0.00000E+00  9.000E+00
      21    -1     0     0   501   502  0.000000000E+00  0.000000000E+00 -1.641814656E+03  1.641814656E+03  0.000000000E+00  0.00000E+00  9.000E+00
      25     1     1     2     0     0 -1.497760615E+02  3.806846038E+01 -4.609739115E+02  5.020000233E+02  1.250000000E+02  0.00000E+00  9.000E+00
      25     1     1     2     0     0  1.795877119E+02 -3.083755152E+01 -1.131912028E+03  1.153279038E+03  1.250000000E+02  0.00000E+00  9.000E+00
      21     1     1     2   511   502 -2.981165047E+01 -7.230908864E+00 -4.465008209E+00  3.099930394E+01  1.327458468E-06  0.00000E+00  9.000E+00
#rwgt            1           1  0.12635211631181442                2      470941           0
</event>
<event>
      5   9999  3.79277E-02  7.10320E+01 -1.00000E+00  1.30900E-01
      21    -1     0     0   502   512  0.000000000E+00  0.000000000E+00  3.448261451E+02  3.448261451E+02  0.000000000E+00  0.00000E+00  9.000E+00
      21    -1     0     0   501   502  0.000000000E+00  0.000000000E+00 -2.446609235E+02  2.446609235E+02  0.000000000E+00  0.00000E+00  9.000E+00
      25     1     1     2     0     0 -2.077501158E+02 -4.327358235E+01  1.538130589E+02  2.903724688E+02  1.250000000E+02  0.00000E+00  9.000E+00
      25     1     1     2     0     0  1.723272571E+02 -1.829557137E+01 -7.247428204E+01  2.256300801E+02  1.250000000E+02  0.00000E+00  9.000E+00
      21     1     1     2   501   512  3.542285869E+01  6.156915373E+01  1.882644477E+01  7.348451967E+01  1.410503336E-06  0.00000E+00  9.000E+00
#rwgt            1           1   3.4513397431192624E-002           2      471168           0
</event>
<event>
      5   9999  3.79277E-02  1.14325E+02 -1.00000E+00  1.21268E-01
      21    -1     0     0   511   501  0.000000000E+00  0.000000000E+00  3.602628560E+02  3.602628560E+02  0.000000000E+00  0.00000E+00  9.000E+00
      21    -1     0     0   501   502  0.000000000E+00  0.000000000E+00 -2.449523508E+02  2.449523508E+02  0.000000000E+00  0.00000E+00  9.000E+00
      25     1     1     2     0     0 -5.141263928E+01 -4.596120535E+01  1.764770792E+01  1.438476050E+02  1.250000000E+02  0.00000E+00  9.000E+00
      25     1     1     2     0     0  1.525790719E+02 -7.288181397E+00 -1.087896074E+02  2.253745093E+02  1.250000000E+02  0.00000E+00  9.000E+00
      21     1     1     2   511   502 -1.011664327E+02  5.324938675E+01  2.064524047E+02  2.359930925E+02  0.000000000E+00  0.00000E+00  9.000E+00
#rwgt            1           1   2.5478587726949834E-002           2      471268           0
</event>
<event>
      5   9999  3.79277E-02  6.58166E+01 -1.00000E+00  1.32591E-01
      21    -1     0     0   502   501  0.000000000E+00  0.000000000E+00  4.477591387E+02  4.477591387E+02  0.000000000E+00  0.00000E+00  9.000E+00
      21    -1     0     0   512   502  0.000000000E+00  0.000000000E+00 -3.638646986E+02  3.638646986E+02  0.000000000E+00  0.00000E+00  9.000E+00
      25     1     1     2     0     0 -1.592721980E+02  5.861342822E+01  1.681732860E+02  2.696486995E+02  1.250000000E+02  0.00000E+00  9.000E+00
      25     1     1     2     0     0  1.469430755E+02  6.038043481E+00  1.834440708E+02  2.662807776E+02  1.250000000E+02  0.00000E+00  9.000E+00
      21     1     1     2   512   501  1.232912246E+01 -6.465147170E+01 -2.677229168E+02  2.756943602E+02  5.394796609E-06  0.00000E+00  9.000E+00
#rwgt            1           1   4.0305615904240075E-002           2      471348           0
</event>
<event>
      5   9999  3.79277E-02  1.72248E+02 -1.00000E+00  1.14062E-01
      21    -1     0     0   502   501  0.000000000E+00  0.000000000E+00  3.406188391E+02  3.406188391E+02  0.000000000E+00  0.00000E+00  9.000E+00
      21    -1     0     0   511   502  0.000000000E+00  0.000000000E+00 -4.520312802E+02  4.520312802E+02  0.000000000E+00  0.00000E+00  9.000E+00
      25     1     1     2     0     0 -2.824488793E+02  1.924367256E+02 -4.004102871E+00  3.639372139E+02  1.250000000E+02  0.00000E+00  9.000E+00
      25     1     1     2     0     0  1.328542114E+02 -1.070502357E+02  2.287883882E+01  2.127403011E+02  1.250000000E+02  0.00000E+00  9.000E+00
      21     1     1     2   511   501  1.495946680E+02 -8.538648988E+01 -1.302871770E+02  2.159726044E+02  3.814697266E-06  0.00000E+00  9.000E+00
#rwgt            1           1   3.4171440600732350E-002           2      471430           0
</event>
<event>
      5   9999  3.79277E-02  7.53733E+01 -1.00000E+00  1.29614E-01
      21    -1     0     0   502   512  0.000000000E+00  0.000000000E+00  5.754152553E+02  5.754152553E+02  0.000000000E+00  0.00000E+00  9.000E+00
      21    -1     0     0   501   502  0.000000000E+00  0.000000000E+00 -2.969925595E+02  2.969925595E+02  0.000000000E+00  0.00000E+00  9.000E+00
      25     1     1     2     0     0 -1.711498892E+01  2.293178515E+02  1.584415504E+02  3.059547757E+02  1.250000000E+02  0.00000E+00  9.000E+00
      25     1     1     2     0     0 -5.529965012E+01 -2.084073904E+02 -1.467839318E+02  2.892442123E+02  1.250000000E+02  0.00000E+00  9.000E+00
      21     1     1     2   501   512  7.241463904E+01 -2.091046107E+01  2.667650771E+02  2.772088269E+02  3.814697266E-06  0.00000E+00  9.000E+00
#rwgt            1           1   2.9692294364462739E-002           2      471528           0
</event>
<event>
      5   9999  3.79277E-02  3.96344E+01 -1.00000E+00  1.45088E-01
      21    -1     0     0   511   501  0.000000000E+00  0.000000000E+00  1.928745332E+03  1.928745332E+03  0.000000000E+00  0.00000E+00  9.000E+00
      21    -1     0     0   501   502  0.000000000E+00  0.000000000E+00 -1.246489628E+03  1.246489628E+03  0.000000000E+00  0.00000E+00  9.000E+00
      25     1     1     2     0     0 -2.386774753E+02 -8.986731832E+01 -4.509519448E+02  5.329406427E+02  1.250000000E+02  0.00000E+00  9.000E+00
      25     1     1     2     0     0  2.665114777E+02  1.180834601E+02 -7.209917517E+02  7.876713638E+02  1.250000000E+02  0.00000E+00  9.000E+00
      21     1     1     2   511   502 -2.783400232E+01 -2.821614180E+01  1.854199401E+03  1.854622954E+03  2.157918644E-05  0.00000E+00  9.000E+00
#rwgt            1           1   3.9941436130876369E-002           2      471669           0
</event>
<event>
      5   9999  3.79277E-02  4.00269E+01 -1.00000E+00  1.44822E-01
      21    -1     0     0   502   501  0.000000000E+00  0.000000000E+00  9.731954760E+02  9.731954760E+02  0.000000000E+00  0.00000E+00  9.000E+00
      21    -1     0     0   501   512  0.000000000E+00  0.000000000E+00 -1.578953552E+03  1.578953552E+03  0.000000000E+00  0.00000E+00  9.000E+00
      25     1     1     2     0     0 -9.679720149E+01  9.649872812E+01  7.625756957E+02  7.847473443E+02  1.250000000E+02  0.00000E+00  9.000E+00
      25     1     1     2     0     0  5.810199269E+01 -8.626009490E+01  1.661003231E+02  2.324456127E+02  1.250000000E+02  0.00000E+00  9.000E+00
      21     1     1     2   502   512  3.869520880E+01 -1.023863322E+01 -1.534434095E+03  1.534956071E+03  3.051757812E-05  0.00000E+00  9.000E+00
#rwgt            1           1   3.7185394036592240E-002           2      471841           0
</event>
<event>
      5   9999  3.79277E-02  6.03669E+01 -1.00000E+00  1.34562E-01
      21    -1     0     0   502   501  0.000000000E+00  0.000000000E+00  2.492839652E+01  2.492839652E+01  0.000000000E+00  0.00000E+00  9.000E+00
       2    -1     0     0   501     0  0.000000000E+00  0.000000000E+00 -1.995614164E+03  1.995614164E+03  0.000000000E+00  0.00000E+00  9.000E+00
      25     1     1     2     0     0  2.843687211E+01 -1.012550497E+01 -1.208717450E+03  1.215538587E+03  1.250000000E+02  0.00000E+00  9.000E+00
      25     1     1     2     0     0 -8.053627745E+01 -2.036730116E+01 -2.663742658E+02  3.057469026E+02  1.250000000E+02  0.00000E+00  9.000E+00
       2     1     1     2   502     0  5.209940533E+01  3.049280613E+01 -4.955940517E+02  4.992570714E+02  0.000000000E+00  0.00000E+00  9.000E+00
#rwgt            1           1   6.6278153529028189E-002           2      471929           0
</event>
<event>
      5   9999  3.79277E-02  1.04519E+02 -1.00000E+00  1.22971E-01
      21    -1     0     0   502   501  0.000000000E+00  0.000000000E+00  4.548468148E+02  4.548468148E+02  0.000000000E+00  0.00000E+00  9.000E+00
      21    -1     0     0   501   511  0.000000000E+00  0.000000000E+00 -1.957661760E+02  1.957661760E+02  0.000000000E+00  0.00000E+00  9.000E+00
      25     1     1     2     0     0  1.700614283E+02 -1.631936095E+01  3.169033551E+02  3.811035914E+02  1.250000000E+02  0.00000E+00  9.000E+00
      25     1     1     2     0     0 -7.206328791E+01  5.265803391E+01 -8.208419765E+00  1.538127568E+02  1.250000000E+02  0.00000E+00  9.000E+00
      21     1     1     2   502   511 -9.799814038E+01 -3.633867296E+01 -4.961429649E+01  1.156966425E+02  9.536743164E-07  0.00000E+00  9.000E+00
#rwgt            1           1   1.8431814904441540E-002           2      472072           0
</event>
<event>
      5   9999  3.79277E-02  6.81970E+00 -1.00000E+00  2.17168E-01
      21    -1     0     0   502   512  0.000000000E+00  0.000000000E+00  8.251571335E+02  8.251571335E+02  0.000000000E+00  0.00000E+00  9.000E+00
      21    -1     0     0   501   502  0.000000000E+00  0.000000000E+00 -3.568229416E+01  3.568229416E+01  0.000000000E+00  0.00000E+00  9.000E+00
      25     1     1     2     0     0 -1.044093620E+02  2.551178180E+01  3.253161691E+02  3.647023111E+02  1.250000000E+02  0.00000E+00  9.000E+00
      25     1     1     2     0     0  1.071486547E+02 -3.175715101E+01  4.351265735E+02  4.663147926E+02  1.250000000E+02  0.00000E+00  9.000E+00
      21     1     1     2   501   512 -2.739292637E+00  6.245369215E+00  2.903209679E+01  2.982232394E+01  3.371747881E-07  0.00000E+00  9.000E+00
#rwgt            1           1   2.9533631043461944E-002           2      472263           0
</event>
<event>
      5   9999  3.79277E-02  1.12201E+02 -1.00000E+00  1.21620E-01
      21    -1     0     0   502   501  0.000000000E+00  0.000000000E+00  6.726551295E+02  6.726551295E+02  0.000000000E+00  0.00000E+00  9.000E+00
      21    -1     0     0   501   511  0.000000000E+00  0.000000000E+00 -2.175623045E+02  2.175623045E+02  0.000000000E+00  0.00000E+00  9.000E+00
      25     1     1     2     0     0 -1.229054776E+02  1.925397159E+02  3.963253830E+02  4.742110373E+02  1.250000000E+02  0.00000E+00  9.000E+00
      25     1     1     2     0     0  7.263733928E+01 -9.222887541E+01  1.815117265E+02  2.497075397E+02  1.250000000E+02  0.00000E+00  9.000E+00
      21     1     1     2   502   511  5.026813829E+01 -1.003108405E+02 -1.227442846E+02  1.662988570E+02  2.336015456E-06  0.00000E+00  9.000E+00
#rwgt            1           1   3.7352344150602040E-002           2      472700           0
</event>
<event>
      5   9999  3.79277E-02  8.24092E+01 -1.00000E+00  1.27729E-01
      21    -1     0     0   502   501  0.000000000E+00  0.000000000E+00  2.950224635E+03  2.950224635E+03  0.000000000E+00  0.00000E+00  9.000E+00
      21    -1     0     0   512   502  0.000000000E+00  0.000000000E+00 -3.539271664E+01  3.539271664E+01  0.000000000E+00  0.00000E+00  9.000E+00
      25     1     1     2     0     0 -5.712157676E+01  9.584240203E+01  2.456665560E+03  2.462372700E+03  1.250000000E+02  0.00000E+00  9.000E+00
      25     1     1     2     0     0  1.107751672E+02 -3.329183282E+01  3.104510691E+02  3.540965266E+02  1.250000000E+02  0.00000E+00  9.000E+00
      21     1     1     2   512   501 -5.365359044E+01 -6.255056922E+01  1.477152885E+02  1.691481242E+02  1.907348633E-06  0.00000E+00  9.000E+00
#rwgt            1           1   4.8749044381469167E-002           2      472793           0
</event>
<event>
      5   9999 -3.79277E-02  5.17489E+01 -1.00000E+00  1.38229E-01
      21    -1     0     0   502   501  0.000000000E+00  0.000000000E+00  1.469577572E+02  1.469577572E+02  0.000000000E+00  0.00000E+00  9.000E+00
      21    -1     0     0   511   502  0.000000000E+00  0.000000000E+00 -8.338552684E+02  8.338552684E+02  0.000000000E+00  0.00000E+00  9.000E+00
      25     1     1     2     0     0 -1.721198145E+02 -1.555398633E+02 -5.053224167E+02  5.699066805E+02  1.250000000E+02  0.00000E+00  9.000E+00
      25     1     1     2     0     0  2.077677567E+02  1.930521581E+02 -1.248948184E+02  3.341560895E+02  1.250000000E+02  0.00000E+00  9.000E+00
      21     1     1     2   511   501 -3.564794223E+01 -3.751229480E+01 -5.668027607E+01  7.675025565E+01  1.168007728E-06  0.00000E+00  9.000E+00
#rwgt            1           1  -2.2604286806344139E-002           2      473087           0
</event>
<event>
      5   9999  3.79277E-02  6.29372E+01 -1.00000E+00  1.33604E-01
       1    -1     0     0   502     0  0.000000000E+00  0.000000000E+00  2.466313647E+03  2.466313647E+03  0.000000000E+00  0.00000E+00  9.000E+00
      21    -1     0     0   501   502  0.000000000E+00  0.000000000E+00 -2.094360790E+02  2.094360790E+02  0.000000000E+00  0.00000E+00  9.000E+00
      25     1     1     2     0     0 -7.227227028E+01  6.559770384E+01 -1.278498263E+02  2.037079230E+02  1.250000000E+02  0.00000E+00  9.000E+00
      25     1     1     2     0     0  2.447834264E+01 -2.464855287E+01  5.410055055E+01  1.405653228E+02  1.250000000E+02  0.00000E+00  9.000E+00
       1     1     1     2   501     0  4.779392763E+01 -4.094915097E+01  2.330626844E+03  2.331476480E+03  4.315837288E-05  0.00000E+00  9.000E+00
#rwgt            1           1   4.2049252564733006E-002           2      473475           0
</event>
<event>
      5   9999  3.79277E-02  4.96462E+01 -1.00000E+00  1.39252E-01
      21    -1     0     0   502   501  0.000000000E+00  0.000000000E+00  1.337645307E+02  1.337645307E+02  0.000000000E+00  0.00000E+00  9.000E+00
      21    -1     0     0   501   511  0.000000000E+00  0.000000000E+00 -3.102836653E+02  3.102836653E+02  0.000000000E+00  0.00000E+00  9.000E+00
      25     1     1     2     0     0  8.939318269E+01 -6.509925491E+01  1.173839462E+01  1.673076329E+02  1.250000000E+02  0.00000E+00  9.000E+00
      25     1     1     2     0     0 -4.144604850E+01  7.797609251E+01 -1.466365310E+02  2.119559345E+02  1.250000000E+02  0.00000E+00  9.000E+00
      21     1     1     2   502   511 -4.794713420E+01 -1.287683760E+01 -4.162099820E+01  6.478462870E+01  1.168007728E-06  0.00000E+00  9.000E+00
#rwgt            1           1   4.7402721297516333E-002           2      473582           0
</event>
<event>
      5   9999  3.79277E-02  3.11719E+01 -1.00000E+00  1.51893E-01
      21    -1     0     0   502   501  0.000000000E+00  0.000000000E+00  1.830441725E+03  1.830441725E+03  0.000000000E+00  0.00000E+00  9.000E+00
      21    -1     0     0   501   512  0.000000000E+00  0.000000000E+00 -3.382056952E+02  3.382056952E+02  0.000000000E+00  0.00000E+00  9.000E+00
      25     1     1     2     0     0  2.054481076E+01 -3.143895523E+02  7.953437643E+02  8.645574493E+02  1.250000000E+02  0.00000E+00  9.000E+00
      25     1     1     2     0     0 -4.849318446E+01  3.005845917E+02  9.725201605E+02  1.026704996E+03  1.250000000E+02  0.00000E+00  9.000E+00
      21     1     1     2   502   512  2.794837370E+01  1.380496063E+01 -2.756278945E+02  2.773849757E+02  8.529922400E-06  0.00000E+00  9.000E+00
#rwgt            1           1   4.1766394342957300E-002           2      474062           0
</event>
<event>
      5   9999  3.79277E-02  1.69558E+01 -1.00000E+00  1.72512E-01
      21    -1     0     0   502   501  0.000000000E+00  0.000000000E+00  3.425657047E+01  3.425657047E+01  0.000000000E+00  0.00000E+00  9.000E+00
      21    -1     0     0   501   511  0.000000000E+00  0.000000000E+00 -2.007476776E+03  2.007476776E+03  0.000000000E+00  0.00000E+00  9.000E+00
      25     1     1     2     0     0 -8.344867358E+01  4.127336530E+01 -1.019738098E+03  1.031580322E+03  1.250000000E+02  0.00000E+00  9.000E+00
      25     1     1     2     0     0  7.120345459E+01 -5.300168244E+01 -1.798131381E+02  2.362982753E+02  1.250000000E+02  0.00000E+00  9.000E+00
      21     1     1     2   502   511  1.224521899E+01  1.172831714E+01 -7.736689698E+02  7.738547497E+02  1.078959322E-05  0.00000E+00  9.000E+00
#rwgt            1           1   2.5798353903824692E-002           2      474243           0
</event>
<event>
      5   9999  3.79277E-02  3.96331E+01 -1.00000E+00  1.45089E-01
      21    -1     0     0   502   501  0.000000000E+00  0.000000000E+00  4.027632515E+02  4.027632515E+02  0.000000000E+00  0.00000E+00  9.000E+00
      21    -1     0     0   501   512  0.000000000E+00  0.000000000E+00 -1.311133461E+02  1.311133461E+02  0.000000000E+00  0.00000E+00  9.000E+00
      25     1     1     2     0     0  1.426241487E+02  9.463719854E+01  7.564947044E+01  2.250459720E+02  1.250000000E+02  0.00000E+00  9.000E+00
      25     1     1     2     0     0 -1.356475359E+02 -5.562293581E+01  1.863487021E+02  2.680391832E+02  1.250000000E+02  0.00000E+00  9.000E+00
      21     1     1     2   502   512 -6.976612849E+00 -3.901426273E+01  9.651732830E+00  4.079144236E+01  9.000103993E-07  0.00000E+00  9.000E+00
#rwgt            1           1   4.3147867498281665E-002           2      474661           0
</event>
<event>
      5   9999  3.79277E-02  1.59949E+01 -1.00000E+00  1.74796E-01
      21    -1     0     0   502   511  0.000000000E+00  0.000000000E+00  1.997489945E+02  1.997489945E+02  0.000000000E+00  0.00000E+00  9.000E+00
      21    -1     0     0   501   502  0.000000000E+00  0.000000000E+00 -9.257781012E+02  9.257781012E+02  0.000000000E+00  0.00000E+00  9.000E+00
      25     1     1     2     0     0  1.920507106E+02 -1.212615543E+01 -5.701812802E+02  6.146236339E+02  1.250000000E+02  0.00000E+00  9.000E+00
      25     1     1     2     0     0 -1.826257555E+02 -7.970192220E-01 -2.961423990E+02  3.697000437E+02  1.250000000E+02  0.00000E+00  9.000E+00
      21     1     1     2   501   511 -9.424955055E+00  1.292317466E+01  1.402945725E+02  1.412034181E+02  3.814697266E-06  0.00000E+00  9.000E+00
#rwgt            1           1   3.3717240093255454E-002           2      474854           0
</event>
<event>
      5   9999  3.79277E-02  3.05264E+01 -1.00000E+00  1.52517E-01
      -3    -1     0     0     0   501  0.000000000E+00  0.000000000E+00  4.471949115E+01  4.471949115E+01  0.000000000E+00  0.00000E+00  9.000E+00
      21    -1     0     0   501   502  0.000000000E+00  0.000000000E+00 -9.229528159E+02  9.229528159E+02  0.000000000E+00  0.00000E+00  9.000E+00
      25     1     1     2     0     0 -1.332636101E+02 -3.043310144E+01 -3.340626535E+02  3.819793449E+02  1.250000000E+02  0.00000E+00  9.000E+00
      25     1     1     2     0     0  1.205905791E+02  5.820457599E+01 -4.274531581E+02  4.650495273E+02  1.250000000E+02  0.00000E+00  9.000E+00
      -3     1     1     2     0   502  1.267303105E+01 -2.777147454E+01 -1.167175131E+02  1.206434349E+02  1.907348633E-06  0.00000E+00  9.000E+00
#rwgt            1           1   2.9621359889478067E-002           2      475054           0
</event>
<event>
      5   9999  3.79277E-02  1.77570E+01 -1.00000E+00  1.70747E-01
      21    -1     0     0   502   501  0.000000000E+00  0.000000000E+00  1.513232523E+02  1.513232523E+02  0.000000000E+00  0.00000E+00  9.000E+00
      21    -1     0     0   501   511  0.000000000E+00  0.000000000E+00 -5.781459742E+02  5.781459742E+02  0.000000000E+00  0.00000E+00  9.000E+00
      25     1     1     2     0     0  3.786748703E+01 -2.251158962E+02 -5.534962272E+01  2.660821190E+02  1.250000000E+02  0.00000E+00  9.000E+00
      25     1     1     2     0     0 -2.206474465E+01  2.170174378E+02 -3.085659465E+02  3.980218142E+02  1.250000000E+02  0.00000E+00  9.000E+00
      21     1     1     2   502   511 -1.580274238E+01  8.098458401E+00 -6.290715274E+01  6.536529324E+01  0.000000000E+00  0.00000E+00  9.000E+00
#rwgt            1           1   3.7750387986886999E-002           2      475254           0
</event>
<event>
      5   9999  3.79277E-02  4.45596E+01 -1.00000E+00  1.41991E-01
      21    -1     0     0   512   501  0.000000000E+00  0.000000000E+00  3.724493494E+02  3.724493494E+02  0.000000000E+00  0.00000E+00  9.000E+00
      21    -1     0     0   501   502  0.000000000E+00  0.000000000E+00 -2.536531798E+02  2.536531798E+02  0.000000000E+00  0.00000E+00  9.000E+00
      25     1     1     2     0     0  6.456025834E+00  1.933061493E+02 -9.667898113E+01  2.497614322E+02  1.250000000E+02  0.00000E+00  9.000E+00
      25     1     1     2     0     0 -3.141996950E+01 -1.563960027E+02  5.528299628E+01  2.100669746E+02  1.250000000E+02  0.00000E+00  9.000E+00
      21     1     1     2   512   502  2.496394367E+01 -3.691014655E+01  1.601921545E+02  1.662741224E+02  1.907348633E-06  0.00000E+00  9.000E+00
#rwgt            1           1   3.3678760609332350E-002           2      475475           0
</event>
<event>
      5   9999  3.79277E-02  1.96921E+01 -1.00000E+00  1.66927E-01
      21    -1     0     0   511   501  0.000000000E+00  0.000000000E+00  1.215583119E+02  1.215583119E+02  0.000000000E+00  0.00000E+00  9.000E+00
      21    -1     0     0   501   502  0.000000000E+00  0.000000000E+00 -2.908507261E+02  2.908507261E+02  0.000000000E+00  0.00000E+00  9.000E+00
      25     1     1     2     0     0 -3.673076133E+01  5.988176405E+01 -1.904296533E+02  2.383766501E+02  1.250000000E+02  0.00000E+00  9.000E+00
      25     1     1     2     0     0  5.637884808E+01 -6.119722307E+01  8.029428410E+00  1.503766815E+02  1.250000000E+02  0.00000E+00  9.000E+00
      21     1     1     2   511   502 -1.964808676E+01  1.315459028E+00  1.310781065E+01  2.365570641E+01  2.384185791E-07  0.00000E+00  9.000E+00
#rwgt            1           1   4.4178306477698957E-002           2      475661           0
</event>
<event>
      5   9999  3.79277E-02  3.33841E+01 -1.00000E+00  1.49884E-01
      21    -1     0     0   502   501  0.000000000E+00  0.000000000E+00  2.984162583E+02  2.984162583E+02  0.000000000E+00  0.00000E+00  9.000E+00
       4    -1     0     0   501     0  0.000000000E+00  0.000000000E+00 -2.153724240E+02  2.153724240E+02  0.000000000E+00  0.00000E+00  9.000E+00
      25     1     1     2     0     0  1.217922963E+02  7.019562229E+01  8.655280849E+00  1.883101237E+02  1.250000000E+02  0.00000E+00  9.000E+00
      25     1     1     2     0     0 -1.416147726E+02 -4.333362725E+01  1.485288827E+02  2.441687451E+02  1.250000000E+02  0.00000E+00  9.000E+00
       4     1     1     2   502     0  1.982247636E+01 -2.686199504E+01 -7.414032930E+01  8.130981352E+01  0.000000000E+00  0.00000E+00  9.000E+00
#rwgt            1           1   3.9236350541136014E-002           2      475954           0
</event>
<event>
      5   9999  3.79277E-02  1.05023E+01 -1.00000E+00  1.93328E-01
      21    -1     0     0   502   501  0.000000000E+00  0.000000000E+00  5.907686270E+02  5.907686270E+02  0.000000000E+00  0.00000E+00  9.000E+00
      21    -1     0     0   511   502  0.000000000E+00  0.000000000E+00 -1.084164320E+02  1.084164320E+02  0.000000000E+00  0.00000E+00  9.000E+00
      25     1     1     2     0     0  1.726241469E+02 -2.176471764E+01  1.507419221E+02  2.619559622E+02  1.250000000E+02  0.00000E+00  9.000E+00
      25     1     1     2     0     0 -1.747608497E+02  3.204737690E+01  3.523756704E+02  4.139589376E+02  1.250000000E+02  0.00000E+00  9.000E+00
      21     1     1     2   511   501  2.136702719E+00 -1.028265926E+01 -2.076539749E+01  2.327015928E+01  6.307962682E-07  0.00000E+00  9.000E+00
#rwgt            1           1   3.8064077274901555E-002           2      476053           0
</event>
<event>
      5   9999  3.79277E-02  2.42705E+01 -1.00000E+00  1.59720E-01
      21    -1     0     0   512   501  0.000000000E+00  0.000000000E+00  2.494697362E+02  2.494697362E+02  0.000000000E+00  0.00000E+00  9.000E+00
      21    -1     0     0   501   502  0.000000000E+00  0.000000000E+00 -5.247194932E+02  5.247194932E+02  0.000000000E+00  0.00000E+00  9.000E+00
      25     1     1     2     0     0 -1.786072286E+02 -2.221191654E+02 -3.272332388E+02  4.516016589E+02  1.250000000E+02  0.00000E+00  9.000E+00
      25     1     1     2     0     0  1.772937997E+02  1.978842787E+02  5.264459197E+01  2.983081163E+02  1.250000000E+02  0.00000E+00  9.000E+00
      21     1     1     2   512   502  1.313428835E+00  2.423488668E+01 -6.611101771E-01  2.427945416E+01  5.466919043E-07  0.00000E+00  9.000E+00
#rwgt            1           1   4.1908156016334436E-002           2      476316           0
</event>
<event>
      5   9999  3.79277E-02  2.27119E+01 -1.00000E+00  1.61938E-01
      21    -1     0     0   502   511  0.000000000E+00  0.000000000E+00  9.573611438E+01  9.573611438E+01  0.000000000E+00  0.00000E+00  9.000E+00
      21    -1     0     0   501   502  0.000000000E+00  0.000000000E+00 -4.628260821E+02  4.628260821E+02  0.000000000E+00  0.00000E+00  9.000E+00
      25     1     1     2     0     0  5.834998870E+01 -1.016842880E+02 -3.220884258E+02  3.648429383E+02  1.250000000E+02  0.00000E+00  9.000E+00
      25     1     1     2     0     0 -6.587494609E+01  8.025525882E+01 -5.084751919E+01  1.702670999E+02  1.250000000E+02  0.00000E+00  9.000E+00
      21     1     1     2   501   511  7.524957391E+00  2.142902922E+01  5.845977270E+00  2.345215827E+01  1.460009660E-07  0.00000E+00  9.000E+00
#rwgt            1           1   3.4081077999997537E-002           2      476497           0
</event>
<event>
      5   9999  3.79277E-02  2.58601E+01 -1.00000E+00  1.57658E-01
      21    -1     0     0   502   512  0.000000000E+00  0.000000000E+00  1.347565311E+02  1.347565311E+02  0.000000000E+00  0.00000E+00  9.000E+00
      21    -1     0     0   501   502  0.000000000E+00  0.000000000E+00 -3.614482600E+02  3.614482600E+02  0.000000000E+00  0.00000E+00  9.000E+00
      25     1     1     2     0     0  5.345629120E+01 -6.634527441E-01 -2.791398414E+02  3.104868215E+02  1.250000000E+02  0.00000E+00  9.000E+00
      25     1     1     2     0     0 -7.436740794E+01 -1.455076053E+01  2.552536200E+01  1.483872639E+02  1.250000000E+02  0.00000E+00  9.000E+00
      21     1     1     2   501   512  2.091111674E+01  1.521421327E+01  2.692275055E+01  3.733070567E+01  8.259061849E-07  0.00000E+00  9.000E+00
#rwgt            1           1   5.9451439162155992E-002           2      476719           0
</event>
<event>
      5   9999  3.79277E-02  1.72808E+02 -1.00000E+00  1.14008E-01
      21    -1     0     0   502   501  0.000000000E+00  0.000000000E+00  1.292723620E+02  1.292723620E+02  0.000000000E+00  0.00000E+00  9.000E+00
      -1    -1     0     0     0   502  0.000000000E+00  0.000000000E+00 -9.733425017E+02  9.733425017E+02  0.000000000E+00  0.00000E+00  9.000E+00
      25     1     1     2     0     0  8.775101528E+01  1.282528908E+02 -1.596435971E+02  2.554606090E+02  1.250000000E+02  0.00000E+00  9.000E+00
      25     1     1     2     0     0 -1.766451211E+02  1.993742096E+01 -1.028085037E+02  2.404071297E+02  1.250000000E+02  0.00000E+00  9.000E+00
      -1     1     1     2     0   501  8.889410582E+01 -1.481903117E+02 -5.816180389E+02  6.067471251E+02  7.629394531E-06  0.00000E+00  9.000E+00
#rwgt            1           1   3.2219820224625002E-002           2      476900           0
</event>
<event>
      5   9999  3.79277E-02  7.45678E+01 -1.00000E+00  1.29845E-01
      21    -1     0     0   502   501  0.000000000E+00  0.000000000E+00  1.824641423E+02  1.824641423E+02  0.000000000E+00  0.00000E+00  9.000E+00
      21    -1     0     0   511   502  0.000000000E+00  0.000000000E+00 -1.660152471E+03  1.660152471E+03  0.000000000E+00  0.00000E+00  9.000E+00
      25     1     1     2     0     0 -2.622604232E+02 -1.124654897E+02 -7.968648244E+02  8.555977818E+02  1.250000000E+02  0.00000E+00  9.000E+00
      25     1     1     2     0     0  3.132471904E+02  5.805312891E+01 -4.307607275E+01  3.449268272E+02  1.250000000E+02  0.00000E+00  9.000E+00
      21     1     1     2   511   501 -5.098676721E+01  5.441236074E+01 -6.377474312E+02  6.420920038E+02  7.629394531E-06  0.00000E+00  9.000E+00
#rwgt            1           1   3.0820134603727584E-002           2      477054           0
</event>
<event>
      5   9999  3.79277E-02  5.57317E+01 -1.00000E+00  1.36439E-01
      21    -1     0     0   502   512  0.000000000E+00  0.000000000E+00  2.595552160E+02  2.595552160E+02  0.000000000E+00  0.00000E+00  9.000E+00
      21    -1     0     0   501   502  0.000000000E+00  0.000000000E+00 -2.468237038E+02  2.468237038E+02  0.000000000E+00  0.00000E+00  9.000E+00
      25     1     1     2     0     0 -9.197273876E+01  1.332967796E+02 -1.177774332E+02  2.360583400E+02  1.250000000E+02  0.00000E+00  9.000E+00
      25     1     1     2     0     0  3.683793385E+01 -1.251618843E+02  9.377015307E+01  2.035690848E+02  1.250000000E+02  0.00000E+00  9.000E+00
      21     1     1     2   501   512  5.513480491E+01 -8.134895206E+00  3.673879226E+01  6.675149504E+01  4.768371582E-07  0.00000E+00  9.000E+00
#rwgt            1           1   3.6191639621083765E-002           2      477183           0
</event>
<event>
      5   9999  3.79277E-02  1.06972E+02 -1.00000E+00  1.22526E-01
      21    -1     0     0   502   501  0.000000000E+00  0.000000000E+00  3.476067587E+02  3.476067587E+02  0.000000000E+00  0.00000E+00  9.000E+00
      21    -1     0     0   511   502  0.000000000E+00  0.000000000E+00 -2.096529433E+02  2.096529433E+02  0.000000000E+00  0.00000E+00  9.000E+00
      25     1     1     2     0     0  1.389964276E+02  7.954594303E+01  2.037102595E+02  2.876985120E+02  1.250000000E+02  0.00000E+00  9.000E+00
      25     1     1     2     0     0 -3.209560686E+01 -8.344402577E+01 -4.886976818E+01  1.612646510E+02  1.250000000E+02  0.00000E+00  9.000E+00
      21     1     1     2   511   501 -1.069008208E+02  3.898082740E+00 -1.688667595E+01  1.082965390E+02  1.599360450E-06  0.00000E+00  9.000E+00
#rwgt            1           1   3.4478165920952181E-002           2      477302           0
</event>
<event>
      5   9999  3.79277E-02  8.45949E+01 -1.00000E+00  1.27186E-01
      21    -1     0     0   502   501  0.000000000E+00  0.000000000E+00  1.314023663E+02  1.314023663E+02  0.000000000E+00  0.00000E+00  9.000E+00
      21    -1     0     0   512   502  0.000000000E+00  0.000000000E+00 -6.832468746E+02  6.832468746E+02  0.000000000E+00  0.00000E+00  9.000E+00
      25     1     1     2     0     0 -7.037785907E+01  1.494211404E+02 -2.957145196E+02  3.610426531E+02  1.250000000E+02  0.00000E+00  9.000E+00
      25     1     1     2     0     0  1.298051638E+02 -2.096265796E+02 -1.398193022E+02  3.097856044E+02  1.250000000E+02  0.00000E+00  9.000E+00
      21     1     1     2   512   501 -5.942730472E+01  6.020543928E+01 -1.163106864E+02  1.438209833E+02  3.303624740E-06  0.00000E+00  9.000E+00
#rwgt            1           1   3.4000517755812823E-002           2      477392           0
</event>
<event>
      5   9999  3.79277E-02  3.95164E+01 -1.00000E+00  1.45169E-01
      21    -1     0     0   511   501  0.000000000E+00  0.000000000E+00  4.597318693E+01  4.597318693E+01  0.000000000E+00  0.00000E+00  9.000E+00
      21    -1     0     0   501   502  0.000000000E+00  0.000000000E+00 -1.809354104E+03  1.809354104E+03  0.000000000E+00  0.00000E+00  9.000E+00
      25     1     1     2     0     0  1.008428803E+02  6.611338914E+01 -2.034990178E+02  2.675390008E+02  1.250000000E+02  0.00000E+00  9.000E+00
      25     1     1     2     0     0 -8.063940314E+01 -1.000746083E+02 -1.523694671E+03  1.534206013E+03  1.250000000E+02  0.00000E+00  9.000E+00
      21     1     1     2   511   502 -2.020347716E+01  3.396121913E+01 -3.618722799E+01  5.358227658E+01  9.536743164E-07  0.00000E+00  9.000E+00
#rwgt            2          11   8.1564465221475105E-003           2      477458           0
</event>
<event>
      5   9999  3.79277E-02  2.22127E+01 -1.00000E+00  1.62695E-01
      21    -1     0     0   502   512  0.000000000E+00  0.000000000E+00  4.434892563E+01  4.434892563E+01  0.000000000E+00  0.00000E+00  9.000E+00
      21    -1     0     0   501   502  0.000000000E+00  0.000000000E+00 -1.495971185E+03  1.495971185E+03  0.000000000E+00  0.00000E+00  9.000E+00
      25     1     1     2     0     0 -1.827730528E+02  9.119319290E+01 -5.561889873E+02  6.055521256E+02  1.250000000E+02  0.00000E+00  9.000E+00
      25     1     1     2     0     0  1.943801976E+02 -7.225436575E+01 -8.551162301E+02  8.887368123E+02  1.250000000E+02  0.00000E+00  9.000E+00
      21     1     1     2   501   512 -1.160714479E+01 -1.893882714E+01 -4.031704181E+01  4.603117253E+01  6.743495762E-07  0.00000E+00  9.000E+00
#rwgt            1           1  0.12652416352329462                2      477538           0
</event>
<event>
      5   9999  3.79277E-02  6.09509E+00 -1.00000E+00  2.24416E-01
      21    -1     0     0   502   501  0.000000000E+00  0.000000000E+00  2.595022442E+02  2.595022442E+02  0.000000000E+00  0.00000E+00  9.000E+00
      21    -1     0     0   501   511  0.000000000E+00  0.000000000E+00 -2.227917311E+02  2.227917311E+02  0.000000000E+00  0.00000E+00  9.000E+00
      25     1     1     2     0     0  9.541781312E+01  1.342434402E+02  1.251750590E+02  2.417015840E+02  1.250000000E+02  0.00000E+00  9.000E+00
      25     1     1     2     0     0 -9.600531421E+01 -1.403101485E+02 -7.188327941E+01  2.229263645E+02  1.250000000E+02  0.00000E+00  9.000E+00
      21     1     1     2   502   511  5.875010870E-01  6.066708312E+00 -1.658126645E+01  1.766602684E+01  2.384185791E-07  0.00000E+00  9.000E+00
#rwgt            1           1   4.0212380485743278E-002           2      477708           0
</event>
<event>
      5   9999  3.79277E-02  5.32779E+01 -1.00000E+00  1.37520E-01
       2    -1     0     0   502     0  0.000000000E+00  0.000000000E+00  1.410578446E+03  1.410578446E+03  0.000000000E+00  0.00000E+00  9.000E+00
      21    -1     0     0   501   502  0.000000000E+00  0.000000000E+00 -1.818294042E+02  1.818294042E+02  0.000000000E+00  0.00000E+00  9.000E+00
      25     1     1     2     0     0  4.948727651E+01 -6.051577137E+01 -1.044282216E+02  1.806693183E+02  1.250000000E+02  0.00000E+00  9.000E+00
      25     1     1     2     0     0 -9.648513909E+01  3.542114266E+01  1.305289291E+02  2.079106557E+02  1.250000000E+02  0.00000E+00  9.000E+00
       2     1     1     2   501     0  4.699786259E+01  2.509462872E+01  1.202648334E+03  1.203827876E+03  0.000000000E+00  0.00000E+00  9.000E+00
#rwgt            1           1   4.4979098294604412E-002           2      478066           0
</event>
<event>
      5   9999  3.79277E-02  3.69618E+01 -1.00000E+00  1.47000E-01
      21    -1     0     0   502   501  0.000000000E+00  0.000000000E+00  1.003275602E+02  1.003275602E+02  0.000000000E+00  0.00000E+00  9.000E+00
      21    -1     0     0   501   511  0.000000000E+00  0.000000000E+00 -8.839807901E+02  8.839807901E+02  0.000000000E+00  0.00000E+00  9.000E+00
      25     1     1     2     0     0 -1.541443556E+02 -1.025898316E+02 -4.543043488E+02  5.062633675E+02  1.250000000E+02  0.00000E+00  9.000E+00
      25     1     1     2     0     0  1.261084342E+02  7.850322298E+01 -5.578818433E+01  2.019985513E+02  1.250000000E+02  0.00000E+00  9.000E+00
      21     1     1     2   502   511  2.803592138E+01  2.408660858E+01 -2.735606967E+02  2.760464316E+02  0.000000000E+00  0.00000E+00  9.000E+00
#rwgt            2          11   6.0852908118059741E-004           2      478155           0
</event>
<event>
      5   9999  3.79277E-02  1.19552E+02 -1.00000E+00  1.20437E-01
      21    -1     0     0   502   501  0.000000000E+00  0.000000000E+00  7.354516000E+01  7.354516000E+01  0.000000000E+00  0.00000E+00  9.000E+00
      21    -1     0     0   512   502  0.000000000E+00  0.000000000E+00 -8.953726293E+02  8.953726293E+02  0.000000000E+00  0.00000E+00  9.000E+00
      25     1     1     2     0     0 -3.157130454E+01  1.064652476E+02 -1.560947907E+02  2.287404204E+02  1.250000000E+02  0.00000E+00  9.000E+00
      25     1     1     2     0     0 -8.571069493E+01 -1.296531589E+02 -4.736101508E+02  5.138947750E+02  1.250000000E+02  0.00000E+00  9.000E+00
      21     1     1     2   512   501  1.172819995E+02  2.318791136E+01 -1.921225278E+02  2.262825939E+02  2.697398305E-06  0.00000E+00  9.000E+00
#rwgt            1           1   4.1996623858920563E-002           2      478175           0
</event>
<event>
      5   9999  3.79277E-02  4.98089E+01 -1.00000E+00  1.39170E-01
      21    -1     0     0   502   501  0.000000000E+00  0.000000000E+00  3.731661201E+02  3.731661201E+02  0.000000000E+00  0.00000E+00  9.000E+00
      21    -1     0     0   511   502  0.000000000E+00  0.000000000E+00 -1.604922456E+02  1.604922456E+02  0.000000000E+00  0.00000E+00  9.000E+00
      25     1     1     2     0     0  4.327463731E+01 -4.744906274E+01  2.465696931E+02  2.838057810E+02  1.250000000E+02  0.00000E+00  9.000E+00
      25     1     1     2     0     0 -8.258367977E+01  7.803862462E+01  2.712167436E+01  1.710867509E+02  1.250000000E+02  0.00000E+00  9.000E+00
      21     1     1     2   511   501  3.930904245E+01 -3.058956189E+01 -6.101749305E+01  7.876583380E+01  1.168007728E-06  0.00000E+00  9.000E+00
#rwgt            1           1   4.3751682412465812E-002           2      478228           0
</event>
<event>
      5   9999  3.79277E-02  9.42523E+01 -1.00000E+00  1.24995E-01
      21    -1     0     0   502   512  0.000000000E+00  0.000000000E+00  3.300606224E+02  3.300606224E+02  0.000000000E+00  0.00000E+00  9.000E+00
      21    -1     0     0   501   502  0.000000000E+00  0.000000000E+00 -4.769086995E+02  4.769086995E+02  0.000000000E+00  0.00000E+00  9.000E+00
      25     1     1     2     0     0 -2.200082725E+02  8.248154619E+00  8.851424703E+00  2.533278898E+02  1.250000000E+02  0.00000E+00  9.000E+00
      25     1     1     2     0     0  1.308320289E+02 -3.876198486E+01 -3.168620479E+02  3.669415058E+02  1.250000000E+02  0.00000E+00  9.000E+00
      21     1     1     2   501   512  8.917624358E+01  3.051383024E+01  1.611625461E+02  1.866999264E+02  1.907348633E-06  0.00000E+00  9.000E+00
#rwgt            1           1   4.2223684221514679E-002           2      478359           0
</event>
<event>
      5   9999  3.79277E-02  2.40594E+01 -1.00000E+00  1.60009E-01
      21    -1     0     0   502   511  0.000000000E+00  0.000000000E+00  4.378499447E+02  4.378499447E+02  0.000000000E+00  0.00000E+00  9.000E+00
      21    -1     0     0   501   502  0.000000000E+00  0.000000000E+00 -2.462601565E+02  2.462601565E+02  0.000000000E+00  0.00000E+00  9.000E+00
      25     1     1     2     0     0 -2.238908075E+02 -1.576402303E+02  1.397238366E+02  3.318513017E+02  1.250000000E+02  0.00000E+00  9.000E+00
      25     1     1     2     0     0  2.086181041E+02  1.390498713E+02 -1.565203987E+01  2.805821919E+02  1.250000000E+02  0.00000E+00  9.000E+00
      21     1     1     2   501   511  1.527270341E+01  1.859035898E+01  6.751799148E+01  7.167660769E+01  9.536743164E-07  0.00000E+00  9.000E+00
#rwgt            1           1   3.4621164538151825E-002           2      478478           0
</event>
<event>
      5   9999  3.79277E-02  1.43887E+01 -1.00000E+00  1.79103E-01
      21    -1     0     0   502   512  0.000000000E+00  0.000000000E+00  2.252131168E+02  2.252131168E+02  0.000000000E+00  0.00000E+00  9.000E+00
      21    -1     0     0   501   502  0.000000000E+00  0.000000000E+00 -2.238562577E+02  2.238562577E+02  0.000000000E+00  0.00000E+00  9.000E+00
      25     1     1     2     0     0  4.775321623E+01  3.900412397E+01 -1.653047619E+02  2.162229304E+02  1.250000000E+02  0.00000E+00  9.000E+00
      25     1     1     2     0     0 -6.192929647E+01 -4.146847953E+01  1.369675637E+02  1.998499088E+02  1.250000000E+02  0.00000E+00  9.000E+00
      21     1     1     2   501   512  1.417608024E+01  2.464355557E+00  2.969405731E+01  3.299653525E+01  0.000000000E+00  0.00000E+00  9.000E+00
#rwgt            1           1   4.7296685413434361E-002           2      478758           0
</event>
<event>
      5   9999  3.79277E-02  6.95637E+01 -1.00000E+00  1.31358E-01
      21    -1     0     0   502   501  0.000000000E+00  0.000000000E+00  2.842501260E+01  2.842501260E+01  0.000000000E+00  0.00000E+00  9.000E+00
      21    -1     0     0   501   511  0.000000000E+00  0.000000000E+00 -1.761284700E+03  1.761284700E+03  0.000000000E+00  0.00000E+00  9.000E+00
      25     1     1     2     0     0  3.623241671E+01  1.540134685E+02 -8.455551077E+02  8.692648484E+02  1.250000000E+02  0.00000E+00  9.000E+00
      25     1     1     2     0     0  2.351657900E+01 -1.183880292E+02 -5.863612390E+02  6.115662332E+02  1.250000000E+02  0.00000E+00  9.000E+00
      21     1     1     2   502   511 -5.974899571E+01 -3.562543929E+01 -3.009433410E+02  3.088786313E+02  3.814697266E-06  0.00000E+00  9.000E+00
#rwgt            1           1   4.2392370003018071E-002           2      478986           0
</event>
<event>
      5   9999  3.79277E-02  1.00317E+02 -1.00000E+00  1.23766E-01
      21    -1     0     0   502   501  0.000000000E+00  0.000000000E+00  4.693778992E+02  4.693778992E+02  0.000000000E+00  0.00000E+00  9.000E+00
      21    -1     0     0   512   502  0.000000000E+00  0.000000000E+00 -2.571856812E+02  2.571856812E+02  0.000000000E+00  0.00000E+00  9.000E+00
      25     1     1     2     0     0 -8.754254009E+01 -1.990343307E+02  4.615297342E+01  2.550165839E+02  1.250000000E+02  0.00000E+00  9.000E+00
      25     1     1     2     0     0  1.483610385E+02  2.788130741E+02  1.434684055E+02  3.687219974E+02  1.250000000E+02  0.00000E+00  9.000E+00
      21     1     1     2   512   501 -6.081849844E+01 -7.977874339E+01  2.257083914E+01  1.028249990E+02  1.735713456E-06  0.00000E+00  9.000E+00
#rwgt            1           1   8.8307479813859405E-002           2      479135           0
</event>
<event>
      5   9999  3.79277E-02  5.83630E+01 -1.00000E+00  1.35349E-01
      21    -1     0     0   502   501  0.000000000E+00  0.000000000E+00  1.119518419E+02  1.119518419E+02  0.000000000E+00  0.00000E+00  9.000E+00
      21    -1     0     0   501   511  0.000000000E+00  0.000000000E+00 -8.034977928E+02  8.034977928E+02  0.000000000E+00  0.00000E+00  9.000E+00
      25     1     1     2     0     0 -2.384949982E+01 -1.239933174E+02 -4.520483190E+02  4.857116677E+02  1.250000000E+02  0.00000E+00  9.000E+00
      25     1     1     2     0     0  5.021236996E+01  1.760628424E+02 -4.438709919E+01  2.260854289E+02  1.250000000E+02  0.00000E+00  9.000E+00
      21     1     1     2   502   511 -2.636287014E+01 -5.206952506E+01 -1.951105326E+02  2.036525382E+02  0.000000000E+00  0.00000E+00  9.000E+00
#rwgt            1           1   3.5873806313638665E-002           2      479337           0
</event>
<event>
      5   9999  3.79277E-02  6.95667E+01 -1.00000E+00  1.31357E-01
      21    -1     0     0   502   501  0.000000000E+00  0.000000000E+00  3.589811626E+02  3.589811626E+02  0.000000000E+00  0.00000E+00  9.000E+00
      21    -1     0     0   501   512  0.000000000E+00  0.000000000E+00 -1.444466833E+03  1.444466833E+03  0.000000000E+00  0.00000E+00  9.000E+00
      25     1     1     2     0     0 -2.281264376E+02  2.016496631E+02 -1.360487502E+02  3.561439605E+02  1.250000000E+02  0.00000E+00  9.000E+00
      25     1     1     2     0     0  1.585623791E+02 -2.022507064E+02  1.654683828E+02  3.302304680E+02  1.250000000E+02  0.00000E+00  9.000E+00
      21     1     1     2   502   512  6.956405858E+01  6.010432936E-01 -1.114905303E+03  1.117073567E+03  1.525878906E-05  0.00000E+00  9.000E+00
#rwgt            1           1   4.3113027543228738E-002           2      479463           0
</event>
<event>
      5   9999  3.79277E-02  2.54300E+01 -1.00000E+00  1.58198E-01
      21    -1     0     0   502   511  0.000000000E+00  0.000000000E+00  2.039965842E+02  2.039965842E+02  0.000000000E+00  0.00000E+00  9.000E+00
      21    -1     0     0   501   502  0.000000000E+00  0.000000000E+00 -4.933588036E+02  4.933588036E+02  0.000000000E+00  0.00000E+00  9.000E+00
      25     1     1     2     0     0 -9.562853268E+00  2.215112041E+01 -4.472760534E+02  4.650408457E+02  1.250000000E+02  0.00000E+00  9.000E+00
      25     1     1     2     0     0  3.377515428E+01 -1.437604764E+01  8.617136466E+01  1.561983863E+02  1.250000000E+02  0.00000E+00  9.000E+00
      21     1     1     2   501   511 -2.421230101E+01 -7.775072772E+00  7.174246931E+01  7.611615584E+01  1.348699152E-06  0.00000E+00  9.000E+00
#rwgt            1           1   4.9703770259835377E-002           2      479615           0
</event>
<event>
      5   9999  3.79277E-02  2.59684E+02 -1.00000E+00  1.07669E-01
      21    -1     0     0   502   501  0.000000000E+00  0.000000000E+00  3.366827477E+02  3.366827477E+02  0.000000000E+00  0.00000E+00  9.000E+00
      21    -1     0     0   501   512  0.000000000E+00  0.000000000E+00 -1.718229968E+03  1.718229968E+03  0.000000000E+00  0.00000E+00  9.000E+00
      25     1     1     2     0     0  7.925484464E+01  3.857480736E+01 -8.563265977E+01  1.752920380E+02  1.250000000E+02  0.00000E+00  9.000E+00
      25     1     1     2     0     0 -1.867499613E+02  1.978159231E+02  2.008364422E+02  3.605093120E+02  1.250000000E+02  0.00000E+00  9.000E+00
      21     1     1     2   502   512  1.074951167E+02 -2.363907305E+02 -1.496751003E+03  1.519111366E+03  2.157918644E-05  0.00000E+00  9.000E+00
#rwgt            2          11   1.3322672798914163E-003           2      479794           0
</event>
<event>
      5   9999  3.79277E-02  1.06260E+01 -1.00000E+00  1.92757E-01
      21    -1     0     0   502   511  0.000000000E+00  0.000000000E+00  7.630375964E+01  7.630375964E+01  0.000000000E+00  0.00000E+00  9.000E+00
      21    -1     0     0   501   502  0.000000000E+00  0.000000000E+00 -1.220311545E+03  1.220311545E+03  0.000000000E+00  0.00000E+00  9.000E+00
      25     1     1     2     0     0  2.328216307E+01 -6.237095858E+01 -1.129430552E+03  1.138275260E+03  1.250000000E+02  0.00000E+00  9.000E+00
      25     1     1     2     0     0 -2.307966851E+01  7.299502778E+01 -1.661803858E+01  1.475198440E+02  1.250000000E+02  0.00000E+00  9.000E+00
      21     1     1     2   501   511 -2.024945629E-01 -1.062406921E+01  2.040805450E+00  1.082020044E+01  4.616955931E-07  0.00000E+00  9.000E+00
#rwgt            1           1   4.8113221036956484E-002           2      479994           0
</event>
<event>
      5   9999  3.79277E-02  3.15295E+01 -1.00000E+00  1.51555E-01
      21    -1     0     0   502   501  0.000000000E+00  0.000000000E+00  4.172483483E+02  4.172483483E+02  0.000000000E+00  0.00000E+00  9.000E+00
      21    -1     0     0   512   502  0.000000000E+00  0.000000000E+00 -1.686853837E+02  1.686853837E+02  0.000000000E+00  0.00000E+00  9.000E+00
      25     1     1     2     0     0 -9.590662868E+01 -1.928385674E+01  3.624896301E+01  1.628156500E+02  1.250000000E+02  0.00000E+00  9.000E+00
      25     1     1     2     0     0  6.440431771E+01  1.797408664E+01  2.989852813E+02  3.308899853E+02  1.250000000E+02  0.00000E+00  9.000E+00
      21     1     1     2   512   501  3.150231097E+01  1.309770107E+00 -8.667127972E+01  9.222809671E+01  9.536743164E-07  0.00000E+00  9.000E+00
#rwgt            1           1   4.0893029642624056E-002           2      480261           0
</event>
<event>
      5   9999  3.79277E-02  7.65029E+00 -1.00000E+00  2.10241E-01
      21    -1     0     0   502   511  0.000000000E+00  0.000000000E+00  1.214987132E+03  1.214987132E+03  0.000000000E+00  0.00000E+00  9.000E+00
      21    -1     0     0   501   502  0.000000000E+00  0.000000000E+00 -5.960324214E+01  5.960324214E+01  0.000000000E+00  0.00000E+00  9.000E+00
      25     1     1     2     0     0 -3.321838770E+01  1.573420410E+02  9.389177199E+02  9.607556733E+02  1.250000000E+02  0.00000E+00  9.000E+00
      25     1     1     2     0     0  2.687487496E+01 -1.530657368E+02  1.568476557E+02  2.537273453E+02  1.250000000E+02  0.00000E+00  9.000E+00
      21     1     1     2   501   511  6.343512744E+00 -4.276304281E+00  5.961851416E+01  6.010735531E+01  1.168007728E-06  0.00000E+00  9.000E+00
#rwgt            1           1   4.6009517623994876E-002           2      480347           0
</event>
<event>
      5   9999  3.79277E-02  1.32793E+01 -1.00000E+00  1.82518E-01
      21    -1     0     0   502   501  0.000000000E+00  0.000000000E+00  1.427992432E+02  1.427992432E+02  0.000000000E+00  0.00000E+00  9.000E+00
      21    -1     0     0   512   502  0.000000000E+00  0.000000000E+00 -8.705283387E+02  8.705283387E+02  0.000000000E+00  0.00000E+00  9.000E+00
      25     1     1     2     0     0 -4.696785915E+01 -1.022377804E+02 -1.706890661E+02  2.396211610E+02  1.250000000E+02  0.00000E+00  9.000E+00
      25     1     1     2     0     0  6.024688489E+01  1.021504772E+02  3.969847629E+01  1.768201803E+02  1.250000000E+02  0.00000E+00  9.000E+00
      21     1     1     2   512   501 -1.327902575E+01  8.730318698E-02 -5.967385056E+02  5.968862406E+02  1.078959322E-05  0.00000E+00  9.000E+00
#rwgt            1           1   3.6891670637344588E-002           2      480591           0
</event>
<event>
      5   9999  3.79277E-02  5.50010E+01 -1.00000E+00  1.36754E-01
      21    -1     0     0   511   501  0.000000000E+00  0.000000000E+00  2.171001944E+02  2.171001944E+02  0.000000000E+00  0.00000E+00  9.000E+00
      21    -1     0     0   501   502  0.000000000E+00  0.000000000E+00 -4.798368409E+02  4.798368409E+02  0.000000000E+00  0.00000E+00  9.000E+00
      25     1     1     2     0     0  1.611347952E+02 -2.320285879E+01 -4.274764394E+01  2.096548495E+02  1.250000000E+02  0.00000E+00  9.000E+00
      25     1     1     2     0     0 -2.121738539E+02  2.705874167E+00 -3.012835985E+02  3.891296350E+02  1.250000000E+02  0.00000E+00  9.000E+00
      21     1     1     2   511   502  5.103905879E+01  2.049698462E+01  8.129459599E+01  9.815255084E+01  9.536743164E-07  0.00000E+00  9.000E+00
#rwgt            1           1   4.2151752944205832E-002           2      480792           0
</event>
<event>
      5   9999  3.79277E-02  3.65768E+01 -1.00000E+00  1.47292E-01
      21    -1     0     0   502   501  0.000000000E+00  0.000000000E+00  1.989384044E+02  1.989384044E+02  0.000000000E+00  0.00000E+00  9.000E+00
      21    -1     0     0   501   512  0.000000000E+00  0.000000000E+00 -1.012889082E+03  1.012889082E+03  0.000000000E+00  0.00000E+00  9.000E+00
      25     1     1     2     0     0 -1.228812477E+02 -3.405318108E+02 -6.417457179E+02  7.473448211E+02  1.250000000E+02  0.00000E+00  9.000E+00
      25     1     1     2     0     0  1.092400622E+02  3.065939208E+02 -6.957049459E+01  3.555253538E+02  1.250000000E+02  0.00000E+00  9.000E+00
      21     1     1     2   502   512  1.364118551E+01  3.393789001E+01 -1.026344649E+02  1.089573114E+02  1.907348633E-06  0.00000E+00  9.000E+00
#rwgt            1           1   3.1111923243010584E-002           2      481000           0
</event>
<event>
      5   9999  3.79277E-02  8.77880E+01 -1.00000E+00  1.26427E-01
      21    -1     0     0   502   501  0.000000000E+00  0.000000000E+00  3.946073590E+02  3.946073590E+02  0.000000000E+00  0.00000E+00  9.000E+00
      21    -1     0     0   511   502  0.000000000E+00  0.000000000E+00 -8.126586977E+02  8.126586977E+02  0.000000000E+00  0.00000E+00  9.000E+00
      25     1     1     2     0     0 -8.384039663E+01  2.529807383E+02 -1.543138091E+01  2.947738007E+02  1.250000000E+02  0.00000E+00  9.000E+00
      25     1     1     2     0     0  1.359683564E+02 -1.823449887E+02  1.847601375E+02  3.185881311E+02  1.250000000E+02  0.00000E+00  9.000E+00
      21     1     1     2   511   501 -5.212795979E+01 -7.063574958E+01 -5.873800953E+02  5.939041250E+02  7.629394531E-06  0.00000E+00  9.000E+00
#rwgt            1           1   3.9815343457208309E-002           2      481174           0
</event>
<event>
      5   9999  3.79277E-02  1.41737E+02 -1.00000E+00  1.17377E-01
      21    -1     0     0   502   501  0.000000000E+00  0.000000000E+00  4.345237533E+01  4.345237533E+01  0.000000000E+00  0.00000E+00  9.000E+00
      21    -1     0     0   501   512  0.000000000E+00  0.000000000E+00 -1.992095908E+03  1.992095908E+03  0.000000000E+00  0.00000E+00  9.000E+00
      25     1     1     2     0     0 -6.388490962E+01  8.235600552E+01 -3.229592218E+02  3.616510090E+02  1.250000000E+02  0.00000E+00  9.000E+00
      25     1     1     2     0     0  2.056025504E+02 -8.468000291E+01 -9.617993952E+02  9.950508470E+02  1.250000000E+02  0.00000E+00  9.000E+00
      21     1     1     2   502   512 -1.417176407E+02  2.323997400E+00 -6.638849161E+02  6.788464278E+02  7.629394531E-06  0.00000E+00  9.000E+00
#rwgt            2          11   1.1110061050666248E-003           2      481263           0
</event>
<event>
      5   9999  3.79277E-02  2.57946E+01 -1.00000E+00  1.57740E-01
      21    -1     0     0   502   511  0.000000000E+00  0.000000000E+00  2.553447013E+02  2.553447013E+02  0.000000000E+00  0.00000E+00  9.000E+00
      21    -1     0     0   501   502  0.000000000E+00  0.000000000E+00 -6.283303225E+02  6.283303225E+02  0.000000000E+00  0.00000E+00  9.000E+00
      25     1     1     2     0     0 -5.164389027E+01  7.130897829E+01 -5.455712288E+02  5.665907054E+02  1.250000000E+02  0.00000E+00  9.000E+00
      25     1     1     2     0     0  7.553687452E+01 -8.102950840E+01  2.695125877E+01  1.691832468E+02  1.250000000E+02  0.00000E+00  9.000E+00
      21     1     1     2   501   511 -2.389298425E+01  9.720530104E+00  1.456343489E+02  1.479010716E+02  3.303624740E-06  0.00000E+00  9.000E+00
#rwgt            1           1   4.7184068834389310E-002           2      481298           0
</event>
<event>
      5   9999  3.79277E-02  2.07974E+01 -1.00000E+00  1.64980E-01
      21    -1     0     0   502   512  0.000000000E+00  0.000000000E+00  3.654741164E+02  3.654741164E+02  0.000000000E+00  0.00000E+00  9.000E+00
      21    -1     0     0   501   502  0.000000000E+00  0.000000000E+00 -3.528251311E+02  3.528251311E+02  0.000000000E+00  0.00000E+00  9.000E+00
      25     1     1     2     0     0 -2.510170033E+01  2.108925172E+02 -2.061156881E+02  3.212700205E+02  1.250000000E+02  0.00000E+00  9.000E+00
      25     1     1     2     0     0  5.842856314E+00 -2.030420561E+02  7.248361579E+01  2.492771351E+02  1.250000000E+02  0.00000E+00  9.000E+00
      21     1     1     2   501   512  1.925884401E+01 -7.850461094E+00  1.462810577E+02  1.477520919E+02  1.907348633E-06  0.00000E+00  9.000E+00
#rwgt            1           1   3.0537110695543469E-002           2      481434           0
</event>
<event>
      5   9999  3.79277E-02  3.79866E+01 -1.00000E+00  1.46245E-01
      21    -1     0     0   502   501  0.000000000E+00  0.000000000E+00  5.028759744E+02  5.028759744E+02  0.000000000E+00  0.00000E+00  9.000E+00
      21    -1     0     0   511   502  0.000000000E+00  0.000000000E+00 -1.573800247E+02  1.573800247E+02  0.000000000E+00  0.00000E+00  9.000E+00
      25     1     1     2     0     0  4.085370362E+01  1.361719729E+02  4.406881185E+01  1.943679281E+02  1.250000000E+02  0.00000E+00  9.000E+00
      25     1     1     2     0     0 -3.606958761E+00 -1.287114292E+02  3.564213426E+02  3.990498912E+02  1.250000000E+02  0.00000E+00  9.000E+00
      21     1     1     2   511   501 -3.724674486E+01 -7.460543721E+00 -5.499420485E+01  6.683817983E+01  1.168007728E-06  0.00000E+00  9.000E+00
#rwgt            1           1   4.2017467513307032E-002           2      481608           0
</event>
<event>
      5   9999 -3.79277E-02  4.24629E+01 -1.00000E+00  1.43249E-01
      21    -1     0     0   502   501  0.000000000E+00  0.000000000E+00  2.081045747E+02  2.081045747E+02  0.000000000E+00  0.00000E+00  9.000E+00
      21    -1     0     0   512   502  0.000000000E+00  0.000000000E+00 -2.776836556E+02  2.776836556E+02  0.000000000E+00  0.00000E+00  9.000E+00
      25     1     1     2     0     0 -2.047155818E+01  1.877774842E+02  6.150073940E+00  2.265883750E+02  1.250000000E+02  0.00000E+00  9.000E+00
      25     1     1     2     0     0  3.996861028E+01 -1.500552891E+02 -3.915127811E+01  2.031548724E+02  1.250000000E+02  0.00000E+00  9.000E+00
      21     1     1     2   512   501 -1.949705211E+01 -3.772219512E+01 -3.657787672E+01  5.604498292E+01  8.259061849E-07  0.00000E+00  9.000E+00
#rwgt            1           1  -9.6988022171212135E-002           2      481797           0
</event>
<event>
      5   9999  3.79277E-02  6.68190E+01 -1.00000E+00  1.32252E-01
      21    -1     0     0   511   501  0.000000000E+00  0.000000000E+00  2.013207631E+03  2.013207631E+03  0.000000000E+00  0.00000E+00  9.000E+00
      21    -1     0     0   501   502  0.000000000E+00  0.000000000E+00 -8.129349788E+01  8.129349788E+01  0.000000000E+00  0.00000E+00  9.000E+00
      25     1     1     2     0     0 -3.947172848E+01 -1.393347842E+02  4.382735185E+02  4.782058934E+02  1.250000000E+02  0.00000E+00  9.000E+00
      25     1     1     2     0     0  1.055030804E+02  1.291052130E+02  1.188753133E+02  2.399070572E+02  1.250000000E+02  0.00000E+00  9.000E+00
      21     1     1     2   511   502 -6.603135192E+01  1.022957116E+01  1.374765301E+03  1.376388178E+03  2.642899792E-05  0.00000E+00  9.000E+00
#rwgt            1           1   2.4736524751252771E-002           2      482079           0
</event>
<event>
      5   9999  3.79277E-02  1.02046E+02 -1.00000E+00  1.23434E-01
      21    -1     0     0   502   501  0.000000000E+00  0.000000000E+00  9.726711062E+01  9.726711062E+01  0.000000000E+00  0.00000E+00  9.000E+00
      21    -1     0     0   512   502  0.000000000E+00  0.000000000E+00 -8.350316751E+02  8.350316751E+02  0.000000000E+00  0.00000E+00  9.000E+00
      25     1     1     2     0     0 -1.076914779E+02 -5.508527295E+00 -3.691115537E+02  4.043465560E+02  1.250000000E+02  0.00000E+00  9.000E+00
      25     1     1     2     0     0  1.354878918E+02 -9.267852425E+01 -7.914642181E+01  2.209874064E+02  1.250000000E+02  0.00000E+00  9.000E+00
      21     1     1     2   512   501 -2.779641397E+01  9.818705154E+01 -2.895065889E+02  3.069648233E+02  0.000000000E+00  0.00000E+00  9.000E+00
#rwgt            1           1   3.2585698277133555E-002           2      482144           0
</event>
<event>
      5   9999  3.79277E-02  1.86641E+01 -1.00000E+00  1.68885E-01
      21    -1     0     0   502   501  0.000000000E+00  0.000000000E+00  7.399259414E+01  7.399259414E+01  0.000000000E+00  0.00000E+00  9.000E+00
      21    -1     0     0   501   511  0.000000000E+00  0.000000000E+00 -6.510794032E+02  6.510794032E+02  0.000000000E+00  0.00000E+00  9.000E+00
      25     1     1     2     0     0  6.511676801E+01 -1.494718898E+02 -2.714008888E+02  3.403901905E+02  1.250000000E+02  0.00000E+00  9.000E+00
      25     1     1     2     0     0 -5.564563863E+01  1.655543924E+02 -2.782906444E+02  3.515328956E+02  1.250000000E+02  0.00000E+00  9.000E+00
      21     1     1     2   502   511 -9.471129378E+00 -1.608250251E+01 -2.739527584E+01  3.314891125E+01  4.768371582E-07  0.00000E+00  9.000E+00
#rwgt            1           1   3.8330114157250586E-002           2      482201           0
</event>
<event>
      5   9999  3.79277E-02  2.14394E+02 -1.00000E+00  1.10560E-01
      21    -1     0     0   502   501  0.000000000E+00  0.000000000E+00  6.573472089E+02  6.573472089E+02  0.000000000E+00  0.00000E+00  9.000E+00
      21    -1     0     0   501   512  0.000000000E+00  0.000000000E+00 -2.397400067E+02  2.397400067E+02  0.000000000E+00  0.00000E+00  9.000E+00
      25     1     1     2     0     0 -2.450454095E+02  3.607997377E+01  3.368478551E+02  4.363948839E+02  1.250000000E+02  0.00000E+00  9.000E+00
      25     1     1     2     0     0  8.017891462E+01 -1.731342876E+02  9.211757537E+01  2.459975357E+02  1.250000000E+02  0.00000E+00  9.000E+00
      21     1     1     2   502   512  1.648664949E+02  1.370543138E+02 -1.135822834E+01  2.146947960E+02  2.686840932E-06  0.00000E+00  9.000E+00
#rwgt            1           1   4.7147834320435712E-002           2      482255           0
</event>
<event>
      5   9999  3.79277E-02  3.05299E+01 -1.00000E+00  1.52514E-01
      21    -1     0     0   511   501  0.000000000E+00  0.000000000E+00  4.455052869E+02  4.455052869E+02  0.000000000E+00  0.00000E+00  9.000E+00
      21    -1     0     0   501   502  0.000000000E+00  0.000000000E+00 -3.813293707E+02  3.813293707E+02  0.000000000E+00  0.00000E+00  9.000E+00
      25     1     1     2     0     0  1.930456503E+02 -1.440480492E+02 -2.154488667E+02  3.464962882E+02  1.250000000E+02  0.00000E+00  9.000E+00
      25     1     1     2     0     0 -1.844863986E+02  1.147425691E+02  5.885607511E+01  2.574686893E+02  1.250000000E+02  0.00000E+00  9.000E+00
      21     1     1     2   511   502 -8.559251754E+00  2.930548010E+01  2.207687078E+02  2.228696800E+02  2.697398305E-06  0.00000E+00  9.000E+00
#rwgt            1           1   2.4609225214495711E-002           2      482357           0
</event>
<event>
      5   9999  3.79277E-02  2.58138E+01 -1.00000E+00  1.57716E-01
      21    -1     0     0   502   501  0.000000000E+00  0.000000000E+00  8.384793415E+01  8.384793415E+01  0.000000000E+00  0.00000E+00  9.000E+00
      21    -1     0     0   501   512  0.000000000E+00  0.000000000E+00 -6.970020103E+02  6.970020103E+02  0.000000000E+00  0.00000E+00  9.000E+00
      25     1     1     2     0     0  1.621673569E+02  7.315953392E+01 -3.836233838E+02  4.409563126E+02  1.250000000E+02  0.00000E+00  9.000E+00
      25     1     1     2     0     0 -1.502003126E+02 -9.603183166E+01 -1.742157565E+02  2.788518897E+02  1.250000000E+02  0.00000E+00  9.000E+00
      21     1     1     2   502   512 -1.196704430E+01  2.287229773E+01 -5.531493590E+01  6.104174216E+01  0.000000000E+00  0.00000E+00  9.000E+00
#rwgt            1           1   3.9223579052267310E-002           2      482624           0
</event>
<event>
      5   9999  3.79277E-02  8.12494E+01 -1.00000E+00  1.28025E-01
      21    -1     0     0   502   501  0.000000000E+00  0.000000000E+00  2.250766070E+02  2.250766070E+02  0.000000000E+00  0.00000E+00  9.000E+00
       2    -1     0     0   501     0  0.000000000E+00  0.000000000E+00 -7.092169909E+02  7.092169909E+02  0.000000000E+00  0.00000E+00  9.000E+00
      25     1     1     2     0     0  2.407146571E+02  1.230575839E+02 -1.238830609E+02  3.225813508E+02  1.250000000E+02  0.00000E+00  9.000E+00
      25     1     1     2     0     0 -2.132641681E+02 -4.658575233E+01 -9.564755550E+00  2.517306542E+02  1.250000000E+02  0.00000E+00  9.000E+00
       2     1     1     2   502     0 -2.745048899E+01 -7.647183159E+01 -3.506925674E+02  3.599815929E+02  0.000000000E+00  0.00000E+00  9.000E+00
#rwgt            1           1   4.4436900282466829E-002           2      482885           0
</event>
<event>
      5   9999  3.79277E-02  5.87604E+01 -1.00000E+00  1.35190E-01
      21    -1     0     0   511   501  0.000000000E+00  0.000000000E+00  1.581457173E+03  1.581457173E+03  0.000000000E+00  0.00000E+00  9.000E+00
      21    -1     0     0   501   502  0.000000000E+00  0.000000000E+00 -3.558022708E+01  3.558022708E+01  0.000000000E+00  0.00000E+00  9.000E+00
      25     1     1     2     0     0  7.611214880E+01 -8.171321820E+01  2.644698380E+02  3.131124469E+02  1.250000000E+02  0.00000E+00  9.000E+00
      25     1     1     2     0     0 -1.194262314E+02  4.200589431E+01  1.061338389E+03  1.076146503E+03  1.250000000E+02  0.00000E+00  9.000E+00
      21     1     1     2   511   502  4.331408257E+01  3.970732388E+01  2.200687194E+02  2.277784506E+02  2.697398305E-06  0.00000E+00  9.000E+00
#rwgt            1           1   3.4486587532707037E-002           2      483009           0
</event>
<event>
      5   9999  3.79277E-02  5.36271E+01 -1.00000E+00  1.37362E-01
      21    -1     0     0   502   512  0.000000000E+00  0.000000000E+00  7.752019453E+02  7.752019453E+02  0.000000000E+00  0.00000E+00  9.000E+00
      21    -1     0     0   501   502  0.000000000E+00  0.000000000E+00 -1.395810667E+03  1.395810667E+03  0.000000000E+00  0.00000E+00  9.000E+00
      25     1     1     2     0     0 -9.797355668E+02  1.255268923E+02 -4.932240073E+02  1.111095722E+03  1.250000000E+02  0.00000E+00  9.000E+00
      25     1     1     2     0     0  9.701978895E+02 -1.782990171E+02 -1.417810903E+02  1.004391040E+03  1.250000000E+02  0.00000E+00  9.000E+00
      21     1     1     2   501   512  9.537677248E+00  5.277212486E+01  1.439637549E+01  5.552585053E+01  4.129530925E-07  0.00000E+00  9.000E+00
#rwgt            1           1   3.0342057735698370E-003           2      483174           0
</event>
<event>
      5   9999  3.79277E-02  5.67167E+01 -1.00000E+00  1.36023E-01
      21    -1     0     0   502   511  0.000000000E+00  0.000000000E+00  6.052006869E+02  6.052006869E+02  0.000000000E+00  0.00000E+00  9.000E+00
      21    -1     0     0   501   502  0.000000000E+00  0.000000000E+00 -2.145746111E+02  2.145746111E+02  0.000000000E+00  0.00000E+00  9.000E+00
      25     1     1     2     0     0 -2.236185237E+02  5.667750704E-01 -4.703744092E+01  2.604670540E+02  1.250000000E+02  0.00000E+00  9.000E+00
      25     1     1     2     0     0  2.500694346E+02  4.960427691E+01  4.025142479E+02  4.925830145E+02  1.250000000E+02  0.00000E+00  9.000E+00
      21     1     1     2   501   511 -2.645091086E+01 -5.017105198E+01  3.514926884E+01  6.672522943E+01  0.000000000E+00  0.00000E+00  9.000E+00
#rwgt            1           1   3.2722608925508150E-002           2      483353           0
</event>
<event>
      5   9999  3.79277E-02  1.64322E+02 -1.00000E+00  1.14845E-01
      21    -1     0     0   502   501  0.000000000E+00  0.000000000E+00  1.635275501E+03  1.635275501E+03  0.000000000E+00  0.00000E+00  9.000E+00
      21    -1     0     0   512   502  0.000000000E+00  0.000000000E+00 -1.282055363E+02  1.282055363E+02  0.000000000E+00  0.00000E+00  9.000E+00
      25     1     1     2     0     0  2.125322395E+01 -1.706380319E+02  1.097682596E+03  1.118079209E+03  1.250000000E+02  0.00000E+00  9.000E+00
      25     1     1     2     0     0 -1.778001612E+02  1.206906942E+02  4.118447500E+02  4.810615752E+02  1.250000000E+02  0.00000E+00  9.000E+00
      21     1     1     2   512   501  1.565469372E+02  4.994733768E+01 -2.457380700E+00  1.643402532E+02  1.097842482E-06  0.00000E+00  9.000E+00
#rwgt            2          11   5.4176687403960401E-003           2      483479           0
</event>
<event>
      5   9999  3.79277E-02  3.05915E+01 -1.00000E+00  1.52453E-01
      21    -1     0     0   502   511  0.000000000E+00  0.000000000E+00  1.279461545E+02  1.279461545E+02  0.000000000E+00  0.00000E+00  9.000E+00
      21    -1     0     0   501   502  0.000000000E+00  0.000000000E+00 -7.582336238E+02  7.582336238E+02  0.000000000E+00  0.00000E+00  9.000E+00
      25     1     1     2     0     0  6.577020854E+01  1.072946317E+02 -5.584928757E+02  5.859839166E+02  1.250000000E+02  0.00000E+00  9.000E+00
      25     1     1     2     0     0 -4.873976940E+01 -1.327073018E+02 -1.336122898E+02  2.312229163E+02  1.250000000E+02  0.00000E+00  9.000E+00
      21     1     1     2   501   511 -1.703043914E+01  2.541267004E+01  6.181769607E+01  6.897294544E+01  6.743495762E-07  0.00000E+00  9.000E+00
#rwgt            1           1   4.6374394361988480E-002           2      483739           0
</event>
<event>
      5   9999  3.79277E-02  1.91663E+01 -1.00000E+00  1.67909E-01
      21    -1     0     0   502   501  0.000000000E+00  0.000000000E+00  5.051261403E+02  5.051261403E+02  0.000000000E+00  0.00000E+00  9.000E+00
      21    -1     0     0   512   502  0.000000000E+00  0.000000000E+00 -1.511027441E+02  1.511027441E+02  0.000000000E+00  0.00000E+00  9.000E+00
      25     1     1     2     0     0  1.791431140E+02  3.089312031E+01  3.506985310E+02  4.143200451E+02  1.250000000E+02  0.00000E+00  9.000E+00
      25     1     1     2     0     0 -1.605641505E+02 -3.560161866E+01  3.033373501E+01  2.087904623E+02  1.250000000E+02  0.00000E+00  9.000E+00
      21     1     1     2   512   501 -1.857896352E+01  4.708498353E+00 -2.700886976E+01  3.311837690E+01  0.000000000E+00  0.00000E+00  9.000E+00
#rwgt            1           1   4.4931375696791891E-002           2      483879           0
</event>
<event>
      5   9999  3.79277E-02  1.48029E+02  7.55638E-03  1.16622E-01
       1    -1     0     0   501     0  0.000000000E+00  0.000000000E+00  1.873451038E+03  1.873451038E+03  0.000000000E+00  0.00000E+00  9.000E+00
      -1    -1     0     0     0   502  0.000000000E+00  0.000000000E+00 -3.086858922E+01  3.086858922E+01  0.000000000E+00  0.00000E+00  9.000E+00
      25     1     1     2     0     0 -2.120900103E+01 -1.133146194E+01  6.391556020E+02  6.517078389E+02  1.250000000E+02  0.00000E+00  9.000E+00
      25     1     1     2     0     0 -3.722849536E+01 -1.246749718E+02  8.586157597E+02  8.773686980E+02  1.250000000E+02  0.00000E+00  9.000E+00
      21     1     1     2   501   502  5.843749639E+01  1.360064338E+02  3.448110868E+02  3.752430900E+02  7.629394531E-06  0.00000E+00  9.000E+00
#rwgt            3           6   4.1920343901620570E-003           2      484173           0
</event>
<event>
      5   9999  3.79277E-02  1.04571E+02 -1.00000E+00  1.22961E-01
      21    -1     0     0   502   501  0.000000000E+00  0.000000000E+00  8.045999910E+01  8.045999910E+01  0.000000000E+00  0.00000E+00  9.000E+00
      21    -1     0     0   511   502  0.000000000E+00  0.000000000E+00 -7.468090598E+02  7.468090598E+02  0.000000000E+00  0.00000E+00  9.000E+00
      25     1     1     2     0     0  6.747661426E+01  6.253037764E+01 -1.605235483E+02  2.232844625E+02  1.250000000E+02  0.00000E+00  9.000E+00
      25     1     1     2     0     0 -7.751867573E+01 -1.666183991E+02 -3.028013301E+02  3.756121424E+02  1.250000000E+02  0.00000E+00  9.000E+00
      21     1     1     2   511   501  1.004206146E+01  1.040880214E+02 -2.030241823E+02  2.283724541E+02  0.000000000E+00  0.00000E+00  9.000E+00
#rwgt            1           1   4.8845567774541174E-002           2      484192           0
</event>
<event>
      5   9999  3.79277E-02  2.45218E+01 -1.00000E+00  1.59382E-01
      21    -1     0     0   502   501  0.000000000E+00  0.000000000E+00  1.172422452E+02  1.172422452E+02  0.000000000E+00  0.00000E+00  9.000E+00
      21    -1     0     0   512   502  0.000000000E+00  0.000000000E+00 -5.403346264E+02  5.403346264E+02  0.000000000E+00  0.00000E+00  9.000E+00
      25     1     1     2     0     0  6.904565631E+01 -3.715760084E+01 -2.889930455E+02  3.244841603E+02  1.250000000E+02  0.00000E+00  9.000E+00
      25     1     1     2     0     0 -5.546020058E+01  1.674300435E+01  5.060175668E+01  1.467709093E+02  1.250000000E+02  0.00000E+00  9.000E+00
      21     1     1     2   512   501 -1.358545573E+01  2.041459649E+01 -1.847010924E+02  1.863218020E+02  2.697398305E-06  0.00000E+00  9.000E+00
#rwgt            1           1   4.8750198192721118E-002           2      484315           0
</event>
<event>
      5   9999  3.79277E-02  5.01919E+01 -1.00000E+00  1.38981E-01
      21    -1     0     0   502   501  0.000000000E+00  0.000000000E+00  7.902346181E+02  7.902346181E+02  0.000000000E+00  0.00000E+00  9.000E+00
       2    -1     0     0   501     0  0.000000000E+00  0.000000000E+00 -3.218845626E+02  3.218845626E+02  0.000000000E+00  0.00000E+00  9.000E+00
      25     1     1     2     0     0  1.161841084E+02  1.095891539E+02  3.285787999E+02  3.861315286E+02  1.250000000E+02  0.00000E+00  9.000E+00
      25     1     1     2     0     0 -9.168102014E+01 -1.533934989E+02  4.028886420E+02  4.581257827E+02  1.250000000E+02  0.00000E+00  9.000E+00
       2     1     1     2   502     0 -2.450308828E+01  4.380434498E+01 -2.631173864E+02  2.678618693E+02  3.814697266E-06  0.00000E+00  9.000E+00
#rwgt            1           1  0.17345325567374734                2      484480           0
</event>
<event>
      5   9999  3.79277E-02  1.52232E+02 -1.00000E+00  1.16140E-01
      21    -1     0     0   511   501  0.000000000E+00  0.000000000E+00  5.838374990E+02  5.838374990E+02  0.000000000E+00  0.00000E+00  9.000E+00
      21    -1     0     0   501   502  0.000000000E+00  0.000000000E+00 -1.916706963E+02  1.916706963E+02  0.000000000E+00  0.00000E+00  9.000E+00
      25     1     1     2     0     0 -7.684202292E+01  1.501778112E+02 -5.503836619E+01  2.170536643E+02  1.250000000E+02  0.00000E+00  9.000E+00
      25     1     1     2     0     0 -6.713339899E+01 -1.007251125E+02  1.763054578E+02  2.477116388E+02  1.250000000E+02  0.00000E+00  9.000E+00
      21     1     1     2   511   502  1.439754219E+02 -4.945269863E+01  2.708997111E+02  3.107428921E+02  5.394796609E-06  0.00000E+00  9.000E+00
#rwgt            1           1   4.6355595133895040E-002           2      484569           0
</event>
<event>
      5   9999  3.79277E-02  1.29711E+01 -1.00000E+00  1.83543E-01
      21    -1     0     0   512   501  0.000000000E+00  0.000000000E+00  1.222378877E+02  1.222378877E+02  0.000000000E+00  0.00000E+00  9.000E+00
      21    -1     0     0   501   502  0.000000000E+00  0.000000000E+00 -6.912446352E+02  6.912446352E+02  0.000000000E+00  0.00000E+00  9.000E+00
      25     1     1     2     0     0  2.015679715E+01 -1.478989215E+02 -4.193203059E+02  4.623147266E+02  1.250000000E+02  0.00000E+00  9.000E+00
      25     1     1     2     0     0 -3.233449514E+01  1.434319840E+02 -2.124859281E+02  2.870427203E+02  1.250000000E+02  0.00000E+00  9.000E+00
      21     1     1     2   512   502  1.217769799E+01  4.466937519E+00  6.279948662E+01  6.412507605E+01  2.336015456E-06  0.00000E+00  9.000E+00
#rwgt            1           1   4.2157893915056699E-002           2      484693           0
</event>
<event>
      5   9999  3.79277E-02  1.62907E+01 -1.00000E+00  1.74072E-01
      21    -1     0     0   502   501  0.000000000E+00  0.000000000E+00  2.175752770E+02  2.175752770E+02  0.000000000E+00  0.00000E+00  9.000E+00
       2    -1     0     0   501     0  0.000000000E+00  0.000000000E+00 -5.787386721E+02  5.787386721E+02  0.000000000E+00  0.00000E+00  9.000E+00
      25     1     1     2     0     0  4.655268222E-01  1.169844820E+02  7.312109442E+01  1.861646588E+02  1.250000000E+02  0.00000E+00  9.000E+00
      25     1     1     2     0     0  1.296473823E+00 -1.331796020E+02 -7.246240152E+00  1.828004246E+02  1.250000000E+02  0.00000E+00  9.000E+00
       2     1     1     2   502     0 -1.762000645E+00  1.619511995E+01 -4.270382494E+02  4.273488657E+02  9.344061824E-06  0.00000E+00  9.000E+00
#rwgt            1           1   2.4249431930032976E-002           2      484905           0
</event>
<event>
      5   9999 -3.79277E-02  3.30041E+01 -1.00000E+00  1.50216E-01
      21    -1     0     0   502   501  0.000000000E+00  0.000000000E+00  1.173592843E+02  1.173592843E+02  0.000000000E+00  0.00000E+00  9.000E+00
      21    -1     0     0   501   511  0.000000000E+00  0.000000000E+00 -4.241083190E+02  4.241083190E+02  0.000000000E+00  0.00000E+00  9.000E+00
      25     1     1     2     0     0 -1.320447414E+02 -2.134679770E+01 -1.383284359E+01  1.835969691E+02  1.250000000E+02  0.00000E+00  9.000E+00
      25     1     1     2     0     0  1.092406102E+02  4.520557309E+01 -2.548263412E+02  3.074711676E+02  1.250000000E+02  0.00000E+00  9.000E+00
      21     1     1     2   502   511  2.280413112E+01 -2.385877539E+01 -3.808985002E+01  5.039946660E+01  8.259061849E-07  0.00000E+00  9.000E+00
#rwgt            1           1 -0.25746555183955683                2      485258           0
</event>
<event>
      5   9999  3.79277E-02  2.36783E+01 -1.00000E+00  1.60538E-01
      21    -1     0     0   512   501  0.000000000E+00  0.000000000E+00  2.695261602E+02  2.695261602E+02  0.000000000E+00  0.00000E+00  9.000E+00
      21    -1     0     0   501   502  0.000000000E+00  0.000000000E+00 -6.053418533E+02  6.053418533E+02  0.000000000E+00  0.00000E+00  9.000E+00
      25     1     1     2     0     0  5.921375775E+01 -2.321320920E+02  9.690397050E+01  2.870661191E+02  1.250000000E+02  0.00000E+00  9.000E+00
      25     1     1     2     0     0 -8.233873487E+01  2.372211410E+02 -4.678169122E+02  5.454642063E+02  1.250000000E+02  0.00000E+00  9.000E+00
      21     1     1     2   512   502  2.312497713E+01 -5.089049054E+00  3.509724856E+01  4.233768822E+01  4.768371582E-07  0.00000E+00  9.000E+00
#rwgt            1           1   5.4434315170746872E-002           2      485359           0
</event>
<event>
      5   9999 -3.79277E-02  1.79411E+02 -1.00000E+00  1.13393E-01
      21    -1     0     0   502   501  0.000000000E+00  0.000000000E+00  8.598454118E+01  8.598454118E+01  0.000000000E+00  0.00000E+00  9.000E+00
       2    -1     0     0   501     0  0.000000000E+00  0.000000000E+00 -3.446701696E+03  3.446701696E+03  0.000000000E+00  0.00000E+00  9.000E+00
      25     1     1     2     0     0  1.303329909E+02 -9.526842811E+01 -1.866005026E+02  2.765999087E+02  1.250000000E+02  0.00000E+00  9.000E+00
      25     1     1     2     0     0  3.232420558E+00  2.150543446E+02 -3.677247492E+02  4.439654388E+02  1.250000000E+02  0.00000E+00  9.000E+00
       2     1     1     2   502     0 -1.335654115E+02 -1.197859165E+02 -2.806391903E+03  2.812120890E+03  0.000000000E+00  0.00000E+00  9.000E+00
#rwgt            1           1 -0.11719408501827201                2      485610           0
</event>
<event>
      5   9999  3.79277E-02  8.51055E+01 -1.00000E+00  1.27062E-01
      21    -1     0     0   502   501  0.000000000E+00  0.000000000E+00  8.875048692E+02  8.875048692E+02  0.000000000E+00  0.00000E+00  9.000E+00
       1    -1     0     0   501     0  0.000000000E+00  0.000000000E+00 -1.165567618E+02  1.165567618E+02  0.000000000E+00  0.00000E+00  9.000E+00
      25     1     1     2     0     0 -1.315325484E+01 -1.330020149E+01  2.740791538E+01  1.293294139E+02  1.250000000E+02  0.00000E+00  9.000E+00
      25     1     1     2     0     0 -3.806332444E+01  8.126940363E+01  7.702995664E+02  7.855189079E+02  1.250000000E+02  0.00000E+00  9.000E+00
       1     1     1     2   502     0  5.121657928E+01 -6.796920214E+01 -2.675937432E+01  8.921330925E+01  1.966049969E-06  0.00000E+00  9.000E+00
#rwgt            1           1   4.2781528053150678E-002           2      485642           0
</event>
<event>
      5   9999  3.79277E-02  1.50916E+01 -1.00000E+00  1.77135E-01
      21    -1     0     0   511   501  0.000000000E+00  0.000000000E+00  1.217124940E+03  1.217124940E+03  0.000000000E+00  0.00000E+00  9.000E+00
      21    -1     0     0   501   502  0.000000000E+00  0.000000000E+00 -3.173631355E+01  3.173631355E+01  0.000000000E+00  0.00000E+00  9.000E+00
      25     1     1     2     0     0  2.598595470E+01  1.250380568E+02  5.386129572E+02  5.674845400E+02  1.250000000E+02  0.00000E+00  9.000E+00
      25     1     1     2     0     0 -1.326195386E+01 -1.331532231E+02  4.771339508E+02  5.110650323E+02  1.250000000E+02  0.00000E+00  9.000E+00
      21     1     1     2   511   502 -1.272400084E+01  8.115166240E+00  1.696417189E+02  1.703116816E+02  1.907348633E-06  0.00000E+00  9.000E+00
#rwgt            1           1   3.2011741737216333E-002           2      485746           0
</event>
<event>
      5   9999  3.79277E-02  5.63210E+01 -1.00000E+00  1.36189E-01
      21    -1     0     0   512   501  0.000000000E+00  0.000000000E+00  3.943735516E+02  3.943735516E+02  0.000000000E+00  0.00000E+00  9.000E+00
      21    -1     0     0   501   502  0.000000000E+00  0.000000000E+00 -4.383324640E+02  4.383324640E+02  0.000000000E+00  0.00000E+00  9.000E+00
      25     1     1     2     0     0 -6.501645073E+01  1.847201669E+01  1.310128079E+02  1.932814272E+02  1.250000000E+02  0.00000E+00  9.000E+00
      25     1     1     2     0     0  1.137402903E+02 -4.672156379E+01 -3.844283488E+02  4.225280032E+02  1.250000000E+02  0.00000E+00  9.000E+00
      21     1     1     2   512   502 -4.872383962E+01  2.824954710E+01  2.094566284E+02  2.168965852E+02  0.000000000E+00  0.00000E+00  9.000E+00
#rwgt            1           1   4.5919072324827115E-002           2      485993           0
</event>
<event>
      5   9999  3.79277E-02  4.23448E+01 -1.00000E+00  1.43322E-01
      21    -1     0     0   502   511  0.000000000E+00  0.000000000E+00  9.760338819E+02  9.760338819E+02  0.000000000E+00  0.00000E+00  9.000E+00
      21    -1     0     0   501   502  0.000000000E+00  0.000000000E+00 -1.565821936E+02  1.565821936E+02  0.000000000E+00  0.00000E+00  9.000E+00
      25     1     1     2     0     0 -1.815837746E+02 -5.547422450E+00  8.344069216E+02  8.630546633E+02  1.250000000E+02  0.00000E+00  9.000E+00
      25     1     1     2     0     0  1.437841225E+02 -1.353839542E+01 -6.704793507E+01  2.024292163E+02  1.250000000E+02  0.00000E+00  9.000E+00
      21     1     1     2   501   511  3.779965216E+01  1.908581788E+01  5.209270173E+01  6.713219586E+01  0.000000000E+00  0.00000E+00  9.000E+00
#rwgt            1           1   4.0638968695532587E-002           2      486110           0
</event>
<event>
      5   9999  3.79277E-02  1.05787E+02 -1.00000E+00  1.22739E-01
       2    -1     0     0   502     0  0.000000000E+00  0.000000000E+00  1.101618766E+03  1.101618766E+03  0.000000000E+00  0.00000E+00  9.000E+00
      21    -1     0     0   501   502  0.000000000E+00  0.000000000E+00 -2.767739982E+02  2.767739982E+02  0.000000000E+00  0.00000E+00  9.000E+00
      25     1     1     2     0     0  5.961470275E+01  1.289924708E+02  6.271955611E+01  1.993783164E+02  1.250000000E+02  0.00000E+00  9.000E+00
      25     1     1     2     0     0 -1.353520485E+02 -5.513660155E+01 -1.604105981E+02  2.504331884E+02  1.250000000E+02  0.00000E+00  9.000E+00
       2     1     1     2   501     0  7.573734575E+01 -7.385586927E+01  9.225358098E+02  9.285812594E+02  1.868812365E-05  0.00000E+00  9.000E+00
#rwgt            1           1   4.3234664333217390E-002           2      486258           0
</event>
<event>
      5   9999  3.79277E-02  4.29716E+01 -1.00000E+00  1.42936E-01
      21    -1     0     0   502   511  0.000000000E+00  0.000000000E+00  3.039166935E+03  3.039166935E+03  0.000000000E+00  0.00000E+00  9.000E+00
      21    -1     0     0   501   502  0.000000000E+00  0.000000000E+00 -1.811991122E+01  1.811991122E+01  0.000000000E+00  0.00000E+00  9.000E+00
      25     1     1     2     0     0  7.585755565E+01 -7.285930355E+01  1.997640964E+03  2.004309673E+03  1.250000000E+02  0.00000E+00  9.000E+00
      25     1     1     2     0     0 -9.306049979E+01  3.348138829E+01  4.398312560E+02  4.678223955E+02  1.250000000E+02  0.00000E+00  9.000E+00
      21     1     1     2   501   511  1.720294414E+01  3.937791526E+01  5.835748042E+02  5.851547775E+02  1.078959322E-05  0.00000E+00  9.000E+00
#rwgt            1           1   8.1723263139525590E-002           2      486316           0
</event>
<event>
      5   9999  3.79277E-02  3.94765E+01 -1.00000E+00  1.45196E-01
      21    -1     0     0   502   501  0.000000000E+00  0.000000000E+00  1.875573060E+02  1.875573060E+02  0.000000000E+00  0.00000E+00  9.000E+00
      21    -1     0     0   512   502  0.000000000E+00  0.000000000E+00 -5.595700907E+02  5.595700907E+02  0.000000000E+00  0.00000E+00  9.000E+00
      25     1     1     2     0     0 -2.096960515E+02 -9.318144248E+01 -1.920200008E+01  2.620094121E+02  1.250000000E+02  0.00000E+00  9.000E+00
      25     1     1     2     0     0  2.491482444E+02  9.179706178E+01 -3.095966509E+02  4.265871945E+02  1.250000000E+02  0.00000E+00  9.000E+00
      21     1     1     2   512   501 -3.945219287E+01  1.384380701E+00 -4.321413375E+01  5.853079008E+01  1.066240300E-06  0.00000E+00  9.000E+00
#rwgt            1           1   4.4254770693288391E-002           2      486432           0
</event>
<event>
      5   9999  3.79277E-02  2.56140E+01 -1.00000E+00  1.57966E-01
      -2    -1     0     0     0   501  0.000000000E+00  0.000000000E+00  7.382617699E+02  7.382617699E+02  0.000000000E+00  0.00000E+00  9.000E+00
      21    -1     0     0   501   502  0.000000000E+00  0.000000000E+00 -7.114952236E+02  7.114952236E+02  0.000000000E+00  0.00000E+00  9.000E+00
      25     1     1     2     0     0 -7.391583565E+01 -7.764413337E+01 -5.607503703E+02  5.844297562E+02  1.250000000E+02  0.00000E+00  9.000E+00
      25     1     1     2     0     0  7.572398137E+01  5.209398963E+01 -9.526383639E+01  1.820662067E+02  1.250000000E+02  0.00000E+00  9.000E+00
      -2     1     1     2     0   502 -1.808145718E+00  2.555014374E+01  6.827807530E+02  6.832610306E+02  1.078959322E-05  0.00000E+00  9.000E+00
#rwgt            1           1   4.2005525539303916E-002           2      486599           0
</event>
<event>
      5   9999  3.79277E-02  1.95869E+02 -1.00000E+00  1.11979E-01
      21    -1     0     0   502   501  0.000000000E+00  0.000000000E+00  2.862933860E+03  2.862933860E+03  0.000000000E+00  0.00000E+00  9.000E+00
      21    -1     0     0   511   502  0.000000000E+00  0.000000000E+00 -5.548517323E+01  5.548517323E+01  0.000000000E+00  0.00000E+00  9.000E+00
      25     1     1     2     0     0 -9.071694349E+01 -2.072926692E+02  2.054522034E+03  2.070721034E+03  1.250000000E+02  0.00000E+00  9.000E+00
      25     1     1     2     0     0 -7.192165170E+01  9.814493574E+01  2.256440990E+02  2.852111706E+02  1.250000000E+02  0.00000E+00  9.000E+00
      21     1     1     2   511   501  1.626385952E+02  1.091477335E+02  5.272825539E+02  5.624868283E+02  7.629394531E-06  0.00000E+00  9.000E+00
#rwgt            1           1  0.13736374012189831                2      486718           0
</event>
<event>
      5   9999  3.79277E-02  2.06351E+01 -1.00000E+00  1.65257E-01
      21    -1     0     0   502   501  0.000000000E+00  0.000000000E+00  9.904718349E+00  9.904718349E+00  0.000000000E+00  0.00000E+00  9.000E+00
       3    -1     0     0   501     0  0.000000000E+00  0.000000000E+00 -3.620228753E+03  3.620228753E+03  0.000000000E+00  0.00000E+00  9.000E+00
      25     1     1     2     0     0  3.424101290E+01 -9.743941141E+01 -1.226729407E+03  1.237399258E+03  1.250000000E+02  0.00000E+00  9.000E+00
      25     1     1     2     0     0 -1.436671991E+01  1.029907893E+02 -1.480198890E+03  1.489102837E+03  1.250000000E+02  0.00000E+00  9.000E+00
       3     1     1     2   502     0 -1.987429300E+01 -5.551377908E+00 -9.033957379E+02  9.036313765E+02  1.525878906E-05  0.00000E+00  9.000E+00
#rwgt            1           1   2.7202631266136597E-002           2      486800           0
</event>
<event>
      5   9999  3.79277E-02  5.22333E+01 -1.00000E+00  1.38001E-01
      21    -1     0     0   502   501  0.000000000E+00  0.000000000E+00  5.367402313E+02  5.367402313E+02  0.000000000E+00  0.00000E+00  9.000E+00
      21    -1     0     0   511   502  0.000000000E+00  0.000000000E+00 -1.524564473E+02  1.524564473E+02  0.000000000E+00  0.00000E+00  9.000E+00
      25     1     1     2     0     0  9.133802327E+01 -5.617870676E+01 -5.306989993E+01  1.730320660E+02  1.250000000E+02  0.00000E+00  9.000E+00
      25     1     1     2     0     0 -1.327728377E+02  8.798243260E+01  4.098466875E+02  4.571310995E+02  1.250000000E+02  0.00000E+00  9.000E+00
      21     1     1     2   511   501  4.143481441E+01 -3.180372584E+01  2.750699644E+01  5.903351316E+01  7.539457465E-07  0.00000E+00  9.000E+00
#rwgt            1           1   4.5637696454610042E-002           2      487007           0
</event>
<event>
      5   9999  3.79277E-02  2.40261E+02 -1.00000E+00  1.08823E-01
      21    -1     0     0   502   501  0.000000000E+00  0.000000000E+00  3.360359042E+02  3.360359042E+02  0.000000000E+00  0.00000E+00  9.000E+00
      21    -1     0     0   512   502  0.000000000E+00  0.000000000E+00 -6.998651067E+02  6.998651067E+02  0.000000000E+00  0.00000E+00  9.000E+00
      25     1     1     2     0     0 -8.698255420E+01  2.893353290E+02  7.500306676E+01  3.354569382E+02  1.250000000E+02  0.00000E+00  9.000E+00
      25     1     1     2     0     0  6.606447076E+01 -4.998679985E+01  4.808105839E+01  1.574801023E+02  1.250000000E+02  0.00000E+00  9.000E+00
      21     1     1     2   512   501  2.091808344E+01 -2.393485291E+02 -4.869133276E+02  5.429639705E+02  5.394796609E-06  0.00000E+00  9.000E+00
#rwgt            1           1  0.18346889215648021                2      487207           0
</event>
<event>
      5   9999  3.79277E-02  6.20176E+01 -1.00000E+00  1.33940E-01
      21    -1     0     0   502   501  0.000000000E+00  0.000000000E+00  3.889037899E+02  3.889037899E+02  0.000000000E+00  0.00000E+00  9.000E+00
      21    -1     0     0   511   502  0.000000000E+00  0.000000000E+00 -1.814174386E+02  1.814174386E+02  0.000000000E+00  0.00000E+00  9.000E+00
      25     1     1     2     0     0 -1.856011257E+02  7.892123836E+01  5.389503322E+01  2.433228603E+02  1.250000000E+02  0.00000E+00  9.000E+00
      25     1     1     2     0     0  1.419775782E+02 -1.230026652E+02  1.315216864E+02  2.611709064E+02  1.250000000E+02  0.00000E+00  9.000E+00
      21     1     1     2   511   501  4.362354755E+01  4.408142684E+01  2.206963173E+01  6.582746188E+01  1.261592536E-06  0.00000E+00  9.000E+00
#rwgt            1           1   3.1954639707189189E-002           2      487354           0
</event>
<event>
      5   9999  3.79277E-02  2.06383E+01 -1.00000E+00  1.65251E-01
      21    -1     0     0   502   501  0.000000000E+00  0.000000000E+00  3.611019663E+01  3.611019663E+01  0.000000000E+00  0.00000E+00  9.000E+00
      21    -1     0     0   512   502  0.000000000E+00  0.000000000E+00 -1.542910515E+03  1.542910515E+03  0.000000000E+00  0.00000E+00  9.000E+00
      25     1     1     2     0     0  1.375676090E+02  5.611073029E+01 -1.003884653E+03  1.022488463E+03  1.250000000E+02  0.00000E+00  9.000E+00
      25     1     1     2     0     0 -1.581289165E+02 -5.432925578E+01 -3.961528087E+02  4.477928875E+02  1.250000000E+02  0.00000E+00  9.000E+00
      21     1     1     2   512   501  2.056130759E+01 -1.781474506E+00 -1.067628576E+02  1.087393617E+02  1.907348633E-06  0.00000E+00  9.000E+00
#rwgt            1           1  0.21266111626701867                2      487527           0
</event>
<event>
      5   9999  3.79277E-02  5.75787E+01 -1.00000E+00  1.35666E-01
      21    -1     0     0   502   501  0.000000000E+00  0.000000000E+00  1.819759781E+02  1.819759781E+02  0.000000000E+00  0.00000E+00  9.000E+00
       2    -1     0     0   501     0  0.000000000E+00  0.000000000E+00 -4.616772906E+03  4.616772906E+03  0.000000000E+00  0.00000E+00  9.000E+00
      25     1     1     2     0     0  3.295214016E+00 -7.853265186E+01  1.199644163E+02  1.902490395E+02  1.250000000E+02  0.00000E+00  9.000E+00
      25     1     1     2     0     0 -2.201832449E+01  1.329822254E+02 -2.900466262E+02  3.433964535E+02  1.250000000E+02  0.00000E+00  9.000E+00
       2     1     1     2   502     0  1.872311048E+01 -5.444957356E+01 -4.264714718E+03  4.265103391E+03  6.103515625E-05  0.00000E+00  9.000E+00
#rwgt            1           1   3.0585807254854772E-002           2      487759           0
</event>
<event>
      5   9999  3.79277E-02  1.66064E+02 -1.00000E+00  1.14669E-01
      21    -1     0     0   502   501  0.000000000E+00  0.000000000E+00  4.538184371E+02  4.538184371E+02  0.000000000E+00  0.00000E+00  9.000E+00
      21    -1     0     0   501   511  0.000000000E+00  0.000000000E+00 -2.239611185E+02  2.239611185E+02  0.000000000E+00  0.00000E+00  9.000E+00
      25     1     1     2     0     0  1.183379176E+01  1.194788988E+02 -9.688092640E+01  1.985602170E+02  1.250000000E+02  0.00000E+00  9.000E+00
      25     1     1     2     0     0  4.917355550E+01  3.497261121E+01  2.702498136E+02  3.038109343E+02  1.250000000E+02  0.00000E+00  9.000E+00
      21     1     1     2   502   511 -6.100734726E+01 -1.544515100E+02  5.648843144E+01  1.754084042E+02  1.907348633E-06  0.00000E+00  9.000E+00
#rwgt            1           1   4.9522858171024746E-002           2      487884           0
</event>
<event>
      5   9999  3.79277E-02  3.62146E+01 -1.00000E+00  1.47570E-01
      21    -1     0     0   512   501  0.000000000E+00  0.000000000E+00  2.694221723E+02  2.694221723E+02  0.000000000E+00  0.00000E+00  9.000E+00
      21    -1     0     0   501   502  0.000000000E+00  0.000000000E+00 -1.736088378E+02  1.736088378E+02  0.000000000E+00  0.00000E+00  9.000E+00
      25     1     1     2     0     0 -1.129406582E+02  8.071604680E+01 -4.487546420E+01  1.921184004E+02  1.250000000E+02  0.00000E+00  9.000E+00
      25     1     1     2     0     0  7.872318525E+01 -6.885603368E+01  8.325874627E+01  1.830177918E+02  1.250000000E+02  0.00000E+00  9.000E+00
      21     1     1     2   512   502  3.421747299E+01 -1.186001312E+01  5.743005248E+01  6.789481790E+01  1.348699152E-06  0.00000E+00  9.000E+00
#rwgt            1           1   3.6806241113952545E-002           2      487994           0
</event>
<event>
      5   9999  3.79277E-02  4.84707E+01 -1.00000E+00  1.39850E-01
      21    -1     0     0   502   501  0.000000000E+00  0.000000000E+00  9.348740099E+01  9.348740099E+01  0.000000000E+00  0.00000E+00  9.000E+00
      21    -1     0     0   511   502  0.000000000E+00  0.000000000E+00 -9.282531614E+02  9.282531614E+02  0.000000000E+00  0.00000E+00  9.000E+00
      25     1     1     2     0     0 -7.355909452E+01 -7.806459579E+01 -2.205674640E+02  2.752817242E+02  1.250000000E+02  0.00000E+00  9.000E+00
      25     1     1     2     0     0  1.166303610E+02  5.583239597E+01 -5.918795438E+01  1.893359752E+02  1.250000000E+02  0.00000E+00  9.000E+00
      21     1     1     2   511   501 -4.307126653E+01  2.223219982E+01 -5.550103421E+02  5.571228631E+02  0.000000000E+00  0.00000E+00  9.000E+00
#rwgt            1           1   3.3584807652417913E-002           2      488161           0
</event>
<event>
      5   9999  3.79277E-02  2.43377E+01 -1.00000E+00  1.59629E-01
       2    -1     0     0   502     0  0.000000000E+00  0.000000000E+00  9.121924830E+01  9.121924830E+01  0.000000000E+00  0.00000E+00  9.000E+00
      21    -1     0     0   501   502  0.000000000E+00  0.000000000E+00 -4.194165348E+02  4.194165348E+02  0.000000000E+00  0.00000E+00  9.000E+00
      25     1     1     2     0     0  1.900644591E+01 -5.396811364E+01 -3.256663906E+02  3.534931403E+02  1.250000000E+02  0.00000E+00  9.000E+00
      25     1     1     2     0     0  9.802746722E-01  4.008085499E+01  5.849080352E+00  1.314026165E+02  1.250000000E+02  0.00000E+00  9.000E+00
       2     1     1     2   501     0 -1.998672058E+01  1.388725865E+01 -8.379976240E+00  2.574002631E+01  5.717076687E-07  0.00000E+00  9.000E+00
#rwgt            1           1   3.6297245389487497E-002           2      488399           0
</event>
<event>
      5   9999  3.79277E-02  4.34615E+01 -1.00000E+00  1.42640E-01
      21    -1     0     0   511   501  0.000000000E+00  0.000000000E+00  3.505184735E+02  3.505184735E+02  0.000000000E+00  0.00000E+00  9.000E+00
      21    -1     0     0   501   502  0.000000000E+00  0.000000000E+00 -1.550004746E+02  1.550004746E+02  0.000000000E+00  0.00000E+00  9.000E+00
      25     1     1     2     0     0  8.375391497E+00  6.636521795E+01  1.357731221E+02  1.963003566E+02  1.250000000E+02  0.00000E+00  9.000E+00
      25     1     1     2     0     0  3.021920409E+01 -8.634924593E+01 -7.176153303E+01  1.707164614E+02  1.250000000E+02  0.00000E+00  9.000E+00
      21     1     1     2   511   502 -3.859459558E+01  1.998402798E+01  1.315064099E+02  1.385021300E+02  1.907348633E-06  0.00000E+00  9.000E+00
#rwgt            1           1   2.6927006243720245E-002           2      488500           0
</event>
<event>
      5   9999  3.79277E-02  2.17237E+01 -1.00000E+00  1.63460E-01
      21    -1     0     0   512   501  0.000000000E+00  0.000000000E+00  7.562379405E+01  7.562379405E+01  0.000000000E+00  0.00000E+00  9.000E+00
      21    -1     0     0   501   502  0.000000000E+00  0.000000000E+00 -9.893030713E+02  9.893030713E+02  0.000000000E+00  0.00000E+00  9.000E+00
      25     1     1     2     0     0 -2.789371503E+01  1.260365526E+02 -4.642102854E+02  4.977745082E+02  1.250000000E+02  0.00000E+00  9.000E+00
      25     1     1     2     0     0  4.043620050E+01 -1.437737009E+02 -4.866028114E+02  5.241309563E+02  1.250000000E+02  0.00000E+00  9.000E+00
      21     1     1     2   512   502 -1.254248546E+01  1.773714827E+01  3.713381954E+01  4.302140077E+01  1.066240300E-06  0.00000E+00  9.000E+00
#rwgt            1           1   3.8955092262347217E-002           2      488842           0
</event>
<event>
      5   9999  3.79277E-02  2.29615E+01 -1.00000E+00  1.61568E-01
      21    -1     0     0   502   501  0.000000000E+00  0.000000000E+00  3.053966654E+02  3.053966654E+02  0.000000000E+00  0.00000E+00  9.000E+00
      21    -1     0     0   511   502  0.000000000E+00  0.000000000E+00 -2.485324388E+02  2.485324388E+02  0.000000000E+00  0.00000E+00  9.000E+00
      25     1     1     2     0     0  1.177389010E+02 -1.389389526E+02 -5.173770965E+01  2.268661983E+02  1.250000000E+02  0.00000E+00  9.000E+00
      25     1     1     2     0     0 -1.194233682E+02  1.618385505E+02  1.495770965E+02  2.800927795E+02  1.250000000E+02  0.00000E+00  9.000E+00
      21     1     1     2   511   501  1.684467242E+00 -2.289959790E+01 -4.097516026E+01  4.697012638E+01  0.000000000E+00  0.00000E+00  9.000E+00
#rwgt            1           1   2.3429642449048087E-002           2      488970           0
</event>
<event>
      5   9999  3.79277E-02  5.36504E+01 -1.00000E+00  1.37352E-01
      21    -1     0     0   512   501  0.000000000E+00  0.000000000E+00  6.412689089E+02  6.412689089E+02  0.000000000E+00  0.00000E+00  9.000E+00
      21    -1     0     0   501   502  0.000000000E+00  0.000000000E+00 -1.977579652E+02  1.977579652E+02  0.000000000E+00  0.00000E+00  9.000E+00
      25     1     1     2     0     0  1.488604793E+02 -1.231544467E+02 -8.828116237E+01  2.464650557E+02  1.250000000E+02  0.00000E+00  9.000E+00
      25     1     1     2     0     0 -1.034299550E+02  9.461614705E+01  2.945921720E+02  3.493701743E+02  1.250000000E+02  0.00000E+00  9.000E+00
      21     1     1     2   512   502 -4.543052425E+01  2.853829961E+01  2.371999340E+02  2.431916442E+02  3.814697266E-06  0.00000E+00  9.000E+00
#rwgt            1           1   3.9672967828420745E-002           2      489111           0
</event>
<event>
      5   9999  3.79277E-02  1.03132E+02 -1.00000E+00  1.23228E-01
      21    -1     0     0   502   501  0.000000000E+00  0.000000000E+00  7.046323017E+02  7.046323017E+02  0.000000000E+00  0.00000E+00  9.000E+00
      -2    -1     0     0     0   502  0.000000000E+00  0.000000000E+00 -2.169073863E+02  2.169073863E+02  0.000000000E+00  0.00000E+00  9.000E+00
      25     1     1     2     0     0  8.529454039E+01  1.360745660E+02  4.694751966E+02  5.116868244E+02  1.250000000E+02  0.00000E+00  9.000E+00
      25     1     1     2     0     0  1.038750052E+01 -9.758832298E+01  1.659086330E+02  2.297434557E+02  1.250000000E+02  0.00000E+00  9.000E+00
      -2     1     1     2     0   501 -9.568204091E+01 -3.848624299E+01 -1.476589142E+02  1.801094078E+02  0.000000000E+00  0.00000E+00  9.000E+00
#rwgt            1           1   4.9637373493444749E-002           2      489211           0
</event>
<event>
      5   9999  3.79277E-02  4.69797E+01 -1.00000E+00  1.40637E-01
      21    -1     0     0   502   501  0.000000000E+00  0.000000000E+00  4.057785892E+02  4.057785892E+02  0.000000000E+00  0.00000E+00  9.000E+00
      21    -1     0     0   511   502  0.000000000E+00  0.000000000E+00 -3.838905875E+02  3.838905875E+02  0.000000000E+00  0.00000E+00  9.000E+00
      25     1     1     2     0     0 -9.949255663E+01 -1.940835132E+02 -5.500942162E+01  2.573290022E+02  1.250000000E+02  0.00000E+00  9.000E+00
      25     1     1     2     0     0  6.897923901E+01  1.583619598E+02  2.640462305E+02  3.393848222E+02  1.250000000E+02  0.00000E+00  9.000E+00
      21     1     1     2   511   501  3.051331762E+01  3.572155345E+01 -1.871488071E+02  1.929553522E+02  0.000000000E+00  0.00000E+00  9.000E+00
#rwgt            1           1   3.5012208360308966E-002           2      489265           0
</event>
<event>
      5   9999  3.79277E-02  1.37499E+01 -1.00000E+00  1.81019E-01
      21    -1     0     0   502   501  0.000000000E+00  0.000000000E+00  6.610306092E+02  6.610306092E+02  0.000000000E+00  0.00000E+00  9.000E+00
       2    -1     0     0   501     0  0.000000000E+00  0.000000000E+00 -2.189121592E+03  2.189121592E+03  0.000000000E+00  0.00000E+00  9.000E+00
      25     1     1     2     0     0  2.236191082E+01  1.175362659E+01  7.662609136E+00  1.277572635E+02  1.250000000E+02  0.00000E+00  9.000E+00
      25     1     1     2     0     0 -2.549552095E+01  1.634427611E+00  5.864394191E+02  6.001573837E+02  1.250000000E+02  0.00000E+00  9.000E+00
       2     1     1     2   502     0  3.133610127E+00 -1.338805421E+01 -2.122193011E+03  2.122237554E+03  0.000000000E+00  0.00000E+00  9.000E+00
#rwgt            1           1   3.7279818463156159E-002           2      489361           0
</event>
<event>
      5   9999  3.79277E-02  1.23242E+02 -1.00000E+00  1.19879E-01
      21    -1     0     0   511   501  0.000000000E+00  0.000000000E+00  1.600896157E+03  1.600896157E+03  0.000000000E+00  0.00000E+00  9.000E+00
      21    -1     0     0   501   502  0.000000000E+00  0.000000000E+00 -1.976818767E+02  1.976818767E+02  0.000000000E+00  0.00000E+00  9.000E+00
      25     1     1     2     0     0 -1.499160568E+02 -2.340796688E+02  9.556180045E+01  3.194137961E+02  1.250000000E+02  0.00000E+00  9.000E+00
      25     1     1     2     0     0  1.320031933E+02  1.121466994E+02  5.514425374E+01  2.206073751E+02  1.250000000E+02  0.00000E+00  9.000E+00
      21     1     1     2   511   502  1.791286346E+01  1.219329694E+02  1.252508226E+03  1.258556863E+03  2.157918644E-05  0.00000E+00  9.000E+00
#rwgt            1           1   3.5597406231254840E-002           2      489664           0
</event>
<event>
      5   9999  3.79277E-02  5.25382E+01 -1.00000E+00  1.37860E-01
      21    -1     0     0   502   501  0.000000000E+00  0.000000000E+00  2.046159766E+02  2.046159766E+02  0.000000000E+00  0.00000E+00  9.000E+00
      21    -1     0     0   501   512  0.000000000E+00  0.000000000E+00 -2.612921201E+02  2.612921201E+02  0.000000000E+00  0.00000E+00  9.000E+00
      25     1     1     2     0     0 -3.974368878E+01 -4.948404284E+01 -1.543273639E+02  2.084950037E+02  1.250000000E+02  0.00000E+00  9.000E+00
      25     1     1     2     0     0  1.058942790E+01  5.777102074E+00  1.413494232E+02  1.890771544E+02  1.250000000E+02  0.00000E+00  9.000E+00
      21     1     1     2   502   512  2.915426089E+01  4.370694077E+01 -4.369820273E+01  6.833593872E+01  4.768371582E-07  0.00000E+00  9.000E+00
#rwgt            1           1   4.6765920511648316E-002           2      489725           0
</event>
<event>
      5   9999 -3.79277E-02  3.46495E+01 -1.00000E+00  1.48817E-01
      21    -1     0     0   502   511  0.000000000E+00  0.000000000E+00  4.661176070E+02  4.661176070E+02  0.000000000E+00  0.00000E+00  9.000E+00
      21    -1     0     0   501   502  0.000000000E+00  0.000000000E+00 -3.369295185E+02  3.369295185E+02  0.000000000E+00  0.00000E+00  9.000E+00
      25     1     1     2     0     0  1.525148941E+02 -1.652125207E+02 -2.228425085E+02  3.403523960E+02  1.250000000E+02  0.00000E+00  9.000E+00
      25     1     1     2     0     0 -1.291470748E+02  1.907963658E+02  2.848207040E+02  3.870788725E+02  1.250000000E+02  0.00000E+00  9.000E+00
      21     1     1     2   501   511 -2.336781927E+01 -2.558384514E+01  6.720989296E+01  7.561585694E+01  9.536743164E-07  0.00000E+00  9.000E+00
#rwgt            1           1  -6.4561120181419213E-002           2      489865           0
</event>
<event>
      5   9999  3.79277E-02  5.55203E+01 -1.00000E+00  1.36529E-01
      21    -1     0     0   502   501  0.000000000E+00  0.000000000E+00  2.182022238E+02  2.182022238E+02  0.000000000E+00  0.00000E+00  9.000E+00
      21    -1     0     0   501   512  0.000000000E+00  0.000000000E+00 -1.496779036E+03  1.496779036E+03  0.000000000E+00  0.00000E+00  9.000E+00
      25     1     1     2     0     0 -4.792140931E+01  7.456410465E+00 -2.373525128E+02  2.726046127E+02  1.250000000E+02  0.00000E+00  9.000E+00
      25     1     1     2     0     0  9.148312021E+01 -4.187846205E+01  1.677443219E+02  2.321338502E+02  1.250000000E+02  0.00000E+00  9.000E+00
      21     1     1     2   502   512 -4.356171090E+01  3.442205159E+01 -1.208968621E+03  1.210242797E+03  0.000000000E+00  0.00000E+00  9.000E+00
#rwgt            1           1   3.8362970444219970E-002           2      490034           0
</event>
<event>
      5   9999  3.79277E-02  8.03717E+00 -1.00000E+00  2.07408E-01
      21    -1     0     0   511   501  0.000000000E+00  0.000000000E+00  1.556070405E+02  1.556070405E+02  0.000000000E+00  0.00000E+00  9.000E+00
      21    -1     0     0   501   502  0.000000000E+00  0.000000000E+00 -4.749992565E+02  4.749992565E+02  0.000000000E+00  0.00000E+00  9.000E+00
      25     1     1     2     0     0  1.646722456E+02 -1.472266430E+02 -1.117469425E+02  2.773175292E+02  1.250000000E+02  0.00000E+00  9.000E+00
      25     1     1     2     0     0 -1.715981528E+02  1.431489135E+02 -2.206457165E+02  3.380045409E+02  1.250000000E+02  0.00000E+00  9.000E+00
      21     1     1     2   511   502  6.925907268E+00  4.077729481E+00  1.300044300E+01  1.528422675E+01  3.371747881E-07  0.00000E+00  9.000E+00
#rwgt            1           1   2.6557459460865566E-002           2      490199           0
</event>
<event>
      5   9999  3.79277E-02  6.26212E+01 -1.00000E+00  1.33718E-01
      21    -1     0     0   512   501  0.000000000E+00  0.000000000E+00  5.099346699E+02  5.099346699E+02  0.000000000E+00  0.00000E+00  9.000E+00
      21    -1     0     0   501   502  0.000000000E+00  0.000000000E+00 -1.188697727E+02  1.188697727E+02  0.000000000E+00  0.00000E+00  9.000E+00
      25     1     1     2     0     0 -1.371300363E+02  2.174361720E+00  7.837791989E+01  2.014385093E+02  1.250000000E+02  0.00000E+00  9.000E+00
      25     1     1     2     0     0  1.428568085E+02 -6.453314662E+01  1.423654259E+02  2.458973551E+02  1.250000000E+02  0.00000E+00  9.000E+00
      21     1     1     2   512   502 -5.726772232E+00  6.235878490E+01  1.703215515E+02  1.814685782E+02  0.000000000E+00  0.00000E+00  9.000E+00
#rwgt            1           1   4.3690128967058532E-002           2      490629           0
</event>
<event>
      5   9999  3.79277E-02  2.83550E+01 -1.00000E+00  1.54761E-01
      21    -1     0     0   511   501  0.000000000E+00  0.000000000E+00  2.254297790E+02  2.254297790E+02  0.000000000E+00  0.00000E+00  9.000E+00
      21    -1     0     0   501   502  0.000000000E+00  0.000000000E+00 -5.341942431E+02  5.341942431E+02  0.000000000E+00  0.00000E+00  9.000E+00
      25     1     1     2     0     0  1.368403953E+02 -1.651804323E+02  1.658842768E+01  2.488172923E+02  1.250000000E+02  0.00000E+00  9.000E+00
      25     1     1     2     0     0 -1.382318550E+02  1.935013142E+02 -3.704040042E+02  4.575750547E+02  1.250000000E+02  0.00000E+00  9.000E+00
      21     1     1     2   511   502  1.391459717E+00 -2.832088184E+01  4.505111244E+01  5.323167516E+01  6.743495762E-07  0.00000E+00  9.000E+00
#rwgt            1           1   2.8302394213714797E-002           2      490679           0
</event>
<event>
      5   9999 -3.79277E-02  9.24739E+01 -1.00000E+00  1.25376E-01
      21    -1     0     0   502   501  0.000000000E+00  0.000000000E+00  1.062889334E+03  1.062889334E+03  0.000000000E+00  0.00000E+00  9.000E+00
       2    -1     0     0   501     0  0.000000000E+00  0.000000000E+00 -3.579043051E+02  3.579043051E+02  0.000000000E+00  0.00000E+00  9.000E+00
      25     1     1     2     0     0  4.717201041E+01  2.446591291E+02  7.781569215E+02  8.265812014E+02  1.250000000E+02  0.00000E+00  9.000E+00
      25     1     1     2     0     0  3.486678458E+01 -2.019851957E+02  1.957920226E+02  3.097954616E+02  1.250000000E+02  0.00000E+00  9.000E+00
       2     1     1     2   502     0 -8.203879499E+01 -4.267393345E+01 -2.689639153E+02  2.844169760E+02  6.607249480E-06  0.00000E+00  9.000E+00
#rwgt            1           1  -1.8548287836340098E-002           2      490845           0
</event>
<event>
      5   9999  3.79277E-02  2.51729E+01 -1.00000E+00  1.58527E-01
      21    -1     0     0   502   501  0.000000000E+00  0.000000000E+00  3.650772007E+02  3.650772007E+02  0.000000000E+00  0.00000E+00  9.000E+00
      21    -1     0     0   501   511  0.000000000E+00  0.000000000E+00 -2.810184354E+02  2.810184354E+02  0.000000000E+00  0.00000E+00  9.000E+00
      25     1     1     2     0     0  1.179006491E+02 -1.809227602E+02  1.183276132E+02  2.761521904E+02  1.250000000E+02  0.00000E+00  9.000E+00
      25     1     1     2     0     0 -1.311150959E+02  1.594972859E+02  7.896068022E+01  2.539494864E+02  1.250000000E+02  0.00000E+00  9.000E+00
      21     1     1     2   502   511  1.321444679E+01  2.142547429E+01 -1.132295282E+02  1.159939593E+02  1.348699152E-06  0.00000E+00  9.000E+00
#rwgt            1           1   1.9318533633837721E-002           2      490902           0
</event>
<event>
      5   9999  3.79277E-02  4.07136E+00 -1.00000E+00  2.61674E-01
      21    -1     0     0   502   501  0.000000000E+00  0.000000000E+00  3.518558120E+02  3.518558120E+02  0.000000000E+00  0.00000E+00  9.000E+00
      21    -1     0     0   512   502  0.000000000E+00  0.000000000E+00 -3.749914468E+02  3.749914468E+02  0.000000000E+00  0.00000E+00  9.000E+00
      25     1     1     2     0     0 -3.829049985E+01  3.399786765E+01 -3.791641503E+01  1.403020738E+02  1.250000000E+02  0.00000E+00  9.000E+00
      25     1     1     2     0     0  4.172789342E+01 -3.181605768E+01  2.853652628E+02  3.159300743E+02  1.250000000E+02  0.00000E+00  9.000E+00
      21     1     1     2   512   501 -3.437393571E+00 -2.181809966E+00 -2.705844826E+02  2.706151108E+02  6.607249480E-06  0.00000E+00  9.000E+00
#rwgt            1           1   4.8875285542913101E-002           2      491224           0
</event>
<event>
      5   9999  3.79277E-02  1.92616E+02 -1.00000E+00  1.12246E-01
      21    -1     0     0   502   501  0.000000000E+00  0.000000000E+00  6.150329568E+02  6.150329568E+02  0.000000000E+00  0.00000E+00  9.000E+00
       2    -1     0     0   501     0  0.000000000E+00  0.000000000E+00 -1.764577777E+03  1.764577777E+03  0.000000000E+00  0.00000E+00  9.000E+00
      25     1     1     2     0     0 -7.724682277E+01 -1.163429612E+02  4.490555329E+02  4.865990422E+02  1.250000000E+02  0.00000E+00  9.000E+00
      25     1     1     2     0     0  2.667170004E+02  8.167067232E+01 -2.392891942E+01  3.066034087E+02  1.250000000E+02  0.00000E+00  9.000E+00
       2     1     1     2   502     0 -1.894701777E+02  3.467228885E+01 -1.574671433E+03  1.586408283E+03  2.157918644E-05  0.00000E+00  9.000E+00
#rwgt            1           1   4.1774456198463504E-002           2      491643           0
</event>
<event>
      5   9999  3.79277E-02  1.09364E+01 -1.00000E+00  1.91368E-01
      21    -1     0     0   502   511  0.000000000E+00  0.000000000E+00  4.120316635E+02  4.120316635E+02  0.000000000E+00  0.00000E+00  9.000E+00
      21    -1     0     0   501   502  0.000000000E+00  0.000000000E+00 -2.354933798E+02  2.354933798E+02  0.000000000E+00  0.00000E+00  9.000E+00
      25     1     1     2     0     0 -1.270900883E+02 -1.076541412E+02 -1.191151024E+02  2.399056320E+02  1.250000000E+02  0.00000E+00  9.000E+00
      25     1     1     2     0     0  1.343639318E+02  9.948742098E+01  1.394717368E+02  2.510553295E+02  1.250000000E+02  0.00000E+00  9.000E+00
      21     1     1     2   501   511 -7.273843493E+00  8.166720215E+00  1.561816493E+02  1.565640817E+02  1.907348633E-06  0.00000E+00  9.000E+00
#rwgt            1           1   2.6316480045055553E-002           2      491788           0
</event>
<event>
      5   9999  3.79277E-02  1.47048E+01 -1.00000E+00  1.78201E-01
      21    -1     0     0   502   512  0.000000000E+00  0.000000000E+00  1.736486848E+02  1.736486848E+02  0.000000000E+00  0.00000E+00  9.000E+00
      21    -1     0     0   501   502  0.000000000E+00  0.000000000E+00 -6.770825903E+02  6.770825903E+02  0.000000000E+00  0.00000E+00  9.000E+00
      25     1     1     2     0     0  1.037341471E+02  1.129161031E+02 -4.553640607E+02  4.964798560E+02  1.250000000E+02  0.00000E+00  9.000E+00
      25     1     1     2     0     0 -8.988252506E+01 -1.079802547E+02 -1.566067936E+02  2.447228872E+02  1.250000000E+02  0.00000E+00  9.000E+00
      21     1     1     2   501   512 -1.385162201E+01 -4.935848361E+00  1.085369488E+02  1.095285319E+02  3.015782986E-06  0.00000E+00  9.000E+00
#rwgt            1           1   3.2032363375916043E-002           2      492063           0
</event>
<event>
      5   9999  3.79277E-02  1.36503E+01 -1.00000E+00  1.81330E-01
      21    -1     0     0   502   511  0.000000000E+00  0.000000000E+00  6.691228579E+01  6.691228579E+01  0.000000000E+00  0.00000E+00  9.000E+00
      21    -1     0     0   501   502  0.000000000E+00  0.000000000E+00 -1.055165280E+03  1.055165280E+03  0.000000000E+00  0.00000E+00  9.000E+00
      25     1     1     2     0     0  1.005357208E+02 -4.580991036E+01 -8.882627436E+02  9.037929413E+02  1.250000000E+02  0.00000E+00  9.000E+00
      25     1     1     2     0     0 -9.475597905E+01  3.344363937E+01 -1.154860163E+02  1.976339863E+02  1.250000000E+02  0.00000E+00  9.000E+00
      21     1     1     2   501   511 -5.779741710E+00  1.236627099E+01  1.549576614E+01  2.065063778E+01  6.743495762E-07  0.00000E+00  9.000E+00
#rwgt            1           1   7.8761325931034756E-002           2      492279           0
</event>
<event>
      5   9999  3.79277E-02  1.28959E+01 -1.00000E+00  1.83799E-01
      21    -1     0     0   502   501  0.000000000E+00  0.000000000E+00  4.100092540E+02  4.100092540E+02  0.000000000E+00  0.00000E+00  9.000E+00
      21    -1     0     0   501   512  0.000000000E+00  0.000000000E+00 -7.626084669E+02  7.626084669E+02  0.000000000E+00  0.00000E+00  9.000E+00
      25     1     1     2     0     0  1.133101998E+02  1.149303159E+02  1.748491173E+02  2.687850307E+02  1.250000000E+02  0.00000E+00  9.000E+00
      25     1     1     2     0     0 -1.004354088E+02 -1.141927809E+02  1.366328092E+02  2.396263489E+02  1.250000000E+02  0.00000E+00  9.000E+00
      21     1     1     2   502   512 -1.287479097E+01 -7.375349871E-01 -6.640811394E+02  6.642063413E+02  1.078959322E-05  0.00000E+00  9.000E+00
#rwgt            1           1   3.2315759854532285E-002           2      492588           0
</event>
<event>
      5   9999  3.79277E-02  4.94012E+01 -1.00000E+00  1.39375E-01
      21    -1     0     0   502   511  0.000000000E+00  0.000000000E+00  3.560946837E+01  3.560946837E+01  0.000000000E+00  0.00000E+00  9.000E+00
      21    -1     0     0   501   502  0.000000000E+00  0.000000000E+00 -1.621345930E+03  1.621345930E+03  0.000000000E+00  0.00000E+00  9.000E+00
      25     1     1     2     0     0  1.389728001E+02  4.746016973E+00 -5.675947398E+02  5.975991571E+02  1.250000000E+02  0.00000E+00  9.000E+00
      25     1     1     2     0     0 -1.883719085E+02 -4.288576881E+00 -9.407439544E+02  9.675363330E+02  1.250000000E+02  0.00000E+00  9.000E+00
      21     1     1     2   501   511  4.939910842E+01 -4.574400928E-01 -7.739776700E+01  9.181990798E+01  9.536743164E-07  0.00000E+00  9.000E+00
#rwgt            1           1   5.1849939323505290E-002           2      492776           0
</event>
<event>
      5   9999  3.79277E-02  2.02200E+01 -1.00000E+00  1.65978E-01
      21    -1     0     0   512   501  0.000000000E+00  0.000000000E+00  8.840558960E+01  8.840558960E+01  0.000000000E+00  0.00000E+00  9.000E+00
      21    -1     0     0   501   502  0.000000000E+00  0.000000000E+00 -4.019471771E+02  4.019471771E+02  0.000000000E+00  0.00000E+00  9.000E+00
      25     1     1     2     0     0 -9.184774191E+01  7.736763556E+00 -2.319884184E+02  2.791764522E+02  1.250000000E+02  0.00000E+00  9.000E+00
      25     1     1     2     0     0  1.060839383E+02 -2.209572071E+01 -9.105682784E+01  1.888342361E+02  1.250000000E+02  0.00000E+00  9.000E+00
      21     1     1     2   512   502 -1.423619637E+01  1.435895715E+01  9.503658710E+00  2.234207838E+01  2.920019320E-07  0.00000E+00  9.000E+00
#rwgt            1           1   4.0818803371355773E-002           2      492898           0
</event>
<event>
      5   9999  3.79277E-02  6.86595E+01 -1.00000E+00  1.31647E-01
      21    -1     0     0   511   501  0.000000000E+00  0.000000000E+00  1.419612202E+03  1.419612202E+03  0.000000000E+00  0.00000E+00  9.000E+00
      21    -1     0     0   501   502  0.000000000E+00  0.000000000E+00 -3.363431252E+01  3.363431252E+01  0.000000000E+00  0.00000E+00  9.000E+00
      25     1     1     2     0     0 -3.236801919E+01  7.663666930E+01  6.640572322E+02  6.808214710E+02  1.250000000E+02  0.00000E+00  9.000E+00
      25     1     1     2     0     0 -3.413462540E+01 -9.371096617E+01  2.586321436E+02  3.040764765E+02  1.250000000E+02  0.00000E+00  9.000E+00
      21     1     1     2   511   502  6.650264459E+01  1.707429687E+01  4.632885137E+02  4.683485670E+02  5.394796609E-06  0.00000E+00  9.000E+00
#rwgt            1           1   4.0715513502637475E-002           2      493297           0
</event>
<event>
      5   9999  3.79277E-02  6.93474E+01 -1.00000E+00  1.31427E-01
      21    -1     0     0   512   501  0.000000000E+00  0.000000000E+00  5.813656775E+01  5.813656775E+01  0.000000000E+00  0.00000E+00  9.000E+00
      21    -1     0     0   501   502  0.000000000E+00  0.000000000E+00 -1.983658580E+03  1.983658580E+03  0.000000000E+00  0.00000E+00  9.000E+00
      25     1     1     2     0     0 -1.126403688E+02  2.099797921E+02 -7.494170194E+02  7.962601552E+02  1.250000000E+02  0.00000E+00  9.000E+00
      25     1     1     2     0     0  6.332990815E+01 -1.612197048E+02 -1.152729983E+03  1.172353993E+03  1.250000000E+02  0.00000E+00  9.000E+00
      21     1     1     2   512   502  4.931046067E+01 -4.876008729E+01 -2.337500976E+01  7.318099975E+01  2.078484985E-06  0.00000E+00  9.000E+00
#rwgt            1           1   2.6439065980812800E-002           2      493393           0
</event>
<event>
      5   9999  3.79277E-02  9.67452E+01 -1.00000E+00  1.24478E-01
      21    -1     0     0   502   501  0.000000000E+00  0.000000000E+00  1.232995717E+03  1.232995717E+03  0.000000000E+00  0.00000E+00  9.000E+00
      21    -1     0     0   501   511  0.000000000E+00  0.000000000E+00 -6.872191538E+02  6.872191538E+02  0.000000000E+00  0.00000E+00  9.000E+00
      25     1     1     2     0     0  2.097327073E+02  4.176617278E+01  5.547485664E+02  6.075386355E+02  1.250000000E+02  0.00000E+00  9.000E+00
      25     1     1     2     0     0 -1.407533480E+02  2.606797948E+01  6.343063765E+02  6.621635929E+02  1.250000000E+02  0.00000E+00  9.000E+00
      21     1     1     2   502   511 -6.897935933E+01 -6.783415226E+01 -6.432783796E+02  6.505126424E+02  1.078959322E-05  0.00000E+00  9.000E+00
#rwgt            1           1   7.1685072130306976E-002           2      493749           0
</event>
<event>
      5   9999  3.79277E-02  1.20754E+01 -1.00000E+00  1.86743E-01
      21    -1     0     0   512   501  0.000000000E+00  0.000000000E+00  8.245193070E+01  8.245193070E+01  0.000000000E+00  0.00000E+00  9.000E+00
      21    -1     0     0   501   502  0.000000000E+00  0.000000000E+00 -5.221378618E+02  5.221378618E+02  0.000000000E+00  0.00000E+00  9.000E+00
      25     1     1     2     0     0  9.607051047E+01 -7.807371970E+01 -1.630216046E+02  2.398459761E+02  1.250000000E+02  0.00000E+00  9.000E+00
      25     1     1     2     0     0 -9.160851092E+01  8.929447007E+01 -2.936922641E+02  3.438688233E+02  1.250000000E+02  0.00000E+00  9.000E+00
      21     1     1     2   512   502 -4.461999553E+00 -1.122075037E+01  1.702793756E+01  2.087499309E+01  4.768371582E-07  0.00000E+00  9.000E+00
#rwgt            1           1   4.1250016636593195E-002           2      494047           0
</event>
<event>
      5   9999  3.79277E-02  1.66057E+02 -1.00000E+00  1.14670E-01
      21    -1     0     0   511   501  0.000000000E+00  0.000000000E+00  1.987746622E+02  1.987746622E+02  0.000000000E+00  0.00000E+00  9.000E+00
      21    -1     0     0   501   502  0.000000000E+00  0.000000000E+00 -1.032411537E+03  1.032411537E+03  0.000000000E+00  0.00000E+00  9.000E+00
      25     1     1     2     0     0 -2.931682249E+02 -1.909347561E+02 -4.891539900E+02  6.142477636E+02  1.250000000E+02  0.00000E+00  9.000E+00
      25     1     1     2     0     0  1.563862902E+02  9.677741378E+01 -3.862704396E+02  4.457043775E+02  1.250000000E+02  0.00000E+00  9.000E+00
      21     1     1     2   511   502  1.367819347E+02  9.415734231E+01  4.178755512E+01  1.712340578E+02  1.261592536E-06  0.00000E+00  9.000E+00
#rwgt            1           1   3.9993887768585666E-002           2      494269           0
</event>
<event>
      5   9999  3.79277E-02  3.24741E+01 -1.00000E+00  1.50687E-01
      21    -1     0     0   502   501  0.000000000E+00  0.000000000E+00  1.275622058E+02  1.275622058E+02  0.000000000E+00  0.00000E+00  9.000E+00
      21    -1     0     0   512   502  0.000000000E+00  0.000000000E+00 -3.241032655E+02  3.241032655E+02  0.000000000E+00  0.00000E+00  9.000E+00
      25     1     1     2     0     0  5.717839233E+01  9.599516344E+01  1.331540400E+01  1.681866223E+02  1.250000000E+02  0.00000E+00  9.000E+00
      25     1     1     2     0     0 -2.480742522E+01 -9.340868213E+01 -1.774651095E+02  2.376119848E+02  1.250000000E+02  0.00000E+00  9.000E+00
      21     1     1     2   512   501 -3.237096712E+01 -2.586481313E+00 -3.239135418E+01  4.586686411E+01  4.768371582E-07  0.00000E+00  9.000E+00
#rwgt            1           1   4.7052961594120014E-002           2      494353           0
</event>
<event>
      5   9999 -3.79277E-02  4.47647E+01 -1.00000E+00  1.41873E-01
      21    -1     0     0   502   511  0.000000000E+00  0.000000000E+00  5.534131716E+01  5.534131716E+01  0.000000000E+00  0.00000E+00  9.000E+00
      21    -1     0     0   501   502  0.000000000E+00  0.000000000E+00 -1.527434454E+03  1.527434454E+03  0.000000000E+00  0.00000E+00  9.000E+00
      25     1     1     2     0     0 -1.138596006E+02 -1.391537348E+01 -1.437156810E+02  2.223439750E+02  1.250000000E+02  0.00000E+00  9.000E+00
      25     1     1     2     0     0  1.577310142E+02  2.281379434E+01 -1.273993999E+03  1.289994283E+03  1.250000000E+02  0.00000E+00  9.000E+00
      21     1     1     2   501   511 -4.387141359E+01 -8.898420852E+00 -5.438345740E+01  7.043751317E+01  1.507891493E-06  0.00000E+00  9.000E+00
#rwgt            1           1  -3.3705608419712499E-002           2      494646           0
</event>
<event>
      5   9999  3.79277E-02  5.00976E+01 -1.00000E+00  1.39027E-01
      21    -1     0     0   502   501  0.000000000E+00  0.000000000E+00  6.815890156E+02  6.815890156E+02  0.000000000E+00  0.00000E+00  9.000E+00
      21    -1     0     0   512   502  0.000000000E+00  0.000000000E+00 -2.953799972E+02  2.953799972E+02  0.000000000E+00  0.00000E+00  9.000E+00
      25     1     1     2     0     0 -2.365030575E+02  1.954609346E+02  2.230765725E+02  3.994081000E+02  1.250000000E+02  0.00000E+00  9.000E+00
      25     1     1     2     0     0  2.765568431E+02 -1.653699320E+02  2.836044224E+02  4.470876539E+02  1.250000000E+02  0.00000E+00  9.000E+00
      21     1     1     2   512   501 -4.005378551E+01 -3.009100260E+01 -1.204719765E+02  1.304732590E+02  2.697398305E-06  0.00000E+00  9.000E+00
#rwgt            1           1   5.1215106696680751E-002           2      494802           0
</event>
<event>
      5   9999  3.79277E-02  4.21903E+01 -1.00000E+00  1.43419E-01
      21    -1     0     0   502   511  0.000000000E+00  0.000000000E+00  7.999209673E+01  7.999209673E+01  0.000000000E+00  0.00000E+00  9.000E+00
      21    -1     0     0   501   502  0.000000000E+00  0.000000000E+00 -5.539569268E+02  5.539569268E+02  0.000000000E+00  0.00000E+00  9.000E+00
      25     1     1     2     0     0 -4.290088531E+00  8.486896159E+01 -6.708411683E+01  1.653675429E+02  1.250000000E+02  0.00000E+00  9.000E+00
      25     1     1     2     0     0 -2.988801033E+01 -1.096051105E+02 -3.863502956E+02  4.216611487E+02  1.250000000E+02  0.00000E+00  9.000E+00
      21     1     1     2   501   511  3.417809886E+01  2.473614887E+01 -2.053041760E+01  4.692033194E+01  2.384185791E-07  0.00000E+00  9.000E+00
#rwgt            1           1   4.5903853158957779E-002           2      494931           0
</event>
<event>
      5   9999  3.79277E-02  1.54673E+02 -1.00000E+00  1.15868E-01
      21    -1     0     0   502   501  0.000000000E+00  0.000000000E+00  3.532206666E+01  3.532206666E+01  0.000000000E+00  0.00000E+00  9.000E+00
      21    -1     0     0   501   512  0.000000000E+00  0.000000000E+00 -2.092640362E+03  2.092640362E+03  0.000000000E+00  0.00000E+00  9.000E+00
      25     1     1     2     0     0 -1.077521518E+02  1.422939336E+02 -9.119026033E+02  9.375763690E+02  1.250000000E+02  0.00000E+00  9.000E+00
      25     1     1     2     0     0 -3.754873514E+01 -8.927009214E+01 -4.228014498E+02  4.514035033E+02  1.250000000E+02  0.00000E+00  9.000E+00
      21     1     1     2   502   512  1.453008870E+02 -5.302384149E+01 -7.226142427E+02  7.389825568E+02  7.629394531E-06  0.00000E+00  9.000E+00
#rwgt            1           1   3.4321973396393757E-002           2      495109           0
</event>
<event>
      5   9999  3.79277E-02  2.33743E+01 -1.00000E+00  1.60970E-01
      21    -1     0     0   502   501  0.000000000E+00  0.000000000E+00  1.693298217E+03  1.693298217E+03  0.000000000E+00  0.00000E+00  9.000E+00
      21    -1     0     0   511   502  0.000000000E+00  0.000000000E+00 -5.084653673E+01  5.084653673E+01  0.000000000E+00  0.00000E+00  9.000E+00
      25     1     1     2     0     0 -2.762141857E+01 -2.264239145E+02  1.011580331E+03  1.044485757E+03  1.250000000E+02  0.00000E+00  9.000E+00
      25     1     1     2     0     0  3.136457866E+01  2.033512429E+02  6.319545495E+02  6.762595784E+02  1.250000000E+02  0.00000E+00  9.000E+00
      21     1     1     2   511   501 -3.743160090E+00  2.307267160E+01 -1.083200261E+00  2.339941762E+01  1.204139224E-06  0.00000E+00  9.000E+00
#rwgt            1           1   4.4141631724212926E-002           2      495159           0
</event>
<event>
      5   9999  3.79277E-02  1.22358E+02 -1.00000E+00  1.20011E-01
      21    -1     0     0   502   501  0.000000000E+00  0.000000000E+00  1.378043522E+02  1.378043522E+02  0.000000000E+00  0.00000E+00  9.000E+00
      21    -1     0     0   512   502  0.000000000E+00  0.000000000E+00 -7.199167442E+02  7.199167442E+02  0.000000000E+00  0.00000E+00  9.000E+00
      25     1     1     2     0     0  2.997701989E+01  1.105358182E+02 -9.022997640E+01  1.920500910E+02  1.250000000E+02  0.00000E+00  9.000E+00
      25     1     1     2     0     0  3.298558957E+01 -2.154504387E+02 -1.284420766E+02  2.821866540E+02  1.250000000E+02  0.00000E+00  9.000E+00
      21     1     1     2   512   501 -6.296260946E+01  1.049146205E+02 -3.634403390E+02  3.834843514E+02  0.000000000E+00  0.00000E+00  9.000E+00
#rwgt            1           1   5.7697543335037349E-002           2      495307           0
</event>
<event>
      5   9999  3.79277E-02  3.30979E+02 -1.00000E+00  1.04224E-01
      21    -1     0     0   502   501  0.000000000E+00  0.000000000E+00  5.730505529E+02  5.730505529E+02  0.000000000E+00  0.00000E+00  9.000E+00
      21    -1     0     0   511   502  0.000000000E+00  0.000000000E+00 -3.294867067E+02  3.294867067E+02  0.000000000E+00  0.00000E+00  9.000E+00
      25     1     1     2     0     0  9.467332434E+01 -1.258479500E+02  1.855490354E+02  2.735949367E+02  1.250000000E+02  0.00000E+00  9.000E+00
      25     1     1     2     0     0  3.422352335E+01 -1.790005106E+02  1.707698278E+02  2.792843827E+02  1.250000000E+02  0.00000E+00  9.000E+00
      21     1     1     2   511   501 -1.288968477E+02  3.048484607E+02 -1.127550169E+02  3.496579402E+02  4.046097457E-06  0.00000E+00  9.000E+00
#rwgt            1           1   1.1458712221875070E-002           2      495508           0
</event>
<event>
      5   9999  3.79277E-02  3.83008E+01 -1.00000E+00  1.46019E-01
      21    -1     0     0   502   501  0.000000000E+00  0.000000000E+00  3.613775057E+02  3.613775057E+02  0.000000000E+00  0.00000E+00  9.000E+00
      21    -1     0     0   512   502  0.000000000E+00  0.000000000E+00 -2.696790500E+02  2.696790500E+02  0.000000000E+00  0.00000E+00  9.000E+00
      25     1     1     2     0     0 -1.735911114E+02  1.370177824E+02  1.621248020E+02  3.013589191E+02  1.250000000E+02  0.00000E+00  9.000E+00
      25     1     1     2     0     0  1.907215490E+02 -1.027614100E+02 -6.722633200E-01  2.501201083E+02  1.250000000E+02  0.00000E+00  9.000E+00
      21     1     1     2   512   501 -1.713043752E+01 -3.425637245E+01 -6.975408297E+01  7.957752845E+01  0.000000000E+00  0.00000E+00  9.000E+00
#rwgt            1           1  0.20583084329996384                2      495553           0
</event>
<event>
      5   9999  3.79277E-02  9.93163E+00 -1.00000E+00  1.96102E-01
      21    -1     0     0   511   501  0.000000000E+00  0.000000000E+00  4.767194416E+02  4.767194416E+02  0.000000000E+00  0.00000E+00  9.000E+00
      21    -1     0     0   501   502  0.000000000E+00  0.000000000E+00 -1.032253018E+02  1.032253018E+02  0.000000000E+00  0.00000E+00  9.000E+00
      25     1     1     2     0     0 -6.191120376E+01 -1.309502115E+02  2.988582996E+02  3.548552357E+02  1.250000000E+02  0.00000E+00  9.000E+00
      25     1     1     2     0     0  6.626258647E+01  1.220225670E+02  4.270257344E+01  1.916474550E+02  1.250000000E+02  0.00000E+00  9.000E+00
      21     1     1     2   511   502 -4.351382705E+00  8.927644538E+00  3.193326670E+01  3.344205273E+01  5.840038640E-07  0.00000E+00  9.000E+00
#rwgt            1           1   3.2263024199144300E-002           2      495699           0
</event>
<event>
      5   9999  3.79277E-02  1.57780E+01 -1.00000E+00  1.75339E-01
      21    -1     0     0   502   501  0.000000000E+00  0.000000000E+00  9.451260085E+01  9.451260085E+01  0.000000000E+00  0.00000E+00  9.000E+00
      21    -1     0     0   501   512  0.000000000E+00  0.000000000E+00 -3.667282937E+02  3.667282937E+02  0.000000000E+00  0.00000E+00  9.000E+00
      25     1     1     2     0     0  4.314556370E+01  5.883611504E+01 -7.902467486E-01  1.447371845E+02  1.250000000E+02  0.00000E+00  9.000E+00
      25     1     1     2     0     0 -3.217113244E+01 -7.017226315E+01 -2.416207274E+02  2.827803108E+02  1.250000000E+02  0.00000E+00  9.000E+00
      21     1     1     2   502   512 -1.097443127E+01  1.133614811E+01 -2.980471875E+01  3.372339922E+01  5.840038640E-07  0.00000E+00  9.000E+00
#rwgt            1           1   3.4359397703605250E-002           2      496032           0
</event>
<event>
      5   9999  3.79277E-02  1.38018E+01 -1.00000E+00  1.80859E-01
      21    -1     0     0   502   501  0.000000000E+00  0.000000000E+00  4.360389488E+02  4.360389488E+02  0.000000000E+00  0.00000E+00  9.000E+00
      21    -1     0     0   511   502  0.000000000E+00  0.000000000E+00 -1.265653413E+02  1.265653413E+02  0.000000000E+00  0.00000E+00  9.000E+00
      25     1     1     2     0     0  1.584800250E+02 -3.503278818E+00  6.980676791E+01  2.136028467E+02  1.250000000E+02  0.00000E+00  9.000E+00
      25     1     1     2     0     0 -1.710171015E+02 -2.268394217E+00  2.528852422E+02  3.298908006E+02  1.250000000E+02  0.00000E+00  9.000E+00
      21     1     1     2   511   501  1.253707658E+01  5.771673035E+00 -1.321840258E+01  1.911064273E+01  4.129530925E-07  0.00000E+00  9.000E+00
#rwgt            2          11   1.0486565324053609E-003           2      496276           0
</event>
<event>
      5   9999  3.79277E-02  5.47832E+01 -1.00000E+00  1.36849E-01
      21    -1     0     0   502   501  0.000000000E+00  0.000000000E+00  1.603952504E+03  1.603952504E+03  0.000000000E+00  0.00000E+00  9.000E+00
      21    -1     0     0   512   502  0.000000000E+00  0.000000000E+00 -1.142860736E+02  1.142860736E+02  0.000000000E+00  0.00000E+00  9.000E+00
      25     1     1     2     0     0 -1.210427664E+01  6.539675805E+01 -4.835966545E+01  1.496225475E+02  1.250000000E+02  0.00000E+00  9.000E+00
      25     1     1     2     0     0  5.375601296E+01 -2.981123396E+01  1.487758582E+03  1.494265377E+03  1.250000000E+02  0.00000E+00  9.000E+00
      21     1     1     2   512   501 -4.165173632E+01 -3.558552409E+01  5.026751365E+01  7.435065293E+01  1.348699152E-06  0.00000E+00  9.000E+00
#rwgt            1           1   6.6115934164695897E-002           2      496371           0
</event>
<event>
      5   9999  3.79277E-02  5.34458E+01 -1.00000E+00  1.37444E-01
      21    -1     0     0   502   501  0.000000000E+00  0.000000000E+00  2.111202608E+02  2.111202608E+02  0.000000000E+00  0.00000E+00  9.000E+00
      21    -1     0     0   511   502  0.000000000E+00  0.000000000E+00 -2.225898618E+02  2.225898618E+02  0.000000000E+00  0.00000E+00  9.000E+00
      25     1     1     2     0     0 -8.133032696E+01 -5.950373605E+00 -1.436039895E+00  1.492551213E+02  1.250000000E+02  0.00000E+00  9.000E+00
      25     1     1     2     0     0  2.902957828E+01  1.695404935E+01  9.904408572E+01  1.629873833E+02  1.250000000E+02  0.00000E+00  9.000E+00
      21     1     1     2   511   501  5.230074868E+01 -1.100367575E+01 -1.090776468E+02  1.214676180E+02  0.000000000E+00  0.00000E+00  9.000E+00
#rwgt            1           1   5.3940831456199628E-002           2      496692           0
</event>
<event>
      5   9999  3.79277E-02  1.91878E+02 -1.00000E+00  1.12307E-01
      21    -1     0     0   502   501  0.000000000E+00  0.000000000E+00  3.290600649E+02  3.290600649E+02  0.000000000E+00  0.00000E+00  9.000E+00
       1    -1     0     0   501     0  0.000000000E+00  0.000000000E+00 -1.464863468E+03  1.464863468E+03  0.000000000E+00  0.00000E+00  9.000E+00
      25     1     1     2     0     0 -4.036670758E+02 -3.720183651E+02 -9.663167829E+01  5.712332740E+02  1.250000000E+02  0.00000E+00  9.000E+00
      25     1     1     2     0     0  2.128118670E+02  3.522327619E+02 -8.532137780E+02  9.554870801E+02  1.250000000E+02  0.00000E+00  9.000E+00
       1     1     1     2   502     0  1.908552087E+02  1.978560322E+01 -1.859579466E+02  2.672031787E+02  4.672030912E-06  0.00000E+00  9.000E+00
#rwgt            1           1   4.6056518466372202E-002           2      496862           0
</event>
<event>
      5   9999  3.79277E-02  1.04769E+02 -1.00000E+00  1.22925E-01
      21    -1     0     0   502   501  0.000000000E+00  0.000000000E+00  7.357857568E+02  7.357857568E+02  0.000000000E+00  0.00000E+00  9.000E+00
       3    -1     0     0   501     0  0.000000000E+00  0.000000000E+00 -3.056930028E+02  3.056930028E+02  0.000000000E+00  0.00000E+00  9.000E+00
      25     1     1     2     0     0 -8.790006492E+01 -1.225180134E+02 -6.114292429E+01  2.051841666E+02  1.250000000E+02  0.00000E+00  9.000E+00
      25     1     1     2     0     0  6.806665974E+01  1.964364422E+01  6.391132777E+02  6.550646721E+02  1.250000000E+02  0.00000E+00  9.000E+00
       3     1     1     2   502     0  1.983340518E+01  1.028743692E+02 -1.478775995E+02  1.812299209E+02  1.907348633E-06  0.00000E+00  9.000E+00
#rwgt            1           1   1.6308394228260449E-002           2      496989           0
</event>
<event>
      5   9999  3.79277E-02  5.39577E+01 -1.00000E+00  1.37214E-01
       2    -1     0     0   502     0  0.000000000E+00  0.000000000E+00  8.223416183E+02  8.223416183E+02  0.000000000E+00  0.00000E+00  9.000E+00
      21    -1     0     0   501   502  0.000000000E+00  0.000000000E+00 -1.882565125E+02  1.882565125E+02  0.000000000E+00  0.00000E+00  9.000E+00
      25     1     1     2     0     0 -1.896797296E+02 -1.732986715E+01  2.831208391E+02  3.634021652E+02  1.250000000E+02  0.00000E+00  9.000E+00
      25     1     1     2     0     0  1.424014611E+02  4.333367706E+01 -8.194235720E+01  2.109396444E+02  1.250000000E+02  0.00000E+00  9.000E+00
       2     1     1     2   501     0  4.727826850E+01 -2.600380991E+01  4.329066239E+02  4.362563212E+02  1.078959322E-05  0.00000E+00  9.000E+00
#rwgt            1           1   3.3793763012143617E-002           2      497271           0
</event>
<event>
      5   9999  3.79277E-02  5.16682E+01 -1.00000E+00  1.38267E-01
      21    -1     0     0   511   501  0.000000000E+00  0.000000000E+00  9.108579335E+01  9.108579335E+01  0.000000000E+00  0.00000E+00  9.000E+00
      21    -1     0     0   501   502  0.000000000E+00  0.000000000E+00 -1.515863245E+03  1.515863245E+03  0.000000000E+00  0.00000E+00  9.000E+00
      25     1     1     2     0     0  1.527294415E+02  1.027374121E+02 -1.274826281E+02  2.564333804E+02  1.250000000E+02  0.00000E+00  9.000E+00
      25     1     1     2     0     0 -1.977916091E+02 -7.745890783E+01 -1.266727900E+03  1.290482846E+03  1.250000000E+02  0.00000E+00  9.000E+00
      21     1     1     2   511   502  4.506216760E+01 -2.527850425E+01 -3.056692406E+01  6.003281247E+01  7.539457465E-07  0.00000E+00  9.000E+00
#rwgt            1           1   2.8547447208588487E-002           2      497410           0
</event>
<event>
      5   9999  3.79277E-02  6.35036E+01 -1.00000E+00  1.33399E-01
      21    -1     0     0   502   512  0.000000000E+00  0.000000000E+00  1.553915109E+02  1.553915109E+02  0.000000000E+00  0.00000E+00  9.000E+00
      21    -1     0     0   501   502  0.000000000E+00  0.000000000E+00 -4.240659186E+02  4.240659186E+02  0.000000000E+00  0.00000E+00  9.000E+00
      25     1     1     2     0     0 -3.335692482E+01 -1.297881674E+02 -2.024571154E+02  2.730778945E+02  1.250000000E+02  0.00000E+00  9.000E+00
      25     1     1     2     0     0  5.678691971E+01  1.888114149E+02 -6.698475978E+01  2.428712883E+02  1.250000000E+02  0.00000E+00  9.000E+00
      21     1     1     2   501   512 -2.342999489E+01 -5.902324744E+01  7.674675467E-01  6.350824675E+01  8.023829086E-07  0.00000E+00  9.000E+00
#rwgt            1           1   5.4982672921288119E-002           2      497506           0
</event>
<event>
      5   9999 -3.79277E-02  2.51216E+01 -1.00000E+00  1.58593E-01
      21    -1     0     0   511   501  0.000000000E+00  0.000000000E+00  1.136485219E+03  1.136485219E+03  0.000000000E+00  0.00000E+00  9.000E+00
      21    -1     0     0   501   502  0.000000000E+00  0.000000000E+00 -1.217689356E+03  1.217689356E+03  0.000000000E+00  0.00000E+00  9.000E+00
      25     1     1     2     0     0  1.238069131E+02  1.168013575E+02 -7.374713293E+02  7.671112504E+02  1.250000000E+02  0.00000E+00  9.000E+00
      25     1     1     2     0     0 -1.350806130E+02 -1.392513190E+02 -4.366334772E+02  4.938739670E+02  1.250000000E+02  0.00000E+00  9.000E+00
      21     1     1     2   511   502  1.127369994E+01  2.244996152E+01  1.092900670E+03  1.093189357E+03  2.157918644E-05  0.00000E+00  9.000E+00
#rwgt            1           1  -4.1327450253680828E-002           2      497570           0
</event>
<event>
      5   9999  3.79277E-02  2.13236E+01 -1.00000E+00  1.64105E-01
      21    -1     0     0   502   512  0.000000000E+00  0.000000000E+00  1.736231924E+02  1.736231924E+02  0.000000000E+00  0.00000E+00  9.000E+00
      21    -1     0     0   501   502  0.000000000E+00  0.000000000E+00 -2.233914728E+02  2.233914728E+02  0.000000000E+00  0.00000E+00  9.000E+00
      25     1     1     2     0     0 -8.006105892E+01  3.875273078E+01 -3.828553917E+00  1.534640190E+02  1.250000000E+02  0.00000E+00  9.000E+00
      25     1     1     2     0     0  6.756325716E+01 -5.602986444E+01 -1.019369563E+02  1.836308320E+02  1.250000000E+02  0.00000E+00  9.000E+00
      21     1     1     2   501   512  1.249780176E+01  1.727713366E+01  5.599722968E+01  5.991981416E+01  9.536743164E-07  0.00000E+00  9.000E+00
#rwgt            1           1   4.3184369384056724E-002           2      497754           0
</event>
<event>
      5   9999  3.79277E-02  6.59778E+01 -1.00000E+00  1.32536E-01
      21    -1     0     0   502   501  0.000000000E+00  0.000000000E+00  1.049838994E+02  1.049838994E+02  0.000000000E+00  0.00000E+00  9.000E+00
      21    -1     0     0   501   511  0.000000000E+00  0.000000000E+00 -7.277662105E+02  7.277662105E+02  0.000000000E+00  0.00000E+00  9.000E+00
      25     1     1     2     0     0  1.317479548E+02 -6.225251319E+00 -3.655340463E+02  4.082112399E+02  1.250000000E+02  0.00000E+00  9.000E+00
      25     1     1     2     0     0 -1.652862647E+02  6.304299441E+01 -7.258974457E+01  2.284474544E+02  1.250000000E+02  0.00000E+00  9.000E+00
      21     1     1     2   502   511  3.353830987E+01 -5.681774309E+01 -1.846585203E+02  1.960914156E+02  3.814697266E-06  0.00000E+00  9.000E+00
#rwgt            1           1   3.8125588459770023E-002           2      498029           0
</event>
<event>
      5   9999  3.79277E-02  1.22928E+01 -1.00000E+00  1.85934E-01
      21    -1     0     0   502   501  0.000000000E+00  0.000000000E+00  1.210503289E+02  1.210503289E+02  0.000000000E+00  0.00000E+00  9.000E+00
      21    -1     0     0   512   502  0.000000000E+00  0.000000000E+00 -2.376705200E+02  2.376705200E+02  0.000000000E+00  0.00000E+00  9.000E+00
      25     1     1     2     0     0 -2.667487958E+01 -5.000839888E+01 -1.408910012E+02  1.966917979E+02  1.250000000E+02  0.00000E+00  9.000E+00
      25     1     1     2     0     0  3.770254469E+01  5.544014446E+01  3.456412216E+01  1.459957877E+02  1.250000000E+02  0.00000E+00  9.000E+00
      21     1     1     2   512   501 -1.102766511E+01 -5.431745575E+00 -1.029331207E+01  1.603326327E+01  0.000000000E+00  0.00000E+00  9.000E+00
#rwgt            1           1   4.2489322296325141E-002           2      498122           0
</event>
<event>
      5   9999  3.79277E-02  8.67146E+01 -1.00000E+00  1.26678E-01
       2    -1     0     0   502     0  0.000000000E+00  0.000000000E+00  9.986732667E+02  9.986732667E+02  0.000000000E+00  0.00000E+00  9.000E+00
      21    -1     0     0   501   502  0.000000000E+00  0.000000000E+00 -6.854669148E+02  6.854669148E+02  0.000000000E+00  0.00000E+00  9.000E+00
      25     1     1     2     0     0 -7.509248002E+01  1.187790647E+02  2.756790523E+02  3.337233684E+02  1.250000000E+02  0.00000E+00  9.000E+00
      25     1     1     2     0     0  1.010189733E+02 -3.603101079E+01 -6.433199123E+02  6.640697074E+02  1.250000000E+02  0.00000E+00  9.000E+00
       2     1     1     2   501     0 -2.592649328E+01 -8.274805386E+01  6.808472119E+02  6.863471057E+02  0.000000000E+00  0.00000E+00  9.000E+00
#rwgt            1           1  0.19278740679296813                2      498317           0
</event>
<event>
      5   9999 -3.79277E-02  1.25785E+01 -1.00000E+00  1.84904E-01
      21    -1     0     0   502   501  0.000000000E+00  0.000000000E+00  2.151681908E+02  2.151681908E+02  0.000000000E+00  0.00000E+00  9.000E+00
      21    -1     0     0   501   511  0.000000000E+00  0.000000000E+00 -2.565925450E+02  2.565925450E+02  0.000000000E+00  0.00000E+00  9.000E+00
      25     1     1     2     0     0  1.483421804E+02 -1.309073487E+01  6.418805127E+01  2.047483229E+02  1.250000000E+02  0.00000E+00  9.000E+00
      25     1     1     2     0     0 -1.360532911E+02  1.577413850E+01 -2.698273095E+01  1.873830015E+02  1.250000000E+02  0.00000E+00  9.000E+00
      21     1     1     2   502   511 -1.228888923E+01 -2.683403630E+00 -7.862967453E+01  7.962941146E+01  1.907348633E-06  0.00000E+00  9.000E+00
#rwgt            1           1  -2.2664657036516184E-002           2      498435           0
</event>
<event>
      5   9999  3.79277E-02  1.34467E+02 -1.00000E+00  1.18307E-01
      21    -1     0     0   502   501  0.000000000E+00  0.000000000E+00  1.244810078E+03  1.244810078E+03  0.000000000E+00  0.00000E+00  9.000E+00
      21    -1     0     0   501   512  0.000000000E+00  0.000000000E+00 -1.186489888E+02  1.186489888E+02  0.000000000E+00  0.00000E+00  9.000E+00
      25     1     1     2     0     0  2.427610103E+02  4.604483968E+00  7.778424077E+02  8.243894229E+02  1.250000000E+02  0.00000E+00  9.000E+00
      25     1     1     2     0     0 -2.055230949E+02 -1.338124462E+02  2.564678817E+02  3.762263782E+02  1.250000000E+02  0.00000E+00  9.000E+00
      21     1     1     2   502   512 -3.723791536E+01  1.292079622E+02  9.185080018E+01  1.628432662E+02  2.336015456E-06  0.00000E+00  9.000E+00
#rwgt            1           1   4.0054318266937061E-002           2      498780           0
</event>
<event>
      5   9999  3.79277E-02  1.88938E+01 -1.00000E+00  1.68434E-01
      21    -1     0     0   502   501  0.000000000E+00  0.000000000E+00  1.140949292E+03  1.140949292E+03  0.000000000E+00  0.00000E+00  9.000E+00
      21    -1     0     0   511   502  0.000000000E+00  0.000000000E+00 -4.695022466E+01  4.695022466E+01  0.000000000E+00  0.00000E+00  9.000E+00
      25     1     1     2     0     0 -4.316043786E+01  5.337905705E+00  1.733140679E+02  2.180689862E+02  1.250000000E+02  0.00000E+00  9.000E+00
      25     1     1     2     0     0  5.949216967E+01  4.162151903E+00  9.355774120E+02  9.457730889E+02  1.250000000E+02  0.00000E+00  9.000E+00
      21     1     1     2   511   501 -1.633173182E+01 -9.500057608E+00 -1.489241234E+01  2.405744176E+01  1.694282341E-06  0.00000E+00  9.000E+00
#rwgt            1           1   4.5357021674131755E-002           2      498866           0
</event>
<event>
      5   9999  3.79277E-02  2.55689E+01 -1.00000E+00  1.58022E-01
      21    -1     0     0   502   512  0.000000000E+00  0.000000000E+00  3.776552766E+01  3.776552766E+01  0.000000000E+00  0.00000E+00  9.000E+00
      21    -1     0     0   501   502  0.000000000E+00  0.000000000E+00 -1.958262655E+03  1.958262655E+03  0.000000000E+00  0.00000E+00  9.000E+00
      25     1     1     2     0     0 -1.292223752E+02  1.338508870E+02 -4.740460266E+02  5.243654427E+02  1.250000000E+02  0.00000E+00  9.000E+00
      25     1     1     2     0     0  1.345568648E+02 -1.088446599E+02 -1.415533449E+03  1.431542055E+03  1.250000000E+02  0.00000E+00  9.000E+00
      21     1     1     2   501   512 -5.334489625E+00 -2.500622712E+01 -3.091765189E+01  4.012068509E+01  8.920806376E-07  0.00000E+00  9.000E+00
#rwgt            1           1   6.3312074986782332E-002           2      499177           0
</event>
<event>
      5   9999  3.79277E-02  4.70721E+01 -1.00000E+00  1.40587E-01
      21    -1     0     0   502   501  0.000000000E+00  0.000000000E+00  1.091128618E+02  1.091128618E+02  0.000000000E+00  0.00000E+00  9.000E+00
      21    -1     0     0   501   511  0.000000000E+00  0.000000000E+00 -4.969044307E+02  4.969044307E+02  0.000000000E+00  0.00000E+00  9.000E+00
      25     1     1     2     0     0  8.163541159E+01 -1.092649919E+02 -3.076033245E+02  3.589540140E+02  1.250000000E+02  0.00000E+00  9.000E+00
      25     1     1     2     0     0 -8.427924208E+01  6.226721218E+01 -1.113297460E+01  1.634904874E+02  1.250000000E+02  0.00000E+00  9.000E+00
      21     1     1     2   502   511  2.643830487E+00  4.699777975E+01 -6.905526974E+01  8.357279115E+01  9.536743164E-07  0.00000E+00  9.000E+00
#rwgt            1           1   4.0365246977389059E-002           2      499402           0
</event>
<event>
      5   9999  3.79277E-02  5.03436E+01 -1.00000E+00  1.38906E-01
      21    -1     0     0   502   501  0.000000000E+00  0.000000000E+00  2.021380812E+02  2.021380812E+02  0.000000000E+00  0.00000E+00  9.000E+00
      21    -1     0     0   512   502  0.000000000E+00  0.000000000E+00 -1.996730977E+02  1.996730977E+02  0.000000000E+00  0.00000E+00  9.000E+00
      25     1     1     2     0     0 -9.173034056E+00 -9.444402245E+01  8.126141419E+01  1.767264422E+02  1.250000000E+02  0.00000E+00  9.000E+00
      25     1     1     2     0     0 -4.034829590E+01  8.538201278E+01 -4.044970930E+01  1.618000373E+02  1.250000000E+02  0.00000E+00  9.000E+00
      21     1     1     2   512   501  4.952132996E+01  9.062009669E+00 -3.834672134E+01  6.328469939E+01  1.066240300E-06  0.00000E+00  9.000E+00
#rwgt            1           1   5.0231414417981020E-002           2      499571           0
</event>
<event>
      5   9999  3.79277E-02  1.92257E+01 -1.00000E+00  1.67796E-01
      21    -1     0     0   511   501  0.000000000E+00  0.000000000E+00  4.396487937E+01  4.396487937E+01  0.000000000E+00  0.00000E+00  9.000E+00
      21    -1     0     0   501   502  0.000000000E+00  0.000000000E+00 -1.722484196E+03  1.722484196E+03  0.000000000E+00  0.00000E+00  9.000E+00
      25     1     1     2     0     0 -1.420262435E+02 -1.779941713E+02 -8.209542524E+02  8.610715785E+02  1.250000000E+02  0.00000E+00  9.000E+00
      25     1     1     2     0     0  1.267571440E+02  1.896767515E+02 -8.399231325E+02  8.792840907E+02  1.250000000E+02  0.00000E+00  9.000E+00
      21     1     1     2   511   502  1.526909950E+01 -1.168258023E+01 -1.764193129E+01  2.609340569E+01  3.371747881E-07  0.00000E+00  9.000E+00
#rwgt            1           1   4.1131476352239439E-002           2      499789           0
</event>
<event>
      5   9999  3.79277E-02  3.25558E+01 -1.00000E+00  1.50614E-01
      21    -1     0     0   502   501  0.000000000E+00  0.000000000E+00  7.687943326E+02  7.687943326E+02  0.000000000E+00  0.00000E+00  9.000E+00
      21    -1     0     0   512   502  0.000000000E+00  0.000000000E+00 -1.541103657E+02  1.541103657E+02  0.000000000E+00  0.00000E+00  9.000E+00
      25     1     1     2     0     0  5.612068508E+01 -1.002439008E+02  5.495808767E+02  5.752064942E+02  1.250000000E+02  0.00000E+00  9.000E+00
      25     1     1     2     0     0 -7.687515465E+01  7.516138673E+01  1.706241860E+02  2.372691221E+02  1.250000000E+02  0.00000E+00  9.000E+00
      21     1     1     2   512   501  2.075446957E+01  2.508251406E+01 -1.055210957E+02  1.104290821E+02  3.814697266E-06  0.00000E+00  9.000E+00
#rwgt            1           1   4.8620657320417079E-002           2      500008           0
</event>
<event>
      5   9999  3.79277E-02  3.10990E+01 -1.00000E+00  1.51962E-01
      21    -1     0     0   502   501  0.000000000E+00  0.000000000E+00  2.216562982E+02  2.216562982E+02  0.000000000E+00  0.00000E+00  9.000E+00
      21    -1     0     0   501   511  0.000000000E+00  0.000000000E+00 -4.665147693E+02  4.665147693E+02  0.000000000E+00  0.00000E+00  9.000E+00
      25     1     1     2     0     0  1.776070916E+02 -1.749294763E+02 -2.328385116E+02  3.632951598E+02  1.250000000E+02  0.00000E+00  9.000E+00
      25     1     1     2     0     0 -1.996102870E+02  1.529520768E+02  1.832671702E+01  2.814240093E+02  1.250000000E+02  0.00000E+00  9.000E+00
      21     1     1     2   502   511  2.200319542E+01  2.197739945E+01 -3.034667648E+01  4.345189833E+01  7.539457465E-07  0.00000E+00  9.000E+00
#rwgt            1           1   3.1377445459471916E-002           2      500126           0
</event>
<event>
      5   9999  3.79277E-02  8.80329E+00 -1.00000E+00  2.02382E-01
      21    -1     0     0   502   501  0.000000000E+00  0.000000000E+00  8.764187569E+02  8.764187569E+02  0.000000000E+00  0.00000E+00  9.000E+00
      21    -1     0     0   512   502  0.000000000E+00  0.000000000E+00 -4.685993744E+01  4.685993744E+01  0.000000000E+00  0.00000E+00  9.000E+00
      25     1     1     2     0     0  2.548462856E+00  9.766907246E+01  1.329728340E+02  2.070084949E+02  1.250000000E+02  0.00000E+00  9.000E+00
      25     1     1     2     0     0 -9.150544485E+00 -9.184580300E+01  6.796128018E+02  6.971498722E+02  1.250000000E+02  0.00000E+00  9.000E+00
      21     1     1     2   512   501  6.602081629E+00 -5.823269461E+00  1.697318371E+01  1.912032725E+01  2.384185791E-07  0.00000E+00  9.000E+00
#rwgt            1           1   4.6151185862308562E-002           2      500306           0
</event>
<event>
      5   9999  3.79277E-02  1.66791E+01 -1.00000E+00  1.73150E-01
      21    -1     0     0   511   501  0.000000000E+00  0.000000000E+00  3.024614884E+01  3.024614884E+01  0.000000000E+00  0.00000E+00  9.000E+00
      21    -1     0     0   501   502  0.000000000E+00  0.000000000E+00 -1.330751757E+03  1.330751757E+03  0.000000000E+00  0.00000E+00  9.000E+00
      25     1     1     2     0     0  5.650627547E+01 -1.087777611E+02 -3.721548050E+02  4.112782019E+02  1.250000000E+02  0.00000E+00  9.000E+00
      25     1     1     2     0     0 -5.165840327E+01  9.281870360E+01 -9.110043725E+02  9.256553727E+02  1.250000000E+02  0.00000E+00  9.000E+00
      21     1     1     2   511   502 -4.847872199E+00  1.595905746E+01 -1.734643066E+01  2.406433121E+01  6.743495762E-07  0.00000E+00  9.000E+00
#rwgt            1           1   3.4297825016528574E-002           2      500699           0
</event>
<event>
      5   9999  3.79277E-02  3.31502E+01 -1.00000E+00  1.50088E-01
      21    -1     0     0   512   501  0.000000000E+00  0.000000000E+00  3.722113535E+02  3.722113535E+02  0.000000000E+00  0.00000E+00  9.000E+00
      21    -1     0     0   501   502  0.000000000E+00  0.000000000E+00 -9.229695733E+01  9.229695733E+01  0.000000000E+00  0.00000E+00  9.000E+00
      25     1     1     2     0     0  8.219144233E+01 -9.044569805E+01  1.341134508E+02  2.203344621E+02  1.250000000E+02  0.00000E+00  9.000E+00
      25     1     1     2     0     0 -4.907167522E+01  8.902570909E+01  1.083594916E+02  1.941658714E+02  1.250000000E+02  0.00000E+00  9.000E+00
      21     1     1     2   512   502 -3.311976711E+01  1.419988961E+00  3.744145385E+01  5.000797745E+01  8.259061849E-07  0.00000E+00  9.000E+00
#rwgt            1           1   2.9488598025020702E-002           2      501048           0
</event>
<event>
      5   9999  3.79277E-02  6.55200E+00 -1.00000E+00  2.19695E-01
      21    -1     0     0   502   511  0.000000000E+00  0.000000000E+00  2.734190135E+02  2.734190135E+02  0.000000000E+00  0.00000E+00  9.000E+00
      21    -1     0     0   501   502  0.000000000E+00  0.000000000E+00 -6.707567386E+02  6.707567386E+02  0.000000000E+00  0.00000E+00  9.000E+00
      25     1     1     2     0     0 -2.565047391E+02 -1.853468873E+01 -5.420411495E+02  6.128391499E+02  1.250000000E+02  0.00000E+00  9.000E+00
      25     1     1     2     0     0  2.584901230E+02  2.477864170E+01  1.318794863E+02  3.169358353E+02  1.250000000E+02  0.00000E+00  9.000E+00
      21     1     1     2   501   511 -1.985383883E+00 -6.243952973E+00  1.282393816E+01  1.440076692E+01  1.685873940E-07  0.00000E+00  9.000E+00
#rwgt            1           1  0.35146527008560574                2      501174           0
</event>
<event>
      5   9999  3.79277E-02  8.26713E+01 -1.00000E+00  1.27663E-01
      21    -1     0     0   502   501  0.000000000E+00  0.000000000E+00  2.494990841E+02  2.494990841E+02  0.000000000E+00  0.00000E+00  9.000E+00
      21    -1     0     0   512   502  0.000000000E+00  0.000000000E+00 -6.418807836E+02  6.418807836E+02  0.000000000E+00  0.00000E+00  9.000E+00
      25     1     1     2     0     0  8.824028764E+01 -1.604597608E+02 -1.137810404E+02  2.492083634E+02  1.250000000E+02  0.00000E+00  9.000E+00
      25     1     1     2     0     0 -4.054066776E+01  9.293730289E+01  1.413203725E+02  2.141899523E+02  1.250000000E+02  0.00000E+00  9.000E+00
      21     1     1     2   512   501 -4.769961988E+01  6.752245795E+01 -4.199210315E+02  4.279815519E+02  5.394796609E-06  0.00000E+00  9.000E+00
#rwgt            1           1  0.10341133497252507                2      501604           0
</event>
<event>
      5   9999  3.79277E-02  6.39871E+01 -1.00000E+00  1.33227E-01
       2    -1     0     0   502     0  0.000000000E+00  0.000000000E+00  1.685518792E+02  1.685518792E+02  0.000000000E+00  0.00000E+00  9.000E+00
      21    -1     0     0   501   502  0.000000000E+00  0.000000000E+00 -4.051333854E+02  4.051333854E+02  0.000000000E+00  0.00000E+00  9.000E+00
      25     1     1     2     0     0 -1.259668247E+02  4.767331093E+01 -1.734975125E+02  2.527187614E+02  1.250000000E+02  0.00000E+00  9.000E+00
      25     1     1     2     0     0  1.870358642E+02 -2.857055858E+01 -9.917116170E+01  2.475047689E+02  1.250000000E+02  0.00000E+00  9.000E+00
       2     1     1     2   501     0 -6.106903946E+01 -1.910275235E+01  3.608716795E+01  7.346173439E+01  6.743495762E-07  0.00000E+00  9.000E+00
#rwgt            1           1   5.3184582908617203E-002           2      501724           0
</event>
<event>
      5   9999  3.79277E-02  1.64864E+01 -1.00000E+00  1.73603E-01
      21    -1     0     0   502   511  0.000000000E+00  0.000000000E+00  4.762650858E+01  4.762650858E+01  0.000000000E+00  0.00000E+00  9.000E+00
      21    -1     0     0   501   502  0.000000000E+00  0.000000000E+00 -2.353270505E+03  2.353270505E+03  0.000000000E+00  0.00000E+00  9.000E+00
      25     1     1     2     0     0 -3.929022240E+01 -1.660488595E+02 -1.907678795E+03  1.919369514E+03  1.250000000E+02  0.00000E+00  9.000E+00
      25     1     1     2     0     0  4.740922617E+01  1.517001802E+02 -4.125999080E+02  4.594826041E+02  1.250000000E+02  0.00000E+00  9.000E+00
      21     1     1     2   501   511 -8.119003770E+00  1.434867932E+01  1.463470619E+01  2.204489614E+01  1.155776944E-06  0.00000E+00  9.000E+00
#rwgt            1           1   6.2938559366020719E-002           2      501847           0
</event>
<event>
      5   9999  3.79277E-02  8.60098E+01 -1.00000E+00  1.26845E-01
      21    -1     0     0   502   501  0.000000000E+00  0.000000000E+00  1.005913760E+02  1.005913760E+02  0.000000000E+00  0.00000E+00  9.000E+00
       1    -1     0     0   501     0  0.000000000E+00  0.000000000E+00 -1.065556280E+03  1.065556280E+03  0.000000000E+00  0.00000E+00  9.000E+00
      25     1     1     2     0     0 -1.048383703E+02  8.844260911E+01 -2.267806197E+01  1.869558062E+02  1.250000000E+02  0.00000E+00  9.000E+00
      25     1     1     2     0     0  1.943230445E+01 -7.826923850E+01 -3.444447429E+02  3.751944417E+02  1.250000000E+02  0.00000E+00  9.000E+00
       1     1     1     2   502     0  8.540606583E+01 -1.017337062E+01 -5.978420994E+02  6.039974084E+02  1.078959322E-05  0.00000E+00  9.000E+00
#rwgt            1           1   3.2989896178918211E-002           2      502142           0
</event>
<event>
      5   9999 -3.79277E-02  1.89111E+01 -1.00000E+00  1.68400E-01
      21    -1     0     0   511   501  0.000000000E+00  0.000000000E+00  2.134919706E+03  2.134919706E+03  0.000000000E+00  0.00000E+00  9.000E+00
      21    -1     0     0   501   502  0.000000000E+00  0.000000000E+00 -3.719082810E+01  3.719082810E+01  0.000000000E+00  0.00000E+00  9.000E+00
      25     1     1     2     0     0 -2.189078434E+02 -4.722462940E+01  1.216191275E+03  1.242938867E+03  1.250000000E+02  0.00000E+00  9.000E+00
      25     1     1     2     0     0  2.028672384E+02  5.724106057E+01  6.159414114E+02  6.629030681E+02  1.250000000E+02  0.00000E+00  9.000E+00
      21     1     1     2   511   502  1.604060502E+01 -1.001643117E+01  2.655961922E+02  2.662685997E+02  6.607249480E-06  0.00000E+00  9.000E+00
#rwgt            1           1  -8.0619571223305805E-002           2      502335           0
</event>
<event>
      5   9999  3.79277E-02  3.82246E+01 -1.00000E+00  1.46074E-01
      21    -1     0     0   502   501  0.000000000E+00  0.000000000E+00  5.241438067E+02  5.241438067E+02  0.000000000E+00  0.00000E+00  9.000E+00
      21    -1     0     0   501   512  0.000000000E+00  0.000000000E+00 -1.017378765E+02  1.017378765E+02  0.000000000E+00  0.00000E+00  9.000E+00
      25     1     1     2     0     0 -1.339501784E+02 -1.051642589E+00  2.244927696E+02  2.897684591E+02  1.250000000E+02  0.00000E+00  9.000E+00
      25     1     1     2     0     0  1.250957349E+02  3.823654863E+01  2.253978961E+02  2.890331955E+02  1.250000000E+02  0.00000E+00  9.000E+00
      21     1     1     2   502   512  8.854443489E+00 -3.718490604E+01 -2.748473553E+01  4.708002861E+01  1.011524364E-06  0.00000E+00  9.000E+00
#rwgt            1           1   3.5261607553717537E-002           2      502563           0
</event>
<event>
      5   9999  3.79277E-02  7.17354E+01 -1.00000E+00  1.30684E-01
      21    -1     0     0   511   501  0.000000000E+00  0.000000000E+00  1.001771257E+03  1.001771257E+03  0.000000000E+00  0.00000E+00  9.000E+00
      21    -1     0     0   501   502  0.000000000E+00  0.000000000E+00 -1.580894552E+02  1.580894552E+02  0.000000000E+00  0.00000E+00  9.000E+00
      25     1     1     2     0     0 -7.995386667E+01 -9.322598209E+01  5.580731772E+01  1.839107426E+02  1.250000000E+02  0.00000E+00  9.000E+00
      25     1     1     2     0     0  1.468737753E+02  6.738620016E+01  2.060547785E+01  2.053348279E+02  1.250000000E+02  0.00000E+00  9.000E+00
      21     1     1     2   511   502 -6.691990862E+01  2.583978193E+01  7.672690059E+02  7.706151412E+02  1.078959322E-05  0.00000E+00  9.000E+00
#rwgt            1           1   4.6180263005042695E-002           2      502658           0
</event>
<event>
      5   9999  3.79277E-02  1.50067E+02 -1.00000E+00  1.16386E-01
      21    -1     0     0   512   501  0.000000000E+00  0.000000000E+00  3.207774733E+02  3.207774733E+02  0.000000000E+00  0.00000E+00  9.000E+00
      21    -1     0     0   501   502  0.000000000E+00  0.000000000E+00 -5.868888757E+02  5.868888757E+02  0.000000000E+00  0.00000E+00  9.000E+00
      25     1     1     2     0     0 -8.879567639E+01  1.160549441E+02 -4.283983108E+02  4.695780392E+02  1.250000000E+02  0.00000E+00  9.000E+00
      25     1     1     2     0     0 -1.742821009E+01 -2.220574990E+02  8.431904102E+01  2.689757908E+02  1.250000000E+02  0.00000E+00  9.000E+00
      21     1     1     2   512   502  1.062238865E+02  1.060025549E+02  7.796786743E+01  1.691125189E+02  1.907348633E-06  0.00000E+00  9.000E+00
#rwgt            1           1   2.1450329082880970E-002           2      502709           0
</event>
<event>
      5   9999  3.79277E-02  3.06837E+01 -1.00000E+00  1.52363E-01
      21    -1     0     0   502   501  0.000000000E+00  0.000000000E+00  4.408673194E+02  4.408673194E+02  0.000000000E+00  0.00000E+00  9.000E+00
      21    -1     0     0   511   502  0.000000000E+00  0.000000000E+00 -1.340898221E+02  1.340898221E+02  0.000000000E+00  0.00000E+00  9.000E+00
      25     1     1     2     0     0 -1.582023695E+01  3.015415111E+01  3.744550840E+02  3.962337223E+02  1.250000000E+02  0.00000E+00  9.000E+00
      25     1     1     2     0     0 -7.982102776E+00 -4.951750678E+01 -5.669201627E+01  1.461324131E+02  1.250000000E+02  0.00000E+00  9.000E+00
      21     1     1     2   511   501  2.380233973E+01  1.936335567E+01 -1.098557046E+01  3.259100609E+01  2.665600750E-07  0.00000E+00  9.000E+00
#rwgt            1           1   5.1213553377882685E-002           2      502925           0
</event>
<event>
      5   9999  3.79277E-02  4.13944E+02 -1.00000E+00  1.01240E-01
      21    -1     0     0   512   501  0.000000000E+00  0.000000000E+00  1.465481817E+03  1.465481817E+03  0.000000000E+00  0.00000E+00  9.000E+00
      21    -1     0     0   501   502  0.000000000E+00  0.000000000E+00 -1.934406951E+02  1.934406951E+02  0.000000000E+00  0.00000E+00  9.000E+00
      25     1     1     2     0     0 -7.689698910E+01  3.893207712E+02  2.781372165E+02  5.004689012E+02  1.250000000E+02  0.00000E+00  9.000E+00
      25     1     1     2     0     0  1.166549594E+02  2.270960197E+01  2.080825190E+02  2.702728997E+02  1.250000000E+02  0.00000E+00  9.000E+00
      21     1     1     2   512   502 -3.975797034E+01 -4.120303732E+02  7.858213865E+02  8.881807114E+02  1.078959322E-05  0.00000E+00  9.000E+00
#rwgt            1           1   4.2560143026745448E-002           2      503083           0
</event>
<event>
      5   9999  3.79277E-02  2.88210E+01 -1.00000E+00  1.54259E-01
      21    -1     0     0   511   501  0.000000000E+00  0.000000000E+00  5.515075962E+02  5.515075962E+02  0.000000000E+00  0.00000E+00  9.000E+00
      21    -1     0     0   501   502  0.000000000E+00  0.000000000E+00 -1.391406578E+02  1.391406578E+02  0.000000000E+00  0.00000E+00  9.000E+00
      25     1     1     2     0     0  1.100350612E+02  6.420895633E+01 -5.181414832E+01  1.858499683E+02  1.250000000E+02  0.00000E+00  9.000E+00
      25     1     1     2     0     0 -1.067745746E+02 -3.557294415E+01  3.729887476E+02  4.091599320E+02  1.250000000E+02  0.00000E+00  9.000E+00
      21     1     1     2   511   502 -3.260486592E+00 -2.863601218E+01  9.119233914E+01  9.563835363E+01  0.000000000E+00  0.00000E+00  9.000E+00
#rwgt            1           1   3.8698838340732976E-002           2      503136           0
</event>
<event>
      5   9999  3.79277E-02  1.12023E+01 -1.00000E+00  1.90225E-01
      21    -1     0     0   512   501  0.000000000E+00  0.000000000E+00  4.985889778E+02  4.985889778E+02  0.000000000E+00  0.00000E+00  9.000E+00
      21    -1     0     0   501   502  0.000000000E+00  0.000000000E+00 -7.582481186E+01  7.582481186E+01  0.000000000E+00  0.00000E+00  9.000E+00
      25     1     1     2     0     0  1.380266150E+01  5.022152848E+01  3.842305172E+02  4.073951469E+02  1.250000000E+02  0.00000E+00  9.000E+00
      25     1     1     2     0     0 -1.530692477E+01 -3.912072240E+01  5.331775619E+00  1.319778796E+02  1.250000000E+02  0.00000E+00  9.000E+00
      21     1     1     2   512   502  1.504263269E+00 -1.110080609E+01  3.320187321E+01  3.504076324E+01  4.768371582E-07  0.00000E+00  9.000E+00
#rwgt            1           1   1.7963443611037792E-002           2      503279           0
</event>
<event>
      5   9999  3.79277E-02  3.21313E+02 -1.00000E+00  1.04632E-01
      21    -1     0     0   502   501  0.000000000E+00  0.000000000E+00  1.575665847E+02  1.575665847E+02  0.000000000E+00  0.00000E+00  9.000E+00
      21    -1     0     0   501   511  0.000000000E+00  0.000000000E+00 -1.077319343E+03  1.077319343E+03  0.000000000E+00  0.00000E+00  9.000E+00
      25     1     1     2     0     0  1.604785514E+02  1.891961815E+02 -3.081400316E+02  4.148781022E+02  1.250000000E+02  0.00000E+00  9.000E+00
      25     1     1     2     0     0 -6.930893895E+01  1.189112727E+02 -8.807417323E+01  2.057320582E+02  1.250000000E+02  0.00000E+00  9.000E+00
      21     1     1     2   502   511 -9.116961248E+01 -3.081074541E+02 -5.235385538E+02  6.142757677E+02  0.000000000E+00  0.00000E+00  9.000E+00
#rwgt            1           1   4.3265205991028448E-002           2      503518           0
</event>
<event>
      5   9999  3.79277E-02  8.44432E+01 -1.00000E+00  1.27223E-01
       1    -1     0     0   502     0  0.000000000E+00  0.000000000E+00  1.935734328E+02  1.935734328E+02  0.000000000E+00  0.00000E+00  9.000E+00
      21    -1     0     0   501   502  0.000000000E+00  0.000000000E+00 -6.026666863E+02  6.026666863E+02  0.000000000E+00  0.00000E+00  9.000E+00
      25     1     1     2     0     0 -4.352388584E-01 -1.078772072E+02 -4.439099299E+02  4.736229588E+02  1.250000000E+02  0.00000E+00  9.000E+00
      25     1     1     2     0     0 -7.812901053E+01  7.692061902E+01 -7.639356204E+01  1.829806007E+02  1.250000000E+02  0.00000E+00  9.000E+00
       1     1     1     2   501     0  7.856424939E+01  3.095658818E+01  1.112102384E+02  1.396365595E+02  2.697398305E-06  0.00000E+00  9.000E+00
#rwgt            1           1   4.8907904005532916E-002           2      503563           0
</event>
<event>
      5   9999  3.79277E-02  4.04634E+01 -1.00000E+00  1.44531E-01
      21    -1     0     0   511   501  0.000000000E+00  0.000000000E+00  5.821455751E+02  5.821455751E+02  0.000000000E+00  0.00000E+00  9.000E+00
      21    -1     0     0   501   502  0.000000000E+00  0.000000000E+00 -1.102595370E+02  1.102595370E+02  0.000000000E+00  0.00000E+00  9.000E+00
      25     1     1     2     0     0  5.347780085E+01 -1.109315772E+02  4.140887249E+01  1.802924977E+02  1.250000000E+02  0.00000E+00  9.000E+00
      25     1     1     2     0     0 -9.267205063E+01  1.209861805E+02  2.102304701E+02  2.881798317E+02  1.250000000E+02  0.00000E+00  9.000E+00
      21     1     1     2   511   502  3.919424979E+01 -1.005460332E+01  2.202466956E+02  2.239327827E+02  2.697398305E-06  0.00000E+00  9.000E+00
#rwgt            1           1   2.4368377410596893E-002           2      503697           0
</event>
<event>
      5   9999  3.79277E-02  8.00625E+01 -1.00000E+00  1.28333E-01
      21    -1     0     0   502   501  0.000000000E+00  0.000000000E+00  4.073170423E+02  4.073170423E+02  0.000000000E+00  0.00000E+00  9.000E+00
      21    -1     0     0   512   502  0.000000000E+00  0.000000000E+00 -5.318546741E+02  5.318546741E+02  0.000000000E+00  0.00000E+00  9.000E+00
      25     1     1     2     0     0 -9.221742503E+01 -7.992051590E+01  4.723063609E+01  1.809615300E+02  1.250000000E+02  0.00000E+00  9.000E+00
      25     1     1     2     0     0  1.282418741E+01  9.025124380E+01  2.689535113E+02  3.102752617E+02  1.250000000E+02  0.00000E+00  9.000E+00
      21     1     1     2   512   501  7.939323763E+01 -1.033072789E+01 -4.407217792E+02  4.479349247E+02  5.394796609E-06  0.00000E+00  9.000E+00
#rwgt            1           1   3.3936817713977517E-002           2      503801           0
</event>
<event>
      5   9999  3.79277E-02  1.16321E+02 -1.00000E+00  1.20945E-01
      21    -1     0     0   511   501  0.000000000E+00  0.000000000E+00  1.539119204E+03  1.539119204E+03  0.000000000E+00  0.00000E+00  9.000E+00
      21    -1     0     0   501   502  0.000000000E+00  0.000000000E+00 -1.660658010E+02  1.660658010E+02  0.000000000E+00  0.00000E+00  9.000E+00
      25     1     1     2     0     0 -3.897770068E+01 -8.711333887E+01  1.811727894E+02  2.399095133E+02  1.250000000E+02  0.00000E+00  9.000E+00
      25     1     1     2     0     0 -2.328393221E+01  1.853688007E+02 -3.965643891E+01  2.282572385E+02  1.250000000E+02  0.00000E+00  9.000E+00
      21     1     1     2   511   502  6.226163289E+01 -9.825546187E+01  1.231537053E+03  1.237018254E+03  1.525878906E-05  0.00000E+00  9.000E+00
#rwgt            1           1  0.14894919258877351                2      503901           0
</event>
<event>
      5   9999  3.79277E-02  4.81420E+01 -1.00000E+00  1.40020E-01
      21    -1     0     0   502   512  0.000000000E+00  0.000000000E+00  2.097023375E+03  2.097023375E+03  0.000000000E+00  0.00000E+00  9.000E+00
      21    -1     0     0   501   502  0.000000000E+00  0.000000000E+00 -1.582075792E+01  1.582075792E+01  0.000000000E+00  0.00000E+00  9.000E+00
      25     1     1     2     0     0  1.051691039E+02 -3.702611734E+01  1.111972826E+03  1.124517692E+03  1.250000000E+02  0.00000E+00  9.000E+00
      25     1     1     2     0     0 -7.112084016E+01  2.991314531E+00  6.720379581E+02  6.872606048E+02  1.250000000E+02  0.00000E+00  9.000E+00
      21     1     1     2   501   512 -3.404826379E+01  3.403480281E+01  2.971918334E+02  3.010658365E+02  3.814697266E-06  0.00000E+00  9.000E+00
#rwgt            1           1   5.2979109577893140E-002           2      503967           0
</event>
<event>
      5   9999  3.79277E-02  1.22491E+02 -1.00000E+00  1.19991E-01
       2    -1     0     0   502     0  0.000000000E+00  0.000000000E+00  4.704448971E+03  4.704448971E+03  0.000000000E+00  0.00000E+00  9.000E+00
      21    -1     0     0   501   502  0.000000000E+00  0.000000000E+00 -2.056315833E+02  2.056315833E+02  0.000000000E+00  0.00000E+00  9.000E+00
      25     1     1     2     0     0  1.022648019E+02 -5.926170472E+01  4.018645410E+02  4.371385920E+02  1.250000000E+02  0.00000E+00  9.000E+00
      25     1     1     2     0     0 -1.661965529E+02 -4.522184408E+01 -1.265912486E+02  2.476219974E+02  1.250000000E+02  0.00000E+00  9.000E+00
       2     1     1     2   501     0  6.393175104E+01  1.044835488E+02  4.223544095E+03  4.225319965E+03  6.103515625E-05  0.00000E+00  9.000E+00
#rwgt            1           1   3.6275419151042265E-002           2      504050           0
</event>
<event>
      5   9999  3.79277E-02  9.37863E+01 -1.00000E+00  1.25094E-01
      21    -1     0     0   502   501  0.000000000E+00  0.000000000E+00  1.887990914E+02  1.887990914E+02  0.000000000E+00  0.00000E+00  9.000E+00
      21    -1     0     0   501   511  0.000000000E+00  0.000000000E+00 -1.206050970E+03  1.206050970E+03  0.000000000E+00  0.00000E+00  9.000E+00
      25     1     1     2     0     0 -1.600219335E+02  1.252199610E+02 -8.679868906E+01  2.538623057E+02  1.250000000E+02  0.00000E+00  9.000E+00
      25     1     1     2     0     0  1.696109117E+02 -3.192512539E+01 -7.449258431E+00  2.132312511E+02  1.250000000E+02  0.00000E+00  9.000E+00
      21     1     1     2   502   511 -9.588978272E+00 -9.329483564E+01 -9.230039314E+02  9.277565048E+02  0.000000000E+00  0.00000E+00  9.000E+00
#rwgt            1           1   3.2366395444248727E-002           2      504385           0
</event>
<event>
      5   9999  3.79277E-02  2.56637E+01 -1.00000E+00  1.57903E-01
      21    -1     0     0   502   512  0.000000000E+00  0.000000000E+00  6.587147573E+02  6.587147573E+02  0.000000000E+00  0.00000E+00  9.000E+00
      21    -1     0     0   501   502  0.000000000E+00  0.000000000E+00 -6.391761917E+01  6.391761917E+01  0.000000000E+00  0.00000E+00  9.000E+00
      25     1     1     2     0     0  4.657158764E+01  1.213878831E+02  1.421211140E+02  2.296243497E+02  1.250000000E+02  0.00000E+00  9.000E+00
      25     1     1     2     0     0 -5.811628567E+01 -9.846745369E+01  4.008010072E+02  4.351319219E+02  1.250000000E+02  0.00000E+00  9.000E+00
      21     1     1     2   501   512  1.154469803E+01 -2.292042936E+01  5.187501690E+01  5.787610485E+01  6.743495762E-07  0.00000E+00  9.000E+00
#rwgt            1           1   4.7612348451771654E-002           2      504558           0
</event>
<event>
      5   9999  3.79277E-02  7.76828E+01 -1.00000E+00  1.28970E-01
      21    -1     0     0   502   501  0.000000000E+00  0.000000000E+00  1.233419851E+02  1.233419851E+02  0.000000000E+00  0.00000E+00  9.000E+00
      21    -1     0     0   501   511  0.000000000E+00  0.000000000E+00 -3.525335810E+02  3.525335810E+02  0.000000000E+00  0.00000E+00  9.000E+00
      25     1     1     2     0     0 -1.007026649E+02 -9.849458941E+01 -6.413337543E+01  1.989479849E+02  1.250000000E+02  0.00000E+00  9.000E+00
      25     1     1     2     0     0  3.219489861E+01  6.187082547E+01 -9.112313503E+01  1.696848145E+02  1.250000000E+02  0.00000E+00  9.000E+00
      21     1     1     2   502   511  6.850776631E+01  3.662376394E+01 -7.393508543E+01  1.072427666E+02  1.348699152E-06  0.00000E+00  9.000E+00
#rwgt            1           1   4.3050295091347217E-002           2      504725           0
</event>
<event>
      5   9999 -3.79277E-02  2.13119E+02 -1.00000E+00  1.10653E-01
      21    -1     0     0   502   501  0.000000000E+00  0.000000000E+00  6.204579289E+02  6.204579289E+02  0.000000000E+00  0.00000E+00  9.000E+00
      21    -1     0     0   512   502  0.000000000E+00  0.000000000E+00 -6.995991083E+02  6.995991083E+02  0.000000000E+00  0.00000E+00  9.000E+00
      25     1     1     2     0     0  1.147688727E+02 -1.212539182E+02  2.491296102E+02  3.249076322E+02  1.250000000E+02  0.00000E+00  9.000E+00
      25     1     1     2     0     0 -2.777165823E+02 -1.610537143E+01  2.400924694E+02  3.881433716E+02  1.250000000E+02  0.00000E+00  9.000E+00
      21     1     1     2   512   501  1.629477096E+02  1.373592896E+02 -5.683632589E+02  6.070060334E+02  7.629394531E-06  0.00000E+00  9.000E+00
#rwgt            1           1  -4.4177462921113339E-002           2      504892           0
</event>
<event>
      5   9999  3.79277E-02  1.81308E+01 -1.00000E+00  1.69964E-01
      21    -1     0     0   502   501  0.000000000E+00  0.000000000E+00  1.128299824E+03  1.128299824E+03  0.000000000E+00  0.00000E+00  9.000E+00
      21    -1     0     0   511   502  0.000000000E+00  0.000000000E+00 -2.897368818E+01  2.897368818E+01  0.000000000E+00  0.00000E+00  9.000E+00
      25     1     1     2     0     0 -9.969807634E+00  9.447923757E+01  4.637589647E+02  4.896152579E+02  1.250000000E+02  0.00000E+00  9.000E+00
      25     1     1     2     0     0  2.353458472E+01 -1.065093022E+02  6.250625721E+02  6.467042038E+02  1.250000000E+02  0.00000E+00  9.000E+00
      21     1     1     2   511   501 -1.356477708E+01  1.203006464E+01  1.050459898E+01  2.095405050E+01  5.960464478E-07  0.00000E+00  9.000E+00
#rwgt            1           1   3.9448668056634995E-002           2      504926           0
</event>
<event>
      5   9999 -3.79277E-02  1.61136E+01 -1.00000E+00  1.74503E-01
      21    -1     0     0   502   501  0.000000000E+00  0.000000000E+00  1.528732872E+02  1.528732872E+02  0.000000000E+00  0.00000E+00  9.000E+00
      21    -1     0     0   501   512  0.000000000E+00  0.000000000E+00 -4.806127880E+02  4.806127880E+02  0.000000000E+00  0.00000E+00  9.000E+00
      25     1     1     2     0     0  1.491086808E+02  9.047305986E+01 -1.761171722E+02  2.775986880E+02  1.250000000E+02  0.00000E+00  9.000E+00
      25     1     1     2     0     0 -1.332548009E+02 -8.759150486E+01  7.959503473E-01  2.026197108E+02  1.250000000E+02  0.00000E+00  9.000E+00
      21     1     1     2   502   512 -1.585387995E+01 -2.881555001E+00 -1.524182789E+02  1.532676764E+02  1.907348633E-06  0.00000E+00  9.000E+00
#rwgt            1           1 -0.31889702557796878                2      505166           0
</event>
<event>
      5   9999  3.79277E-02  2.84951E+01 -1.00000E+00  1.54609E-01
      21    -1     0     0   502   501  0.000000000E+00  0.000000000E+00  2.361084592E+02  2.361084592E+02  0.000000000E+00  0.00000E+00  9.000E+00
      21    -1     0     0   501   511  0.000000000E+00  0.000000000E+00 -3.584711123E+02  3.584711123E+02  0.000000000E+00  0.00000E+00  9.000E+00
      25     1     1     2     0     0  2.051919166E+02  9.397518573E+01 -2.320547402E+01  2.590338823E+02  1.250000000E+02  0.00000E+00  9.000E+00
      25     1     1     2     0     0 -2.235167370E+02 -7.215388891E+01 -3.890477387E+01  2.688949550E+02  1.250000000E+02  0.00000E+00  9.000E+00
      21     1     1     2   502   511  1.832482046E+01 -2.182129682E+01 -6.025240519E+01  6.665073421E+01  9.536743164E-07  0.00000E+00  9.000E+00
#rwgt            1           1   3.3162141563494028E-002           2      505376           0
</event>
<event>
      5   9999  3.79277E-02  1.45513E+01 -1.00000E+00  1.78635E-01
      21    -1     0     0   512   501  0.000000000E+00  0.000000000E+00  2.422430900E+02  2.422430900E+02  0.000000000E+00  0.00000E+00  9.000E+00
      21    -1     0     0   501   502  0.000000000E+00  0.000000000E+00 -2.781489780E+02  2.781489780E+02  0.000000000E+00  0.00000E+00  9.000E+00
      25     1     1     2     0     0 -4.852051492E+01 -1.839256683E+02 -1.134797051E+02  2.543335120E+02  1.250000000E+02  0.00000E+00  9.000E+00
      25     1     1     2     0     0  5.330526508E+01  1.976678415E+02  7.162398197E+01  2.503378150E+02  1.250000000E+02  0.00000E+00  9.000E+00
      21     1     1     2   512   502 -4.784750160E+00 -1.374217321E+01  5.949835241E+00  1.572074101E+01  8.429369702E-08  0.00000E+00  9.000E+00
#rwgt            1           1   4.2130864057194808E-002           2      505534           0
</event>
<event>
      5   9999  3.79277E-02  2.94098E+01 -1.00000E+00  1.53642E-01
      21    -1     0     0   502   501  0.000000000E+00  0.000000000E+00  4.321003159E+02  4.321003159E+02  0.000000000E+00  0.00000E+00  9.000E+00
      21    -1     0     0   511   502  0.000000000E+00  0.000000000E+00 -1.500255273E+02  1.500255273E+02  0.000000000E+00  0.00000E+00  9.000E+00
      25     1     1     2     0     0 -1.731205346E+02 -7.480906488E+00 -2.559727337E+00  2.136778782E+02  1.250000000E+02  0.00000E+00  9.000E+00
      25     1     1     2     0     0  1.488743761E+02 -9.164266410E+00  2.761599266E+02  3.378414845E+02  1.250000000E+02  0.00000E+00  9.000E+00
      21     1     1     2   511   501  2.424615844E+01  1.664517290E+01  8.474589335E+00  3.060648043E+01  3.576278687E-07  0.00000E+00  9.000E+00
#rwgt            1           1   4.5820330858614727E-002           2      505734           0
</event>
<event>
      5   9999  3.79277E-02  5.06005E+01 -1.00000E+00  1.38780E-01
      21    -1     0     0   502   501  0.000000000E+00  0.000000000E+00  1.365941964E+03  1.365941964E+03  0.000000000E+00  0.00000E+00  9.000E+00
      21    -1     0     0   512   502  0.000000000E+00  0.000000000E+00 -6.488853453E+02  6.488853453E+02  0.000000000E+00  0.00000E+00  9.000E+00
      25     1     1     2     0     0 -1.102517921E+02 -9.077504905E+01  1.231044723E+03  1.245588888E+03  1.250000000E+02  0.00000E+00  9.000E+00
      25     1     1     2     0     0  7.729580562E+01  5.237819475E+01  7.845549213E+01  1.746378570E+02  1.250000000E+02  0.00000E+00  9.000E+00
      21     1     1     2   512   501  3.295598650E+01  3.839685431E+01 -5.924435969E+02  5.946005642E+02  0.000000000E+00  0.00000E+00  9.000E+00
#rwgt            1           1   4.4313517463401571E-002           2      505903           0
</event>
<event>
      5   9999  3.79277E-02  2.57562E+01 -1.00000E+00  1.57788E-01
      21    -1     0     0   502   501  0.000000000E+00  0.000000000E+00  1.601972176E+02  1.601972176E+02  0.000000000E+00  0.00000E+00  9.000E+00
      21    -1     0     0   501   511  0.000000000E+00  0.000000000E+00 -6.655483836E+02  6.655483836E+02  0.000000000E+00  0.00000E+00  9.000E+00
      25     1     1     2     0     0 -3.056956127E+01 -7.676169368E+01  1.046609799E+02  1.827724717E+02  1.250000000E+02  0.00000E+00  9.000E+00
      25     1     1     2     0     0  1.590620842E+01  5.558703656E+01 -2.808141901E+02  3.127691408E+02  1.250000000E+02  0.00000E+00  9.000E+00
      21     1     1     2   502   511  1.466335285E+01  2.117465712E+01 -3.291979559E+02  3.302039887E+02  3.814697266E-06  0.00000E+00  9.000E+00
#rwgt            1           1   2.8063820043137278E-002           2      506023           0
</event>
<event>
      5   9999 -3.79277E-02  1.94005E+02 -1.00000E+00  1.12131E-01
      21    -1     0     0   502   501  0.000000000E+00  0.000000000E+00  2.246770328E+02  2.246770328E+02  0.000000000E+00  0.00000E+00  9.000E+00
      21    -1     0     0   501   512  0.000000000E+00  0.000000000E+00 -6.336472526E+02  6.336472526E+02  0.000000000E+00  0.00000E+00  9.000E+00
      25     1     1     2     0     0  2.593994673E+02  4.283134755E+01 -1.685684795E+02  3.363969980E+02  1.250000000E+02  0.00000E+00  9.000E+00
      25     1     1     2     0     0 -1.278130990E+02  9.972751611E+01  1.024807618E+01  2.049677750E+02  1.250000000E+02  0.00000E+00  9.000E+00
      21     1     1     2   502   512 -1.315863684E+02 -1.425588637E+02 -2.506498164E+02  3.169595123E+02  4.672030912E-06  0.00000E+00  9.000E+00
#rwgt            1           1 -0.13312314436737763                2      506190           0
</event>
<event>
      5   9999  3.79277E-02  4.06328E+01 -1.00000E+00  1.44419E-01
      21    -1     0     0   502   501  0.000000000E+00  0.000000000E+00  9.877208993E+02  9.877208993E+02  0.000000000E+00  0.00000E+00  9.000E+00
      -2    -1     0     0     0   502  0.000000000E+00  0.000000000E+00 -4.404298351E+01  4.404298351E+01  0.000000000E+00  0.00000E+00  9.000E+00
      25     1     1     2     0     0 -7.831759872E+01 -1.007850147E+02  6.814696062E+02  7.044977570E+02  1.250000000E+02  0.00000E+00  9.000E+00
      25     1     1     2     0     0  4.329274515E+01  8.018680891E+01  2.168387674E+02  2.663611029E+02  1.250000000E+02  0.00000E+00  9.000E+00
      -2     1     1     2     0   501  3.502485357E+01  2.059820582E+01  4.536954212E+01  6.090502281E+01  9.536743164E-07  0.00000E+00  9.000E+00
#rwgt            1           1   4.7258252949444857E-002           2      506246           0
</event>
<event>
      5   9999  3.79277E-02  4.78005E+00 -1.00000E+00  2.46478E-01
      21    -1     0     0   502   511  0.000000000E+00  0.000000000E+00  1.417232412E+03  1.417232412E+03  0.000000000E+00  0.00000E+00  9.000E+00
      21    -1     0     0   501   502  0.000000000E+00  0.000000000E+00 -1.141676959E+02  1.141676959E+02  0.000000000E+00  0.00000E+00  9.000E+00
      25     1     1     2     0     0 -1.205142684E+02  2.474585076E+02  3.590728827E+02  4.693801625E+02  1.250000000E+02  0.00000E+00  9.000E+00
      25     1     1     2     0     0  1.208254253E+02 -2.426885913E+02  3.185972004E+02  4.366070451E+02  1.250000000E+02  0.00000E+00  9.000E+00
      21     1     1     2   501   511 -3.111569176E-01 -4.769916343E+00  6.253946326E+02  6.254128999E+02  1.078959322E-05  0.00000E+00  9.000E+00
#rwgt            1           1   3.2579672542303775E-002           2      506349           0
</event>
<event>
      5   9999  3.79277E-02  4.63318E+01 -1.00000E+00  1.40990E-01
      21    -1     0     0   502   501  0.000000000E+00  0.000000000E+00  5.336121335E+02  5.336121335E+02  0.000000000E+00  0.00000E+00  9.000E+00
       1    -1     0     0   501     0  0.000000000E+00  0.000000000E+00 -7.048905785E+02  7.048905785E+02  0.000000000E+00  0.00000E+00  9.000E+00
      25     1     1     2     0     0  1.984368842E+01 -1.135429674E+02  3.122877855E+02  3.555762062E+02  1.250000000E+02  0.00000E+00  9.000E+00
      25     1     1     2     0     0  1.624176323E+01  1.426028467E+02  1.532936440E+02  2.443835266E+02  1.250000000E+02  0.00000E+00  9.000E+00
       1     1     1     2   502     0 -3.608545166E+01 -2.905987934E+01 -6.368598746E+02  6.385429792E+02  7.629394531E-06  0.00000E+00  9.000E+00
#rwgt            1           1   3.7826212885775055E-002           2      506815           0
</event>
<event>
      5   9999  3.79277E-02  1.21690E+01 -1.00000E+00  1.86392E-01
      21    -1     0     0   511   501  0.000000000E+00  0.000000000E+00  1.045918193E+02  1.045918193E+02  0.000000000E+00  0.00000E+00  9.000E+00
      21    -1     0     0   501   502  0.000000000E+00  0.000000000E+00 -4.655854077E+02  4.655854077E+02  0.000000000E+00  0.00000E+00  9.000E+00
      25     1     1     2     0     0 -6.415780316E+01 -9.337444144E+01 -3.557437317E+02  3.937176815E+02  1.250000000E+02  0.00000E+00  9.000E+00
      25     1     1     2     0     0  5.247119927E+01  8.998216572E+01 -1.083140646E+01  1.630715679E+02  1.250000000E+02  0.00000E+00  9.000E+00
      21     1     1     2   511   502  1.168660389E+01  3.392275721E+00  5.581549889E+00  1.338797760E+01  3.674277069E-07  0.00000E+00  9.000E+00
#rwgt            1           1   4.2803086239810155E-002           2      506973           0
</event>
<event>
      5   9999  3.79277E-02  1.19910E+02 -1.00000E+00  1.20382E-01
      21    -1     0     0   502   501  0.000000000E+00  0.000000000E+00  3.332350886E+02  3.332350886E+02  0.000000000E+00  0.00000E+00  9.000E+00
      21    -1     0     0   501   512  0.000000000E+00  0.000000000E+00 -4.605629965E+02  4.605629965E+02  0.000000000E+00  0.00000E+00  9.000E+00
      25     1     1     2     0     0 -8.816747430E+01  2.148015902E+01 -1.296073437E+02  2.016382015E+02  1.250000000E+02  0.00000E+00  9.000E+00
      25     1     1     2     0     0  1.476568657E+02  8.263191628E+01  2.440997298E+02  3.222425510E+02  1.250000000E+02  0.00000E+00  9.000E+00
      21     1     1     2   502   512 -5.948939137E+01 -1.041120753E+02 -2.418202939E+02  2.699173326E+02  0.000000000E+00  0.00000E+00  9.000E+00
#rwgt            1           1   2.4332044026981421E-002           2      507254           0
</event>
<event>
      5   9999  3.79277E-02  3.93491E+01 -1.00000E+00  1.45283E-01
      21    -1     0     0   511   501  0.000000000E+00  0.000000000E+00  4.189668657E+02  4.189668657E+02  0.000000000E+00  0.00000E+00  9.000E+00
      21    -1     0     0   501   502  0.000000000E+00  0.000000000E+00 -5.502470859E+02  5.502470859E+02  0.000000000E+00  0.00000E+00  9.000E+00
      25     1     1     2     0     0  1.910711137E+01  4.639931588E+01  8.471385465E+00  1.349620042E+02  1.250000000E+02  0.00000E+00  9.000E+00
      25     1     1     2     0     0 -5.582556605E+01 -3.225347073E+01 -4.756745085E+02  4.960322754E+02  1.250000000E+02  0.00000E+00  9.000E+00
      21     1     1     2   511   502  3.671845468E+01 -1.414584515E+01  3.359229028E+02  3.382196719E+02  3.814697266E-06  0.00000E+00  9.000E+00
#rwgt            1           1   3.8581713463488335E-002           2      507340           0
</event>
<event>
      5   9999  3.79277E-02  3.71421E+01 -1.00000E+00  1.46865E-01
      21    -1     0     0   502   501  0.000000000E+00  0.000000000E+00  1.165405349E+03  1.165405349E+03  0.000000000E+00  0.00000E+00  9.000E+00
      21    -1     0     0   512   502  0.000000000E+00  0.000000000E+00 -5.233738481E+02  5.233738481E+02  0.000000000E+00  0.00000E+00  9.000E+00
      25     1     1     2     0     0  1.214430503E+02 -2.234412817E+02  5.049008680E+02  5.789855847E+02  1.250000000E+02  0.00000E+00  9.000E+00
      25     1     1     2     0     0 -1.293662609E+02  1.871541227E+02  5.956572039E+02  6.497651881E+02  1.250000000E+02  0.00000E+00  9.000E+00
      21     1     1     2   512   501  7.923210599E+00  3.628715897E+01 -4.585265708E+02  4.600284245E+02  5.394796609E-06  0.00000E+00  9.000E+00
#rwgt            1           1   4.2970569299837849E-002           2      507546           0
</event>
<event>
      5   9999  3.79277E-02  1.64246E+01 -1.00000E+00  1.73750E-01
      21    -1     0     0   502   501  0.000000000E+00  0.000000000E+00  6.894937178E+01  6.894937178E+01  0.000000000E+00  0.00000E+00  9.000E+00
      21    -1     0     0   501   511  0.000000000E+00  0.000000000E+00 -1.346279615E+03  1.346279615E+03  0.000000000E+00  0.00000E+00  9.000E+00
      25     1     1     2     0     0 -1.202320389E+02  8.617429251E+01 -1.467764911E+02  2.430022432E+02  1.250000000E+02  0.00000E+00  9.000E+00
      25     1     1     2     0     0  1.110367795E+02 -7.256488976E+01 -3.795558114E+02  4.210492176E+02  1.250000000E+02  0.00000E+00  9.000E+00
      21     1     1     2   502   511  9.195259466E+00 -1.360940275E+01 -7.509979408E+02  7.511775261E+02  1.868812365E-05  0.00000E+00  9.000E+00
#rwgt            1           1   3.4697558573544028E-002           2      507766           0
</event>
<event>
      5   9999  3.79277E-02  5.37118E+01 -1.00000E+00  1.37324E-01
      21    -1     0     0   502   512  0.000000000E+00  0.000000000E+00  1.575632475E+02  1.575632475E+02  0.000000000E+00  0.00000E+00  9.000E+00
      21    -1     0     0   501   502  0.000000000E+00  0.000000000E+00 -7.963318148E+02  7.963318148E+02  0.000000000E+00  0.00000E+00  9.000E+00
      25     1     1     2     0     0 -1.682580646E+02  4.039649251E+01 -4.455459892E+02  4.940434003E+02  1.250000000E+02  0.00000E+00  9.000E+00
      25     1     1     2     0     0  2.042439996E+02 -8.027088417E+01 -2.676967027E+02  3.680292799E+02  1.250000000E+02  0.00000E+00  9.000E+00
      21     1     1     2   501   512 -3.598593504E+01  3.987439166E+01  7.447412450E+01  9.182238208E+01  2.697398305E-06  0.00000E+00  9.000E+00
#rwgt            1           1   3.8010697232625484E-002           2      507971           0
</event>
<event>
      5   9999  3.79277E-02  2.39630E+01 -1.00000E+00  1.60141E-01
      21    -1     0     0   502   501  0.000000000E+00  0.000000000E+00  1.753621787E+02  1.753621787E+02  0.000000000E+00  0.00000E+00  9.000E+00
      21    -1     0     0   501   511  0.000000000E+00  0.000000000E+00 -2.935703907E+02  2.935703907E+02  0.000000000E+00  0.00000E+00  9.000E+00
      25     1     1     2     0     0 -7.141485309E+01 -1.227321063E+02 -1.016193606E+02  2.147434414E+02  1.250000000E+02  0.00000E+00  9.000E+00
      25     1     1     2     0     0  4.745280003E+01  1.229399587E+02  4.583135240E+01  1.873272925E+02  1.250000000E+02  0.00000E+00  9.000E+00
      21     1     1     2   502   511  2.396205306E+01 -2.078523109E-01 -6.242020380E+01  6.686183540E+01  1.348699152E-06  0.00000E+00  9.000E+00
#rwgt            1           1   3.9131345379796754E-002           2      508053           0
</event>
<event>
      5   9999  3.79277E-02  6.18373E+01 -1.00000E+00  1.34007E-01
      21    -1     0     0   502   501  0.000000000E+00  0.000000000E+00  3.570196582E+02  3.570196582E+02  0.000000000E+00  0.00000E+00  9.000E+00
       1    -1     0     0   501     0  0.000000000E+00  0.000000000E+00 -2.072706360E+02  2.072706360E+02  0.000000000E+00  0.00000E+00  9.000E+00
      25     1     1     2     0     0 -4.532800116E+01 -4.981857656E+01  1.362359128E+02  1.967784089E+02  1.250000000E+02  0.00000E+00  9.000E+00
      25     1     1     2     0     0 -1.614129245E+01  5.655441052E+01  1.582825273E+02  2.100887934E+02  1.250000000E+02  0.00000E+00  9.000E+00
       1     1     1     2   502     0  6.146929361E+01 -6.735833958E+00 -1.447694179E+02  1.574230919E+02  1.907348633E-06  0.00000E+00  9.000E+00
#rwgt            1           1   2.8539005476559416E-002           2      508315           0
</event>
<event>
      5   9999  3.79277E-02  7.03028E+00 -1.00000E+00  2.15289E-01
      21    -1     0     0   502   511  0.000000000E+00  0.000000000E+00  1.656795102E+02  1.656795102E+02  0.000000000E+00  0.00000E+00  9.000E+00
      21    -1     0     0   501   502  0.000000000E+00  0.000000000E+00 -4.991487530E+02  4.991487530E+02  0.000000000E+00  0.00000E+00  9.000E+00
      25     1     1     2     0     0 -9.187847054E+01  1.594377147E+02 -3.703110349E+02  4.319922462E+02  1.250000000E+02  0.00000E+00  9.000E+00
      25     1     1     2     0     0  9.784477977E+01 -1.557191182E+02  3.833977583E+01  2.256479185E+02  1.250000000E+02  0.00000E+00  9.000E+00
      21     1     1     2   501   511 -5.966309231E+00 -3.718596518E+00 -1.497983707E+00  7.188098573E+00  2.107342426E-08  0.00000E+00  9.000E+00
#rwgt            1           1   3.9741821725579322E-002           2      508420           0
</event>
<event>
      5   9999  3.79277E-02  1.06326E+02 -1.00000E+00  1.22642E-01
      21    -1     0     0   502   501  0.000000000E+00  0.000000000E+00  3.740143321E+02  3.740143321E+02  0.000000000E+00  0.00000E+00  9.000E+00
      21    -1     0     0   512   502  0.000000000E+00  0.000000000E+00 -4.774838642E+02  4.774838642E+02  0.000000000E+00  0.00000E+00  9.000E+00
      25     1     1     2     0     0 -2.351418556E+02 -8.086003899E+01  5.027132532E+01  2.828113228E+02  1.250000000E+02  0.00000E+00  9.000E+00
      25     1     1     2     0     0  2.345506785E+02  1.871841450E+02  5.943279639E+01  3.304681259E+02  1.250000000E+02  0.00000E+00  9.000E+00
      21     1     1     2   512   501  5.911771207E-01 -1.063241060E+02 -2.131736538E+02  2.382187476E+02  3.814697266E-06  0.00000E+00  9.000E+00
#rwgt            1           1   3.5166897826032037E-002           2      508705           0
</event>
<event>
      5   9999  3.79277E-02  1.14638E+02 -1.00000E+00  1.21217E-01
      21    -1     0     0   502   501  0.000000000E+00  0.000000000E+00  5.234034363E+02  5.234034363E+02  0.000000000E+00  0.00000E+00  9.000E+00
       1    -1     0     0   501     0  0.000000000E+00  0.000000000E+00 -3.383548956E+02  3.383548956E+02  0.000000000E+00  0.00000E+00  9.000E+00
      25     1     1     2     0     0  5.652315421E+01  2.344083306E+02  3.900858655E+02  4.753252727E+02  1.250000000E+02  0.00000E+00  9.000E+00
      25     1     1     2     0     0 -8.792974749E+01 -1.241568216E+02 -6.925428689E+01  2.087288028E+02  1.250000000E+02  0.00000E+00  9.000E+00
       1     1     1     2   502     0  3.140659328E+01 -1.102515090E+02 -1.357830380E+02  1.777042564E+02  2.697398305E-06  0.00000E+00  9.000E+00
#rwgt            2          12   7.0079089870799487E-005           2      508996           0
</event>
<event>
      5   9999  3.79277E-02  2.65869E+01 -1.00000E+00  1.56775E-01
      21    -1     0     0   511   501  0.000000000E+00  0.000000000E+00  2.618398766E+02  2.618398766E+02  0.000000000E+00  0.00000E+00  9.000E+00
      21    -1     0     0   501   502  0.000000000E+00  0.000000000E+00 -2.355833473E+02  2.355833473E+02  0.000000000E+00  0.00000E+00  9.000E+00
      25     1     1     2     0     0 -1.269985559E+02 -4.175901497E+01 -1.137798511E+02  2.155070836E+02  1.250000000E+02  0.00000E+00  9.000E+00
      25     1     1     2     0     0  1.502905970E+02  5.457862130E+01  8.354028360E+01  2.194768062E+02  1.250000000E+02  0.00000E+00  9.000E+00
      21     1     1     2   511   502 -2.329204113E+01 -1.281960633E+01  5.649609684E+01  6.243933411E+01  6.743495762E-07  0.00000E+00  9.000E+00
#rwgt            1           1   3.8028390974669292E-002           2      509045           0
</event>
<event>
      5   9999  3.79277E-02  1.61808E+01 -1.00000E+00  1.74338E-01
      21    -1     0     0   502   501  0.000000000E+00  0.000000000E+00  5.461101583E+01  5.461101583E+01  0.000000000E+00  0.00000E+00  9.000E+00
      21    -1     0     0   512   502  0.000000000E+00  0.000000000E+00 -7.318258396E+02  7.318258396E+02  0.000000000E+00  0.00000E+00  9.000E+00
      25     1     1     2     0     0  4.748176492E+01 -9.910649110E+01 -1.419860488E+02  2.187730619E+02  1.250000000E+02  0.00000E+00  9.000E+00
      25     1     1     2     0     0 -3.158626722E+01  1.021317209E+02 -4.159021800E+02  4.472451274E+02  1.250000000E+02  0.00000E+00  9.000E+00
      21     1     1     2   512   501 -1.589549769E+01 -3.025229836E+00 -1.193265950E+02  1.204186661E+02  1.348699152E-06  0.00000E+00  9.000E+00
#rwgt            1           1   4.2755395228430693E-002           2      509271           0
</event>
<event>
      5   9999  3.79277E-02  7.70129E+01 -1.00000E+00  1.29155E-01
      21    -1     0     0   502   511  0.000000000E+00  0.000000000E+00  3.343004838E+02  3.343004838E+02  0.000000000E+00  0.00000E+00  9.000E+00
      21    -1     0     0   501   502  0.000000000E+00  0.000000000E+00 -2.234509863E+02  2.234509863E+02  0.000000000E+00  0.00000E+00  9.000E+00
      25     1     1     2     0     0  6.063294710E+01  1.592678229E+01 -1.219063602E+02  1.855159759E+02  1.250000000E+02  0.00000E+00  9.000E+00
      25     1     1     2     0     0 -1.183855853E+02  3.502050115E+01  6.443340255E+01  1.871316266E+02  1.250000000E+02  0.00000E+00  9.000E+00
      21     1     1     2   501   511  5.775263815E+01 -5.094728343E+01  1.683224552E+02  1.851038676E+02  2.697398305E-06  0.00000E+00  9.000E+00
#rwgt            1           1   1.9664301207052658E-002           2      509554           0
</event>
<event>
      5   9999  3.79277E-02  2.07250E+01 -1.00000E+00  1.65103E-01
      21    -1     0     0   502   512  0.000000000E+00  0.000000000E+00  6.162153867E+01  6.162153867E+01  0.000000000E+00  0.00000E+00  9.000E+00
      21    -1     0     0   501   502  0.000000000E+00  0.000000000E+00 -9.280346469E+02  9.280346469E+02  0.000000000E+00  0.00000E+00  9.000E+00
      25     1     1     2     0     0 -5.376254753E+01  2.769277636E+01 -5.907248539E+01  1.509034788E+02  1.250000000E+02  0.00000E+00  9.000E+00
      25     1     1     2     0     0  6.758107321E+01 -1.224693265E+01 -8.054066240E+02  8.179376619E+02  1.250000000E+02  0.00000E+00  9.000E+00
      21     1     1     2   501   512 -1.381852568E+01 -1.544584372E+01 -1.933998826E+00  2.081504484E+01  4.726276257E-07  0.00000E+00  9.000E+00
#rwgt            1           1   4.0060148874553718E-002           2      509602           0
</event>
<event>
      5   9999 -3.79277E-02  7.20332E+01 -1.00000E+00  1.30594E-01
      21    -1     0     0   502   511  0.000000000E+00  0.000000000E+00  1.214367040E+03  1.214367040E+03  0.000000000E+00  0.00000E+00  9.000E+00
      21    -1     0     0   501   502  0.000000000E+00  0.000000000E+00 -2.817875448E+02  2.817875448E+02  0.000000000E+00  0.00000E+00  9.000E+00
      25     1     1     2     0     0 -7.817397277E+01 -3.271016513E+01 -2.486425338E+02  2.909110423E+02  1.250000000E+02  0.00000E+00  9.000E+00
      25     1     1     2     0     0  9.043212712E+01 -3.827233981E+01  6.497216273E+02  6.688840965E+02  1.250000000E+02  0.00000E+00  9.000E+00
      21     1     1     2   501   511 -1.225815434E+01  7.098250495E+01  5.315004013E+02  5.363594457E+02  7.629394531E-06  0.00000E+00  9.000E+00
#rwgt            1           1 -0.12095760128530988                2      509767           0
</event>
<event>
      5   9999  3.79277E-02  1.91645E+01 -1.00000E+00  1.67913E-01
      21    -1     0     0   512   501  0.000000000E+00  0.000000000E+00  5.093003632E+02  5.093003632E+02  0.000000000E+00  0.00000E+00  9.000E+00
      21    -1     0     0   501   502  0.000000000E+00  0.000000000E+00 -1.627830547E+02  1.627830547E+02  0.000000000E+00  0.00000E+00  9.000E+00
      25     1     1     2     0     0  1.160260806E+02 -2.084368892E+01  2.919857161E+02  3.387877937E+02  1.250000000E+02  0.00000E+00  9.000E+00
      25     1     1     2     0     0 -1.312850185E+02  3.243868539E+01 -7.755975511E+01  1.998212701E+02  1.250000000E+02  0.00000E+00  9.000E+00
      21     1     1     2   512   502  1.525893784E+01 -1.159499646E+01  1.320913474E+02  1.334743541E+02  0.000000000E+00  0.00000E+00  9.000E+00
#rwgt            1           1   2.4754746114159138E-002           2      509936           0
</event>
<event>
      5   9999  3.79277E-02  1.26384E+02 -1.00000E+00  1.19420E-01
       5    -1     0     0   502     0  0.000000000E+00  0.000000000E+00  8.249033217E+02  8.249033217E+02  0.000000000E+00  0.00000E+00  9.000E+00
      21    -1     0     0   501   502  0.000000000E+00  0.000000000E+00 -2.256260619E+02  2.256260619E+02  0.000000000E+00  0.00000E+00  9.000E+00
      25     1     1     2     0     0  7.062716730E+01  2.352520973E+00  1.136193594E+02  1.831067720E+02  1.250000000E+02  0.00000E+00  9.000E+00
      25     1     1     2     0     0  5.369952209E+01  2.035998690E+01 -1.591409415E+02  2.103544794E+02  1.250000000E+02  0.00000E+00  9.000E+00
       5     1     1     2   501     0 -1.243266894E+02 -2.271250787E+01  6.447988420E+02  6.570681322E+02  7.629394531E-06  0.00000E+00  9.000E+00
#rwgt            1           1   4.1086858466818477E-002           2      510286           0
</event>
<event>
      5   9999  3.79277E-02  5.31186E+01 -1.00000E+00  1.37593E-01
      21    -1     0     0   511   501  0.000000000E+00  0.000000000E+00  8.913675744E+01  8.913675744E+01  0.000000000E+00  0.00000E+00  9.000E+00
      21    -1     0     0   501   502  0.000000000E+00  0.000000000E+00 -6.676334536E+02  6.676334536E+02  0.000000000E+00  0.00000E+00  9.000E+00
      25     1     1     2     0     0  3.569391171E+01 -6.651882099E+01 -1.334905951E+02  1.978472842E+02  1.250000000E+02  0.00000E+00  9.000E+00
      25     1     1     2     0     0 -7.396573211E+01  1.033543306E+02 -4.681798012E+02  5.009694336E+02  1.250000000E+02  0.00000E+00  9.000E+00
      21     1     1     2   511   502  3.827182040E+01 -3.683550956E+01  2.317370012E+01  5.795349324E+01  5.840038640E-07  0.00000E+00  9.000E+00
#rwgt            1           1   3.9998392203307316E-002           2      510341           0
</event>
<event>
      5   9999  3.79277E-02  1.28578E+01 -1.00000E+00  1.83930E-01
      21    -1     0     0   502   512  0.000000000E+00  0.000000000E+00  5.405927913E+01  5.405927913E+01  0.000000000E+00  0.00000E+00  9.000E+00
      21    -1     0     0   501   502  0.000000000E+00  0.000000000E+00 -9.678627779E+02  9.678627779E+02  0.000000000E+00  0.00000E+00  9.000E+00
      25     1     1     2     0     0  1.485693974E+02  2.752614620E+01 -2.050974570E+02  2.837613812E+02  1.250000000E+02  0.00000E+00  9.000E+00
      25     1     1     2     0     0 -1.360235934E+02 -2.471107555E+01 -6.941613174E+02  7.187475146E+02  1.250000000E+02  0.00000E+00  9.000E+00
      21     1     1     2   501   512 -1.254580406E+01 -2.815070651E+00 -1.454472438E+01  1.941316125E+01  2.920019320E-07  0.00000E+00  9.000E+00
#rwgt            1           1   4.8294670046808631E-002           2      510481           0
</event>
<event>
      5   9999  3.79277E-02  1.07377E+01 -1.00000E+00  1.92250E-01
      21    -1     0     0   502   501  0.000000000E+00  0.000000000E+00  3.123241683E+02  3.123241683E+02  0.000000000E+00  0.00000E+00  9.000E+00
      21    -1     0     0   511   502  0.000000000E+00  0.000000000E+00 -4.515136646E+02  4.515136646E+02  0.000000000E+00  0.00000E+00  9.000E+00
      25     1     1     2     0     0 -4.381264430E+00  1.561793831E+02 -1.199057222E+02  2.332671803E+02  1.250000000E+02  0.00000E+00  9.000E+00
      25     1     1     2     0     0  6.306208275E+00 -1.667431323E+02  2.129903097E+02  2.980485069E+02  1.250000000E+02  0.00000E+00  9.000E+00
      21     1     1     2   511   501 -1.924943845E+00  1.056374920E+01 -2.322740839E+02  2.325221457E+02  0.000000000E+00  0.00000E+00  9.000E+00
#rwgt            1           1   4.2581143602665975E-002           2      510836           0
</event>
<event>
      5   9999  3.79277E-02  1.06648E+01 -1.00000E+00  1.92580E-01
      21    -1     0     0   502   512  0.000000000E+00  0.000000000E+00  1.337474677E+03  1.337474677E+03  0.000000000E+00  0.00000E+00  9.000E+00
      21    -1     0     0   501   502  0.000000000E+00  0.000000000E+00 -3.453738435E+01  3.453738435E+01  0.000000000E+00  0.00000E+00  9.000E+00
      25     1     1     2     0     0  6.020580687E+01  1.258834060E+02  3.732229985E+02  4.176024158E+02  1.250000000E+02  0.00000E+00  9.000E+00
      25     1     1     2     0     0 -5.669801241E+01 -1.359548284E+02  7.534858628E+02  7.778588081E+02  1.250000000E+02  0.00000E+00  9.000E+00
      21     1     1     2   501   512 -3.507794461E+00  1.007142242E+01  1.762284313E+02  1.765508373E+02  0.000000000E+00  0.00000E+00  9.000E+00
#rwgt            1           1   4.1613772208864967E-002           2      511110           0
</event>
<event>
      5   9999  3.79277E-02  2.81037E+01 -1.00000E+00  1.55036E-01
      21    -1     0     0   502   501  0.000000000E+00  0.000000000E+00  4.978524542E+01  4.978524542E+01  0.000000000E+00  0.00000E+00  9.000E+00
       2    -1     0     0   501     0  0.000000000E+00  0.000000000E+00 -4.317788095E+03  4.317788095E+03  0.000000000E+00  0.00000E+00  9.000E+00
      25     1     1     2     0     0 -1.025350455E+02 -2.776192439E+02 -1.032495648E+03  1.081322405E+03  1.250000000E+02  0.00000E+00  9.000E+00
      25     1     1     2     0     0  9.468615081E+01  3.046046480E+02 -1.135565469E+03  1.186121155E+03  1.250000000E+02  0.00000E+00  9.000E+00
       2     1     1     2   502     0  7.848894727E+00 -2.698540412E+01 -2.099941732E+03  2.100129781E+03  4.315837288E-05  0.00000E+00  9.000E+00
#rwgt            1           1  0.12037129882938609                2      511275           0
</event>
<event>
      5   9999  3.79277E-02  2.14530E+01 -1.00000E+00  1.63895E-01
      21    -1     0     0   502   501  0.000000000E+00  0.000000000E+00  7.242668371E+02  7.242668371E+02  0.000000000E+00  0.00000E+00  9.000E+00
      21    -1     0     0   511   502  0.000000000E+00  0.000000000E+00 -8.749666509E+01  8.749666509E+01  0.000000000E+00  0.00000E+00  9.000E+00
      25     1     1     2     0     0 -5.529842933E+01 -1.128470217E+02  3.930893343E+02  4.312036541E+02  1.250000000E+02  0.00000E+00  9.000E+00
      25     1     1     2     0     0  3.950982769E+01  9.832292079E+01  2.879799517E+02  3.313395174E+02  1.250000000E+02  0.00000E+00  9.000E+00
      21     1     1     2   511   501  1.578860165E+01  1.452410093E+01 -4.429911397E+01  4.922033064E+01  1.066240300E-06  0.00000E+00  9.000E+00
#rwgt            1           1  0.19707715901074099                2      511550           0
</event>
<event>
      5   9999  3.79277E-02  3.46928E+01 -1.00000E+00  1.48781E-01
      21    -1     0     0   502   501  0.000000000E+00  0.000000000E+00  1.311707558E+01  1.311707558E+01  0.000000000E+00  0.00000E+00  9.000E+00
      21    -1     0     0   501   512  0.000000000E+00  0.000000000E+00 -3.163781190E+03  3.163781190E+03  0.000000000E+00  0.00000E+00  9.000E+00
      25     1     1     2     0     0  4.473210681E+01  1.265660695E+01 -4.419513791E+02  4.616353242E+02  1.250000000E+02  0.00000E+00  9.000E+00
      25     1     1     2     0     0 -7.124173007E+01 -3.503583945E+01 -1.879334293E+03  1.885159218E+03  1.250000000E+02  0.00000E+00  9.000E+00
      21     1     1     2   502   512  2.650962326E+01  2.237923250E+01 -8.293784431E+02  8.301037237E+02  1.525878906E-05  0.00000E+00  9.000E+00
#rwgt            1           1   6.9004098113067805E-002           2      511714           0
</event>
</LesHouchesEvents>
 #Random number generator exit values:            2        511809             0
