<LesHouchesEvents version="3.0">
<!--
file generated with POWHEG-BOX-V2
Input file powheg.input contained:
! ggHH production parameters:
mtdep 2              ! 0: Higgs effective field theory (HEFT)

hmass 125            ! Higgs boson mass
topmass 173          ! top quark mass (THIS VALUE IS HARD CODED IN THE VIRTUAL
hdecaymode -1        ! PDG code for Higgs boson decay products (it affects only the SMC)
!                      allowed values are:
!                      0 all decay channels open
!                      1-6 d dbar, u ubar,..., t tbar (as in HERWIG)
!                      7-9 e+ e-, mu+ mu-, tau+ tau-
!                      10  W+W-
!                      11  ZZ
!                      12  gamma gamma
!                      -1  all decay channels closed

! general parameters:
numevts  3000        ! number of events to be generated
ih1         1        ! hadron 1 (1 for protons, -1 for antiprotons)
ih2         1        ! hadron 2 (1 for protons, -1 for antiprotons)
ebeam1 7000d0        ! energy of beam 1
ebeam2 7000d0        ! energy of beam 2
! To be set only if using LHA pdfs
lhans1 90200         ! pdf set for hadron 1 (LHA numbering)
lhans2 90200 	     ! pdf set for hadron 2 (LHA numbering)
! To be set only if using internal mlm pdf
# ndns1 131          ! pdf set for hadron 1 (mlm numbering)
# ndns2 131          ! pdf set for hadron 2 (mlm numbering)
! To be set only if using different pdf sets for the two incoming hadrons
! QCDLambda5 0.25    ! for not equal pdf sets

! Parameters to allow or not the use of stored data
use-old-grid    1    ! if 1 use old grid if file pwggrids.dat is present (<> 1 regenerate)
use-old-ubound  1    ! if 1 use norm of upper bounding function stored in pwgubound.dat, if present;
!
ncall1  10000        ! number of calls for initializing the integration grid
itmx1       3        ! number of iterations for initializing the integration grid
ncall2  10000        ! number of calls for computing the integral and finding upper bound
itmx2       3        ! number of iterations for computing the integral and finding upper bound
foldcsi     1        ! number of folds on csi integration
foldy       1        ! number of folds on  y  integration
foldphi     1        ! number of folds on phi integration
nubound 10000        ! number of bbarra calls to setup norm of upper bounding function
# icsimax   1        ! <= 100, number of csi subdivision when computing the upper bounds
# iymax     1        ! <= 100, number of y subdivision when computing the upper bounds
# xupbound 2d0       ! increase upper bound for radiation generation

! OPTIONAL PARAMETERS

! scale settings:
#fixedscale   1      ! (dafault 0) Use muren = mufac = 2*m_H
facscfact   1d0      ! (default 1d0) fac scale factor: mufact = muref * facscfact
renscfact   1d0      ! (default 1d0) ren scale factor: muren  = muref * renscfact

! Born, plots and powheg strategy:
#bornonly         1  ! (default 0) if 1 do Born only
# testplots 1
fastbtlbound      1  ! fast evaluation of Btilde upper bounds
storemintupb      1  ! store function calls in binary file for more precise generation
ubexcess_correct  1  ! corrects for error in upper bound estimate
storeinfo_rwgt    1  ! store info to allow for reweighting
softtest          0  ! no check of the soft limit in the real
colltest          0  ! no check of the collinear limit in the real

! PARAMETERS needed for ggHH
hdamp           250

! PARAMETERS for parallel runnning
! -- non parallel (for testing purposes only)
#iseed    547        !  Start the random number generator with seed iseed
#rand1     0         !  skipping  rand2*100000000+rand1 numbers.
#rand2     0         !  (see RM48 short writeup in CERNLIB)

! -- parallel
manyseeds 1          ! Used to perform multiple runs with different random
                     ! seeds in the same directory.
                     ! If set to 1, the program asks for an integer j;
                     ! The file pwgseeds.dat at line j is read, and the
                     ! integer at line j is used to initialize the random
                     ! sequence for the generation of the event.
                     ! The event file is called pwgevents-'j'.lhe
parallelstage 4
xgriditeration 1
maxseeds    1000

! PARAMETERS for reweighting
#rwl_file 'reweight_setup.xml'


! PARAMETERS for Pythia8
#py8tune  xxx
#py8hepmc 1
#py8nohad 1
#py8nompi 1
End of powheg.input content
PDF package: lha
 Random number generator initialized with:            1             0             0
-->
<init>
     2212     2212  7.00000E+03  7.00000E+03     -1     -1     -1     -1     -4      1
  3.38081E-02  5.61572E-05  1.00000E+00   9999
</init>
<event>
      5   9999 -3.79277E-02  3.55156E+01 -1.00000E+00  1.48117E-01
      21    -1     0     0   502   511  0.000000000E+00  0.000000000E+00  1.819414321E+03  1.819414321E+03  0.000000000E+00  0.00000E+00  9.000E+00
      21    -1     0     0   501   502  0.000000000E+00  0.000000000E+00 -1.941568288E+02  1.941568288E+02  0.000000000E+00  0.00000E+00  9.000E+00
      25     1     1     2     0     0 -7.923759583E+01  1.982962102E+02  1.406807117E+02  2.846331783E+02  1.250000000E+02  0.00000E+00  9.000E+00
      25     1     1     2     0     0  4.385762385E+01 -2.013972004E+02 -2.861509046E+00  2.410757386E+02  1.250000000E+02  0.00000E+00  9.000E+00
      21     1     1     2   501   511  3.537997199E+01  3.100990269E+00  1.487438290E+03  1.487862233E+03  2.157918644E-05  0.00000E+00  9.000E+00
#rwgt            1           1  -6.0309005112259645E-002           1           1           0
</event>
<event>
      5   9999  3.79277E-02  8.87411E+00 -1.00000E+00  2.01951E-01
      21    -1     0     0   512   501  0.000000000E+00  0.000000000E+00  7.608540008E+01  7.608540008E+01  0.000000000E+00  0.00000E+00  9.000E+00
      21    -1     0     0   501   502  0.000000000E+00  0.000000000E+00 -5.461600903E+02  5.461600903E+02  0.000000000E+00  0.00000E+00  9.000E+00
      25     1     1     2     0     0 -1.218388481E+02  7.163431949E+01 -3.257020021E+02  3.764079898E+02  1.250000000E+02  0.00000E+00  9.000E+00
      25     1     1     2     0     0  1.270557285E+02 -6.445560152E+01 -1.414415113E+02  2.364918261E+02  1.250000000E+02  0.00000E+00  9.000E+00
      21     1     1     2   512   502 -5.216880476E+00 -7.178717975E+00 -2.931176935E+00  9.345674502E+00  1.788139343E-07  0.00000E+00  9.000E+00
#rwgt            1           1   4.8779363334946695E-002           1         149           0
</event>
<event>
      5   9999  3.79277E-02  5.27031E+01 -1.00000E+00  1.37783E-01
      21    -1     0     0   502   501  0.000000000E+00  0.000000000E+00  9.068578861E+02  9.068578861E+02  0.000000000E+00  0.00000E+00  9.000E+00
      21    -1     0     0   501   511  0.000000000E+00  0.000000000E+00 -7.856419952E+01  7.856419952E+01  0.000000000E+00  0.00000E+00  9.000E+00
      25     1     1     2     0     0 -1.139780099E+02  9.308425557E+01  6.553551263E+02  6.832064161E+02  1.250000000E+02  0.00000E+00  9.000E+00
      25     1     1     2     0     0  1.368948320E+02 -4.562440903E+01  1.569408627E+02  2.471380507E+02  1.250000000E+02  0.00000E+00  9.000E+00
      21     1     1     2   502   511 -2.291682209E+01 -4.745984654E+01  1.599769758E+01  5.507761883E+01  6.307962682E-07  0.00000E+00  9.000E+00
#rwgt            1           1  0.18849996776106945                1         652           0
</event>
<event>
      5   9999  3.79277E-02  3.58200E+01 -1.00000E+00  1.47877E-01
      21    -1     0     0   502   501  0.000000000E+00  0.000000000E+00  2.485149252E+02  2.485149252E+02  0.000000000E+00  0.00000E+00  9.000E+00
      21    -1     0     0   512   502  0.000000000E+00  0.000000000E+00 -2.755832811E+03  2.755832811E+03  0.000000000E+00  0.00000E+00  9.000E+00
      25     1     1     2     0     0 -7.747544764E+01  1.973477264E+02 -7.888415074E+00  2.462433698E+02  1.250000000E+02  0.00000E+00  9.000E+00
      25     1     1     2     0     0  8.223520881E+01 -2.328500298E+02 -1.901543948E+01  2.774317085E+02  1.250000000E+02  0.00000E+00  9.000E+00
      21     1     1     2   512   501 -4.759761173E+00  3.550230346E+01 -2.480414031E+03  2.480672658E+03  3.051757812E-05  0.00000E+00  9.000E+00
#rwgt            1           1   2.9523128464312674E-002           1         762           0
</event>
<event>
      5   9999  3.79277E-02  6.43669E+01 -1.00000E+00  1.33093E-01
      21    -1     0     0   502   501  0.000000000E+00  0.000000000E+00  3.752899270E+02  3.752899270E+02  0.000000000E+00  0.00000E+00  9.000E+00
      21    -1     0     0   511   502  0.000000000E+00  0.000000000E+00 -1.915963378E+02  1.915963378E+02  0.000000000E+00  0.00000E+00  9.000E+00
      25     1     1     2     0     0  8.612052307E+01  1.787505700E+02  1.433653649E+02  2.748583974E+02  1.250000000E+02  0.00000E+00  9.000E+00
      25     1     1     2     0     0 -1.228269736E+02 -1.258758089E+02  6.133952688E+01  2.243183503E+02  1.250000000E+02  0.00000E+00  9.000E+00
      21     1     1     2   511   501  3.670645048E+01 -5.287476112E+01 -2.101130257E+01  6.770951711E+01  1.011524364E-06  0.00000E+00  9.000E+00
#rwgt            1           1   3.5352682538218383E-002           1         962           0
</event>
<event>
      5   9999  3.79277E-02  7.70384E+01 -1.00000E+00  1.29147E-01
      21    -1     0     0   502   501  0.000000000E+00  0.000000000E+00  2.710927806E+02  2.710927806E+02  0.000000000E+00  0.00000E+00  9.000E+00
       2    -1     0     0   501     0  0.000000000E+00  0.000000000E+00 -3.291440629E+03  3.291440629E+03  0.000000000E+00  0.00000E+00  9.000E+00
      25     1     1     2     0     0 -3.065689988E+02 -2.785702635E+01  5.113654776E+01  3.361554871E+02  1.250000000E+02  0.00000E+00  9.000E+00
      25     1     1     2     0     0  2.495630253E+02  7.967633671E+01 -1.968709598E+02  3.507323724E+02  1.250000000E+02  0.00000E+00  9.000E+00
       2     1     1     2   502     0  5.700597355E+01 -5.181931036E+01 -2.874613436E+03  2.875645550E+03  0.000000000E+00  0.00000E+00  9.000E+00
#rwgt            1           1   4.5653766089439600E-002           1        1072           0
</event>
<event>
      5   9999  3.79277E-02  2.87268E+01 -1.00000E+00  1.54360E-01
      21    -1     0     0   502   501  0.000000000E+00  0.000000000E+00  2.489894521E+03  2.489894521E+03  0.000000000E+00  0.00000E+00  9.000E+00
      21    -1     0     0   501   511  0.000000000E+00  0.000000000E+00 -6.659979728E+01  6.659979728E+01  0.000000000E+00  0.00000E+00  9.000E+00
      25     1     1     2     0     0 -7.767044636E+01  1.889637661E+02  2.124638615E+03  2.138095940E+03  1.250000000E+02  0.00000E+00  9.000E+00
      25     1     1     2     0     0  8.181701270E+01 -2.173897311E+02  2.763366961E+02  3.820200104E+02  1.250000000E+02  0.00000E+00  9.000E+00
      21     1     1     2   502   511 -4.146566343E+00  2.842596499E+01  2.231941292E+01  3.637836845E+01  2.384185791E-07  0.00000E+00  9.000E+00
#rwgt            1           1   8.6450104216118484E-002           1        1210           0
</event>
<event>
      5   9999  3.79277E-02  5.39341E+01 -1.00000E+00  1.37224E-01
      21    -1     0     0   512   501  0.000000000E+00  0.000000000E+00  1.390731925E+02  1.390731925E+02  0.000000000E+00  0.00000E+00  9.000E+00
      21    -1     0     0   501   502  0.000000000E+00  0.000000000E+00 -4.708869470E+02  4.708869470E+02  0.000000000E+00  0.00000E+00  9.000E+00
      25     1     1     2     0     0  1.165750118E+02 -1.105883293E+02 -6.699622447E+01  2.143198685E+02  1.250000000E+02  0.00000E+00  9.000E+00
      25     1     1     2     0     0 -7.678727019E+01  1.470001335E+02 -2.709201401E+02  3.413620459E+02  1.250000000E+02  0.00000E+00  9.000E+00
      21     1     1     2   512   502 -3.978774160E+01 -3.641180421E+01  6.102609952E+00  5.427822506E+01  7.539457465E-07  0.00000E+00  9.000E+00
#rwgt            1           1  0.17373384260181760                1        1474           0
</event>
<event>
      5   9999  3.79277E-02  5.79539E+01 -1.00000E+00  1.35514E-01
      21    -1     0     0   502   501  0.000000000E+00  0.000000000E+00  7.985228758E+01  7.985228758E+01  0.000000000E+00  0.00000E+00  9.000E+00
      21    -1     0     0   501   511  0.000000000E+00  0.000000000E+00 -7.930553573E+02  7.930553573E+02  0.000000000E+00  0.00000E+00  9.000E+00
      25     1     1     2     0     0  9.703767623E+00  2.597222125E+01 -5.790361818E+02  5.930232872E+02  1.250000000E+02  0.00000E+00  9.000E+00
      25     1     1     2     0     0  3.586771138E+01 -6.177575565E+01 -1.175933155E+01  1.444507480E+02  1.250000000E+02  0.00000E+00  9.000E+00
      21     1     1     2   502   511 -4.557147900E+01  3.580353440E+01 -1.224075564E+02  1.354336097E+02  1.348699152E-06  0.00000E+00  9.000E+00
#rwgt            1           1   3.5635851811706469E-002           1        1582           0
</event>
<event>
      5   9999  3.79277E-02  2.77310E+01 -1.00000E+00  1.55451E-01
      21    -1     0     0   512   501  0.000000000E+00  0.000000000E+00  2.197749828E+02  2.197749828E+02  0.000000000E+00  0.00000E+00  9.000E+00
      21    -1     0     0   501   502  0.000000000E+00  0.000000000E+00 -2.801257577E+02  2.801257577E+02  0.000000000E+00  0.00000E+00  9.000E+00
      25     1     1     2     0     0 -3.233439892E-01  1.135216861E+02 -1.855805488E+02  2.509032041E+02  1.250000000E+02  0.00000E+00  9.000E+00
      25     1     1     2     0     0 -2.577837142E+01 -1.041563297E+02  5.530067644E+01  1.737706254E+02  1.250000000E+02  0.00000E+00  9.000E+00
      21     1     1     2   512   502  2.610171541E+01 -9.365356365E+00  6.992909752E+01  7.522691093E+01  9.536743164E-07  0.00000E+00  9.000E+00
#rwgt            1           1   2.5253608375177643E-002           1        1799           0
</event>
<event>
      5   9999  3.79277E-02  4.60696E+01 -1.00000E+00  1.41135E-01
      21    -1     0     0   511   501  0.000000000E+00  0.000000000E+00  2.072232151E+01  2.072232151E+01  0.000000000E+00  0.00000E+00  9.000E+00
      21    -1     0     0   501   502  0.000000000E+00  0.000000000E+00 -2.990191722E+03  2.990191722E+03  0.000000000E+00  0.00000E+00  9.000E+00
      25     1     1     2     0     0  1.624436178E+02 -1.261386461E+02 -1.225785601E+03  1.249189428E+03  1.250000000E+02  0.00000E+00  9.000E+00
      25     1     1     2     0     0 -1.227278081E+02  1.027920807E+02 -1.504098358E+03  1.517750044E+03  1.250000000E+02  0.00000E+00  9.000E+00
      21     1     1     2   511   502 -3.971580971E+01  2.334656535E+01 -2.395854420E+02  2.439745717E+02  4.672030912E-06  0.00000E+00  9.000E+00
#rwgt            1           1   4.1579455700096267E-002           1        1908           0
</event>
<event>
      5   9999  3.79277E-02  3.39239E+01 -1.00000E+00  1.49422E-01
      21    -1     0     0   502   512  0.000000000E+00  0.000000000E+00  4.995171842E+02  4.995171842E+02  0.000000000E+00  0.00000E+00  9.000E+00
      21    -1     0     0   501   502  0.000000000E+00  0.000000000E+00 -1.306182699E+02  1.306182699E+02  0.000000000E+00  0.00000E+00  9.000E+00
      25     1     1     2     0     0 -1.385539765E+02  7.100675070E+01  1.902816321E+01  2.005647877E+02  1.250000000E+02  0.00000E+00  9.000E+00
      25     1     1     2     0     0  1.236937639E+02 -4.051078060E+01  1.747863755E+02  2.512300691E+02  1.250000000E+02  0.00000E+00  9.000E+00
      21     1     1     2   501   512  1.486021265E+01 -3.049597010E+01  1.750843755E+02  1.783405974E+02  3.303624740E-06  0.00000E+00  9.000E+00
#rwgt            1           1   3.0938227171055696E-002           1        2068           0
</event>
<event>
      5   9999  3.79277E-02  7.47061E+01 -1.00000E+00  1.29805E-01
      21    -1     0     0   511   501  0.000000000E+00  0.000000000E+00  2.013844184E+03  2.013844184E+03  0.000000000E+00  0.00000E+00  9.000E+00
      21    -1     0     0   501   502  0.000000000E+00  0.000000000E+00 -4.836981962E+01  4.836981962E+01  0.000000000E+00  0.00000E+00  9.000E+00
      25     1     1     2     0     0 -1.943804273E+02  4.268108582E+00  4.513657176E+02  5.071074623E+02  1.250000000E+02  0.00000E+00  9.000E+00
      25     1     1     2     0     0  1.213651672E+02  1.153611123E+01  3.761725904E+02  4.147208742E+02  1.250000000E+02  0.00000E+00  9.000E+00
      21     1     1     2   511   502  7.301526018E+01 -1.580421981E+01  1.137936056E+03  1.140385667E+03  0.000000000E+00  0.00000E+00  9.000E+00
#rwgt            1           1   2.8768755546314594E-002           1        2226           0
</event>
<event>
      5   9999  3.79277E-02  1.49627E+02 -1.00000E+00  1.16436E-01
       2    -1     0     0   502     0  0.000000000E+00  0.000000000E+00  1.396524650E+03  1.396524650E+03  0.000000000E+00  0.00000E+00  9.000E+00
      21    -1     0     0   501   502  0.000000000E+00  0.000000000E+00 -2.506911194E+02  2.506911194E+02  0.000000000E+00  0.00000E+00  9.000E+00
      25     1     1     2     0     0  1.668554775E+02 -1.039763401E+02 -8.494349037E+01  2.479762614E+02  1.250000000E+02  0.00000E+00  9.000E+00
      25     1     1     2     0     0 -1.915530890E+02  2.515513078E+02  2.906956404E+02  4.473249397E+02  1.250000000E+02  0.00000E+00  9.000E+00
       2     1     1     2   501     0  2.469761151E+01 -1.475749677E+02  9.400813804E+02  9.519145680E+02  1.525878906E-05  0.00000E+00  9.000E+00
#rwgt            1           1   4.3254477314491682E-002           1        2302           0
</event>
<event>
      5   9999  3.79277E-02  1.43128E+01 -1.00000E+00  1.79324E-01
      21    -1     0     0   502   501  0.000000000E+00  0.000000000E+00  1.065867331E+03  1.065867331E+03  0.000000000E+00  0.00000E+00  9.000E+00
      -4    -1     0     0     0   502  0.000000000E+00  0.000000000E+00 -5.099437850E+01  5.099437850E+01  0.000000000E+00  0.00000E+00  9.000E+00
      25     1     1     2     0     0 -2.192404222E+01 -1.434883332E+01  8.830983545E+02  8.922859723E+02  1.250000000E+02  0.00000E+00  9.000E+00
      25     1     1     2     0     0  7.714612298E+00  1.263169894E+01  1.535305501E+02  1.985338884E+02  1.250000000E+02  0.00000E+00  9.000E+00
      -4     1     1     2     0   501  1.420942992E+01  1.717134371E+00 -2.175595192E+01  2.604184888E+01  7.152557373E-07  0.00000E+00  9.000E+00
#rwgt            1           1   9.9842430201372324E-003           1        2356           0
</event>
<event>
      5   9999  3.79277E-02  3.44379E+01 -1.00000E+00  1.48992E-01
      21    -1     0     0   502   501  0.000000000E+00  0.000000000E+00  2.522425532E+03  2.522425532E+03  0.000000000E+00  0.00000E+00  9.000E+00
      21    -1     0     0   501   511  0.000000000E+00  0.000000000E+00 -7.126163523E+01  7.126163523E+01  0.000000000E+00  0.00000E+00  9.000E+00
      25     1     1     2     0     0  2.276478946E+02  2.156379051E+02  1.491791298E+03  1.529506308E+03  1.250000000E+02  0.00000E+00  9.000E+00
      25     1     1     2     0     0 -2.607240507E+02 -2.252262439E+02  9.621876821E+02  1.029628101E+03  1.250000000E+02  0.00000E+00  9.000E+00
      21     1     1     2   502   511  3.307615607E+01  9.588338782E+00 -2.815083721E+00  3.455275731E+01  3.053829302E-07  0.00000E+00  9.000E+00
#rwgt            1           1   9.4283797234576167E-002           1        2600           0
</event>
<event>
      5   9999  3.79277E-02  3.47530E+02 -1.00000E+00  1.03557E-01
      21    -1     0     0   502   501  0.000000000E+00  0.000000000E+00  7.391646610E+02  7.391646610E+02  0.000000000E+00  0.00000E+00  9.000E+00
      21    -1     0     0   501   512  0.000000000E+00  0.000000000E+00 -8.746409264E+02  8.746409264E+02  0.000000000E+00  0.00000E+00  9.000E+00
      25     1     1     2     0     0 -2.142051790E+02  2.921703875E+02  2.991715217E+02  4.861851432E+02  1.250000000E+02  0.00000E+00  9.000E+00
      25     1     1     2     0     0  5.213330840E+02 -1.295369095E+02  2.414069015E+01  5.520650037E+02  1.250000000E+02  0.00000E+00  9.000E+00
      21     1     1     2   502   512 -3.071279050E+02 -1.626334780E+02 -4.587884773E+02  5.755554405E+02  7.629394531E-06  0.00000E+00  9.000E+00
#rwgt            2          11   1.6785422103734507E-003           1        2750           0
</event>
<event>
      5   9999  3.79277E-02  3.09164E+01 -1.00000E+00  1.52138E-01
      21    -1     0     0   502   511  0.000000000E+00  0.000000000E+00  1.786034630E+03  1.786034630E+03  0.000000000E+00  0.00000E+00  9.000E+00
      21    -1     0     0   501   502  0.000000000E+00  0.000000000E+00 -3.731695619E+02  3.731695619E+02  0.000000000E+00  0.00000E+00  9.000E+00
      25     1     1     2     0     0 -1.349669665E+02  1.126583026E+02 -2.363433754E+02  3.199861970E+02  1.250000000E+02  0.00000E+00  9.000E+00
      25     1     1     2     0     0  1.040505500E+02 -1.126782479E+02  8.314593161E+00  1.980329189E+02  1.250000000E+02  0.00000E+00  9.000E+00
      21     1     1     2   501   511  3.091641650E+01  1.994530942E-02  1.640893851E+03  1.641185076E+03  2.157918644E-05  0.00000E+00  9.000E+00
#rwgt            1           1   2.5930585044077862E-002           1        2890           0
</event>
<event>
      5   9999  3.79277E-02  1.45225E+02 -1.00000E+00  1.16953E-01
      21    -1     0     0   502   512  0.000000000E+00  0.000000000E+00  9.992014421E+01  9.992014421E+01  0.000000000E+00  0.00000E+00  9.000E+00
      21    -1     0     0   501   502  0.000000000E+00  0.000000000E+00 -1.280792149E+03  1.280792149E+03  0.000000000E+00  0.00000E+00  9.000E+00
      25     1     1     2     0     0 -7.427352731E+01 -8.225022040E+01 -9.658108413E+02  9.801516397E+02  1.250000000E+02  0.00000E+00  9.000E+00
      25     1     1     2     0     0 -6.324348386E+01  1.289332115E+02 -1.450022266E+02  2.393201976E+02  1.250000000E+02  0.00000E+00  9.000E+00
      21     1     1     2   501   512  1.375170112E+02 -4.668299109E+01 -7.005893711E+01  1.612404561E+02  2.697398305E-06  0.00000E+00  9.000E+00
#rwgt            1           1   4.3278441884098219E-002           1        3116           0
</event>
<event>
      5   9999  3.79277E-02  1.25279E+02 -1.00000E+00  1.19580E-01
       1    -1     0     0   502     0  0.000000000E+00  0.000000000E+00  1.035217047E+03  1.035217047E+03  0.000000000E+00  0.00000E+00  9.000E+00
      21    -1     0     0   501   502  0.000000000E+00  0.000000000E+00 -2.135857458E+02  2.135857458E+02  0.000000000E+00  0.00000E+00  9.000E+00
      25     1     1     2     0     0 -1.631082994E+02 -3.670361652E+01 -9.326165684E+01  2.286355384E+02  1.250000000E+02  0.00000E+00  9.000E+00
      25     1     1     2     0     0  1.267659674E+02  1.565958317E+02  2.538460993E+02  3.473538645E+02  1.250000000E+02  0.00000E+00  9.000E+00
       1     1     1     2   501     0  3.634233194E+01 -1.198922152E+02  6.610468583E+02  6.728133896E+02  0.000000000E+00  0.00000E+00  9.000E+00
#rwgt            1           1   3.7432882620549959E-002           1        3252           0
</event>
<event>
      5   9999 -3.79277E-02  1.86324E+02 -1.00000E+00  1.12779E-01
      21    -1     0     0   511   501  0.000000000E+00  0.000000000E+00  6.105732713E+02  6.105732713E+02  0.000000000E+00  0.00000E+00  9.000E+00
      21    -1     0     0   501   502  0.000000000E+00  0.000000000E+00 -3.355018025E+02  3.355018025E+02  0.000000000E+00  0.00000E+00  9.000E+00
      25     1     1     2     0     0 -2.693340271E+02 -1.948022744E+02 -1.331782590E+02  3.792758798E+02  1.250000000E+02  0.00000E+00  9.000E+00
      25     1     1     2     0     0  1.044295561E+02  1.080659131E+02  1.410381255E+02  2.410405082E+02  1.250000000E+02  0.00000E+00  9.000E+00
      21     1     1     2   511   502  1.649044710E+02  8.673636133E+01  2.672116023E+02  3.257586858E+02  0.000000000E+00  0.00000E+00  9.000E+00
#rwgt            1           1  -4.3330189185395052E-002           1        3377           0
</event>
<event>
      5   9999  3.79277E-02  3.42952E+01 -1.00000E+00  1.49110E-01
      21    -1     0     0   502   512  0.000000000E+00  0.000000000E+00  4.313512502E+02  4.313512502E+02  0.000000000E+00  0.00000E+00  9.000E+00
      21    -1     0     0   501   502  0.000000000E+00  0.000000000E+00 -2.173016947E+02  2.173016947E+02  0.000000000E+00  0.00000E+00  9.000E+00
      25     1     1     2     0     0 -1.272762714E+02  1.455386633E+02  2.280618289E+01  2.313565943E+02  1.250000000E+02  0.00000E+00  9.000E+00
      25     1     1     2     0     0  1.531097274E+02 -1.680951697E+02  4.038875811E+01  2.625925103E+02  1.250000000E+02  0.00000E+00  9.000E+00
      21     1     1     2   501   512 -2.583345606E+01  2.255650640E+01  1.508546146E+02  1.547038402E+02  2.697398305E-06  0.00000E+00  9.000E+00
#rwgt            1           1   3.1316129637394788E-002           1        3533           0
</event>
<event>
      5   9999  3.79277E-02  8.55489E+00 -1.00000E+00  2.03934E-01
      21    -1     0     0   502   501  0.000000000E+00  0.000000000E+00  8.052141491E+01  8.052141491E+01  0.000000000E+00  0.00000E+00  9.000E+00
      21    -1     0     0   511   502  0.000000000E+00  0.000000000E+00 -5.555383125E+02  5.555383125E+02  0.000000000E+00  0.00000E+00  9.000E+00
      25     1     1     2     0     0  1.443505015E+02  8.573563957E+01 -2.416159166E+02  3.196731429E+02  1.250000000E+02  0.00000E+00  9.000E+00
      25     1     1     2     0     0 -1.429385114E+02 -7.729807719E+01 -2.230129559E+02  3.029293470E+02  1.250000000E+02  0.00000E+00  9.000E+00
      21     1     1     2   511   501 -1.411990064E+00 -8.437562380E+00 -1.038802508E+01  1.345723746E+01  1.685873940E-07  0.00000E+00  9.000E+00
#rwgt            1           1   3.1755981562160654E-002           1        3855           0
</event>
<event>
      5   9999  3.79277E-02  4.89307E+00 -1.00000E+00  2.44419E-01
      21    -1     0     0   502   501  0.000000000E+00  0.000000000E+00  5.994307765E+02  5.994307765E+02  0.000000000E+00  0.00000E+00  9.000E+00
      21    -1     0     0   501   512  0.000000000E+00  0.000000000E+00 -2.091628109E+02  2.091628109E+02  0.000000000E+00  0.00000E+00  9.000E+00
      25     1     1     2     0     0 -1.597687980E+02  2.006769764E+02  3.381037520E+02  4.424211397E+02  1.250000000E+02  0.00000E+00  9.000E+00
      25     1     1     2     0     0  1.611230960E+02 -2.053788957E+02  1.088944846E+02  3.092315502E+02  1.250000000E+02  0.00000E+00  9.000E+00
      21     1     1     2   502   512 -1.354297921E+00  4.701919325E+00 -5.673027100E+01  5.694089757E+01  1.168007728E-06  0.00000E+00  9.000E+00
#rwgt            1           1   3.5222980483378789E-002           1        4097           0
</event>
<event>
      5   9999  3.79277E-02  7.94808E+01 -1.00000E+00  1.28486E-01
      21    -1     0     0   502   501  0.000000000E+00  0.000000000E+00  1.060702697E+02  1.060702697E+02  0.000000000E+00  0.00000E+00  9.000E+00
      21    -1     0     0   511   502  0.000000000E+00  0.000000000E+00 -6.069661484E+02  6.069661484E+02  0.000000000E+00  0.00000E+00  9.000E+00
      25     1     1     2     0     0 -7.187199921E+01  1.485131644E+02 -1.681006240E+02  2.666543907E+02  1.250000000E+02  0.00000E+00  9.000E+00
      25     1     1     2     0     0  7.831818675E+00 -1.014381363E+02 -7.718478017E+01  1.786995332E+02  1.250000000E+02  0.00000E+00  9.000E+00
      21     1     1     2   511   501  6.404018054E+01 -4.707502811E+01 -2.556104746E+02  2.676824942E+02  3.814697266E-06  0.00000E+00  9.000E+00
#rwgt            1           1   4.0126670178440578E-002           1        4580           0
</event>
<event>
      5   9999  3.79277E-02  3.20853E+01 -1.00000E+00  1.51040E-01
      21    -1     0     0   512   501  0.000000000E+00  0.000000000E+00  2.631012373E+02  2.631012373E+02  0.000000000E+00  0.00000E+00  9.000E+00
      21    -1     0     0   501   502  0.000000000E+00  0.000000000E+00 -2.764755448E+02  2.764755448E+02  0.000000000E+00  0.00000E+00  9.000E+00
      25     1     1     2     0     0 -4.585180159E+01 -1.362371141E+02  4.235717120E+01  1.951462757E+02  1.250000000E+02  0.00000E+00  9.000E+00
      25     1     1     2     0     0  7.793644671E+01  1.360292562E+02 -1.463910543E+02  2.482607279E+02  1.250000000E+02  0.00000E+00  9.000E+00
      21     1     1     2   512   502 -3.208464512E+01  2.078578918E-01  9.065957557E+01  9.616977851E+01  1.348699152E-06  0.00000E+00  9.000E+00
#rwgt            1           1   4.0936869931746944E-002           1        4636           0
</event>
<event>
      5   9999  3.79277E-02  1.77715E+01 -1.00000E+00  1.70717E-01
      21    -1     0     0   502   501  0.000000000E+00  0.000000000E+00  1.689093171E+03  1.689093171E+03  0.000000000E+00  0.00000E+00  9.000E+00
      21    -1     0     0   511   502  0.000000000E+00  0.000000000E+00 -3.114278136E+01  3.114278136E+01  0.000000000E+00  0.00000E+00  9.000E+00
      25     1     1     2     0     0 -4.969003324E+01 -1.176190008E+02  7.059800849E+02  7.282418617E+02  1.250000000E+02  0.00000E+00  9.000E+00
      25     1     1     2     0     0  4.660004663E+01  1.001182046E+02  9.586176722E+02  9.730200721E+02  1.250000000E+02  0.00000E+00  9.000E+00
      21     1     1     2   511   501  3.089986609E+00  1.750079623E+01 -6.647367522E+00  1.897401858E+01  1.168007728E-06  0.00000E+00  9.000E+00
#rwgt            1           1  0.12472989349825074                1        4765           0
</event>
<event>
      5   9999  3.79277E-02  2.85088E+01 -1.00000E+00  1.54594E-01
       2    -1     0     0   502     0  0.000000000E+00  0.000000000E+00  6.200056183E+02  6.200056183E+02  0.000000000E+00  0.00000E+00  9.000E+00
      21    -1     0     0   501   502  0.000000000E+00  0.000000000E+00 -6.637209656E+01  6.637209656E+01  0.000000000E+00  0.00000E+00  9.000E+00
      25     1     1     2     0     0 -1.350795726E+02 -4.487615262E+00  2.273725762E+02  2.925575465E+02  1.250000000E+02  0.00000E+00  9.000E+00
      25     1     1     2     0     0  1.400706983E+02  3.255606310E+01  2.665048814E+02  3.276118886E+02  1.250000000E+02  0.00000E+00  9.000E+00
       2     1     1     2   501     0 -4.991125741E+00 -2.806844784E+01  5.975606424E+01  6.620827980E+01  1.507891493E-06  0.00000E+00  9.000E+00
#rwgt            1           1   3.5650504169477432E-002           1        4862           0
</event>
<event>
      5   9999  3.79277E-02  7.13027E+00 -1.00000E+00  2.14428E-01
      21    -1     0     0   502   511  0.000000000E+00  0.000000000E+00  1.888159577E+03  1.888159577E+03  0.000000000E+00  0.00000E+00  9.000E+00
      21    -1     0     0   501   502  0.000000000E+00  0.000000000E+00 -1.497932840E+02  1.497932840E+02  0.000000000E+00  0.00000E+00  9.000E+00
      25     1     1     2     0     0  8.612303922E+00 -4.260959203E+01 -9.290692804E+01  1.616986283E+02  1.250000000E+02  0.00000E+00  9.000E+00
      25     1     1     2     0     0 -1.513479536E+00  4.194069425E+01  1.708457481E+02  2.158114503E+02  1.250000000E+02  0.00000E+00  9.000E+00
      21     1     1     2   501   511 -7.098824385E+00  6.688977864E-01  1.660427473E+03  1.660442783E+03  2.157918644E-05  0.00000E+00  9.000E+00
#rwgt            1           1   3.7513949918550456E-002           1        4953           0
</event>
<event>
      5   9999  3.79277E-02  1.21993E+02 -1.00000E+00  1.20065E-01
      21    -1     0     0   502   512  0.000000000E+00  0.000000000E+00  1.281624742E+03  1.281624742E+03  0.000000000E+00  0.00000E+00  9.000E+00
      21    -1     0     0   501   502  0.000000000E+00  0.000000000E+00 -9.208154200E+01  9.208154200E+01  0.000000000E+00  0.00000E+00  9.000E+00
      25     1     1     2     0     0 -1.240092078E+02  7.234578819E+01  8.159266884E+02  8.378386226E+02  1.250000000E+02  0.00000E+00  9.000E+00
      25     1     1     2     0     0  6.370035745E+01 -1.783894308E+02  1.253911960E+02  2.592845476E+02  1.250000000E+02  0.00000E+00  9.000E+00
      21     1     1     2   501   512  6.030885036E+01  1.060436426E+02  2.482253157E+02  2.765831140E+02  3.814697266E-06  0.00000E+00  9.000E+00
#rwgt            1           1   4.0866275137065984E-002           1        5235           0
</event>
<event>
      5   9999  3.79277E-02  1.26032E+02 -1.00000E+00  1.19471E-01
      21    -1     0     0   502   511  0.000000000E+00  0.000000000E+00  4.767904272E+02  4.767904272E+02  0.000000000E+00  0.00000E+00  9.000E+00
      21    -1     0     0   501   502  0.000000000E+00  0.000000000E+00 -2.600875101E+02  2.600875101E+02  0.000000000E+00  0.00000E+00  9.000E+00
      25     1     1     2     0     0 -3.008083076E+02  1.081593955E+02  7.855219218E+01  3.521072843E+02  1.250000000E+02  0.00000E+00  9.000E+00
      25     1     1     2     0     0  1.767064264E+02 -8.618631125E+01  8.520071915E+01  2.480673375E+02  1.250000000E+02  0.00000E+00  9.000E+00
      21     1     1     2   501   511  1.241018812E+02 -2.197308426E+01  5.295000583E+01  1.367033155E+02  1.348699152E-06  0.00000E+00  9.000E+00
#rwgt            1           1   3.4222248252922437E-002           1        5427           0
</event>
<event>
      5   9999  3.79277E-02  4.74053E+01 -1.00000E+00  1.40409E-01
      21    -1     0     0   502   512  0.000000000E+00  0.000000000E+00  5.102968117E+02  5.102968117E+02  0.000000000E+00  0.00000E+00  9.000E+00
      21    -1     0     0   501   502  0.000000000E+00  0.000000000E+00 -3.981965059E+02  3.981965059E+02  0.000000000E+00  0.00000E+00  9.000E+00
      25     1     1     2     0     0  1.059707630E+02  2.809729447E+01 -2.578713684E+02  3.068255257E+02  1.250000000E+02  0.00000E+00  9.000E+00
      25     1     1     2     0     0 -1.100219683E+02 -7.532913096E+01 -4.154407368E+01  1.874305779E+02  1.250000000E+02  0.00000E+00  9.000E+00
      21     1     1     2   501   512  4.051205303E+00  4.723183649E+01  4.115157479E+02  4.142372139E+02  0.000000000E+00  0.00000E+00  9.000E+00
#rwgt            1           1   6.1265974598789387E-002           1        5663           0
</event>
<event>
      5   9999  3.79277E-02  8.29117E+01 -1.00000E+00  1.27602E-01
      21    -1     0     0   502   501  0.000000000E+00  0.000000000E+00  4.030142184E+02  4.030142184E+02  0.000000000E+00  0.00000E+00  9.000E+00
      21    -1     0     0   501   511  0.000000000E+00  0.000000000E+00 -1.324583954E+03  1.324583954E+03  0.000000000E+00  0.00000E+00  9.000E+00
      25     1     1     2     0     0  8.347794965E+01  1.682378028E+02  6.822971213E+01  2.356964573E+02  1.250000000E+02  0.00000E+00  9.000E+00
      25     1     1     2     0     0 -1.025035888E+00 -1.769474988E+02  2.026020871E+02  2.966210945E+02  1.250000000E+02  0.00000E+00  9.000E+00
      21     1     1     2   502   511 -8.245291377E+01  8.709696003E+00 -1.192401535E+03  1.195280621E+03  0.000000000E+00  0.00000E+00  9.000E+00
#rwgt            1           1   3.3916027504684532E-002           1        5800           0
</event>
<event>
      5   9999  3.79277E-02  2.16709E+01 -1.00000E+00  1.63544E-01
       2    -1     0     0   502     0  0.000000000E+00  0.000000000E+00  4.844462418E+03  4.844462418E+03  0.000000000E+00  0.00000E+00  9.000E+00
      21    -1     0     0   501   502  0.000000000E+00  0.000000000E+00 -3.122472567E+02  3.122472567E+02  0.000000000E+00  0.00000E+00  9.000E+00
      25     1     1     2     0     0  6.722861211E+01 -1.842020203E+02  5.434658352E+01  2.388066618E+02  1.250000000E+02  0.00000E+00  9.000E+00
      25     1     1     2     0     0 -6.004675361E+01  1.637557280E+02 -1.676644023E+02  2.723194868E+02  1.250000000E+02  0.00000E+00  9.000E+00
       2     1     1     2   501     0 -7.181858499E+00  2.044629224E+01  4.645532980E+03  4.645583526E+03  0.000000000E+00  0.00000E+00  9.000E+00
#rwgt            1           1   3.6904796197797456E-002           1        5866           0
</event>
<event>
      5   9999 -3.79277E-02  7.32968E+01 -1.00000E+00  1.30216E-01
      21    -1     0     0   502   511  0.000000000E+00  0.000000000E+00  4.308351693E+02  4.308351693E+02  0.000000000E+00  0.00000E+00  9.000E+00
      21    -1     0     0   501   502  0.000000000E+00  0.000000000E+00 -2.251868040E+02  2.251868040E+02  0.000000000E+00  0.00000E+00  9.000E+00
      25     1     1     2     0     0 -7.319759063E+01  1.066556225E+02 -1.197170401E+02  2.160797972E+02  1.250000000E+02  0.00000E+00  9.000E+00
      25     1     1     2     0     0  4.738662002E+01 -1.752574710E+02  2.185964796E+02  3.104353294E+02  1.250000000E+02  0.00000E+00  9.000E+00
      21     1     1     2   501   511  2.581097061E+01  6.860184847E+01  1.067689257E+02  1.295068466E+02  1.348699152E-06  0.00000E+00  9.000E+00
#rwgt            1           1  -7.4761293329928466E-002           1        6040           0
</event>
<event>
      5   9999  3.79277E-02  8.06461E+01 -1.00000E+00  1.28181E-01
       2    -1     0     0   502     0  0.000000000E+00  0.000000000E+00  1.141929565E+03  1.141929565E+03  0.000000000E+00  0.00000E+00  9.000E+00
      21    -1     0     0   501   502  0.000000000E+00  0.000000000E+00 -7.070417614E+01  7.070417614E+01  0.000000000E+00  0.00000E+00  9.000E+00
      25     1     1     2     0     0  1.010061547E+02  1.484009651E+02  5.343961877E+02  5.774334378E+02  1.250000000E+02  0.00000E+00  9.000E+00
      25     1     1     2     0     0 -7.347014863E+01 -7.260146658E+01  9.895821311E+01  1.899646378E+02  1.250000000E+02  0.00000E+00  9.000E+00
       2     1     1     2   501     0 -2.753600605E+01 -7.579949851E+01  4.378709877E+02  4.452356651E+02  5.394796609E-06  0.00000E+00  9.000E+00
#rwgt            1           1   3.4501619352743512E-002           1        6314           0
</event>
<event>
      5   9999  3.79277E-02  3.48201E+01 -1.00000E+00  1.48677E-01
      21    -1     0     0   502   511  0.000000000E+00  0.000000000E+00  5.116291284E+02  5.116291284E+02  0.000000000E+00  0.00000E+00  9.000E+00
      21    -1     0     0   501   502  0.000000000E+00  0.000000000E+00 -9.730282114E+01  9.730282114E+01  0.000000000E+00  0.00000E+00  9.000E+00
      25     1     1     2     0     0 -4.511302507E+00 -7.284514641E+01  3.283678751E+00  1.447844942E+02  1.250000000E+02  0.00000E+00  9.000E+00
      25     1     1     2     0     0 -1.047389597E+01  1.042757224E+02  2.439249020E+02  2.934407718E+02  1.250000000E+02  0.00000E+00  9.000E+00
      21     1     1     2   501   511  1.498519848E+01 -3.143057597E+01  1.671177265E+02  1.707066835E+02  1.907348633E-06  0.00000E+00  9.000E+00
#rwgt            1           1   5.0334172225699941E-002           1        6373           0
</event>
<event>
      5   9999  3.79277E-02  9.84823E+01 -1.00000E+00  1.24127E-01
      21    -1     0     0   502   501  0.000000000E+00  0.000000000E+00  1.203069886E+02  1.203069886E+02  0.000000000E+00  0.00000E+00  9.000E+00
      21    -1     0     0   512   502  0.000000000E+00  0.000000000E+00 -7.953381965E+02  7.953381965E+02  0.000000000E+00  0.00000E+00  9.000E+00
      25     1     1     2     0     0  2.241763205E+01 -8.951190357E+01 -1.599490143E+01  1.561914466E+02  1.250000000E+02  0.00000E+00  9.000E+00
      25     1     1     2     0     0  3.597152830E+01  1.688180654E+02 -2.080182534E+02  2.978088041E+02  1.250000000E+02  0.00000E+00  9.000E+00
      21     1     1     2   512   501 -5.838916035E+01 -7.930616182E+01 -4.510180530E+02  4.616449344E+02  0.000000000E+00  0.00000E+00  9.000E+00
#rwgt            1           1   3.5952616171960460E-002           1        6567           0
</event>
<event>
      5   9999  3.79277E-02  2.71847E+01 -1.00000E+00  1.56073E-01
       2    -1     0     0   502     0  0.000000000E+00  0.000000000E+00  3.117804839E+02  3.117804839E+02  0.000000000E+00  0.00000E+00  9.000E+00
      21    -1     0     0   501   502  0.000000000E+00  0.000000000E+00 -1.768642966E+02  1.768642966E+02  0.000000000E+00  0.00000E+00  9.000E+00
      25     1     1     2     0     0  1.365996083E+02 -4.351136771E+01  1.297845029E+02  2.302644334E+02  1.250000000E+02  0.00000E+00  9.000E+00
      25     1     1     2     0     0 -1.598587802E+02  2.943937961E+01 -3.687787761E+01  2.083422294E+02  1.250000000E+02  0.00000E+00  9.000E+00
       2     1     1     2   501     0  2.325917194E+01  1.407198810E+01  4.200956208E+01  5.003811782E+01  4.768371582E-07  0.00000E+00  9.000E+00
#rwgt            1           1   4.6139378044801282E-002           1        6617           0
</event>
<event>
      5   9999  3.79277E-02  5.07009E+01 -1.00000E+00  1.38731E-01
      21    -1     0     0   502   501  0.000000000E+00  0.000000000E+00  4.805593627E+02  4.805593627E+02  0.000000000E+00  0.00000E+00  9.000E+00
      21    -1     0     0   501   511  0.000000000E+00  0.000000000E+00 -4.568617737E+02  4.568617737E+02  0.000000000E+00  0.00000E+00  9.000E+00
      25     1     1     2     0     0 -1.668864975E+02 -2.165156910E+01  2.320585293E+02  3.127236072E+02  1.250000000E+02  0.00000E+00  9.000E+00
      25     1     1     2     0     0  1.423399557E+02  6.601425629E+01  1.576813265E+02  2.551606273E+02  1.250000000E+02  0.00000E+00  9.000E+00
      21     1     1     2   502   511  2.454654179E+01 -4.436268720E+01 -3.660422668E+02  3.695369018E+02  0.000000000E+00  0.00000E+00  9.000E+00
#rwgt            1           1   3.1844793999945054E-002           1        6831           0
</event>
<event>
      5   9999  3.79277E-02  8.67052E+01 -1.00000E+00  1.26680E-01
      21    -1     0     0   512   501  0.000000000E+00  0.000000000E+00  5.071924719E+02  5.071924719E+02  0.000000000E+00  0.00000E+00  9.000E+00
      21    -1     0     0   501   502  0.000000000E+00  0.000000000E+00 -1.358831815E+02  1.358831815E+02  0.000000000E+00  0.00000E+00  9.000E+00
      25     1     1     2     0     0  9.435543765E+01  7.104767564E+01  1.872732381E+02  2.542577168E+02  1.250000000E+02  0.00000E+00  9.000E+00
      25     1     1     2     0     0 -1.711862660E+02 -1.112323752E+02  7.782996213E+01  2.517138891E+02  1.250000000E+02  0.00000E+00  9.000E+00
      21     1     1     2   512   502  7.683082832E+01  4.018469960E+01  1.062060902E+02  1.371040475E+02  3.015782986E-06  0.00000E+00  9.000E+00
#rwgt            1           1   4.8124925433127796E-002           1        6979           0
</event>
<event>
      5   9999  3.79277E-02  4.50445E+01 -1.00000E+00  1.41712E-01
      21    -1     0     0   502   511  0.000000000E+00  0.000000000E+00  3.635513399E+02  3.635513399E+02  0.000000000E+00  0.00000E+00  9.000E+00
      21    -1     0     0   501   502  0.000000000E+00  0.000000000E+00 -2.648370316E+02  2.648370316E+02  0.000000000E+00  0.00000E+00  9.000E+00
      25     1     1     2     0     0 -2.532142712E+01  2.916264122E+00 -2.231893533E+02  2.570761885E+02  1.250000000E+02  0.00000E+00  9.000E+00
      25     1     1     2     0     0  3.678136402E+01 -4.647859065E+01  2.197671535E+02  2.596839038E+02  1.250000000E+02  0.00000E+00  9.000E+00
      21     1     1     2   501   511 -1.145993690E+01  4.356232653E+01  1.021365080E+02  1.116282792E+02  0.000000000E+00  0.00000E+00  9.000E+00
#rwgt            1           1   4.3831365253850375E-002           1        7162           0
</event>
<event>
      5   9999  3.79277E-02  3.60969E+01 -1.00000E+00  1.47661E-01
      21    -1     0     0   512   501  0.000000000E+00  0.000000000E+00  1.439674313E+03  1.439674313E+03  0.000000000E+00  0.00000E+00  9.000E+00
      21    -1     0     0   501   502  0.000000000E+00  0.000000000E+00 -2.978487994E+02  2.978487994E+02  0.000000000E+00  0.00000E+00  9.000E+00
      25     1     1     2     0     0  5.933303940E+01 -6.590888897E+01  6.017279571E+01  1.646516218E+02  1.250000000E+02  0.00000E+00  9.000E+00
      25     1     1     2     0     0 -8.005427965E+01  3.635189992E+01 -2.215626105E+02  2.691563462E+02  1.250000000E+02  0.00000E+00  9.000E+00
      21     1     1     2   512   502  2.072124025E+01  2.955698906E+01  1.303215329E+03  1.303715145E+03  2.642899792E-05  0.00000E+00  9.000E+00
#rwgt            1           1   4.1737105995033309E-002           1        7294           0
</event>
<event>
      5   9999  3.79277E-02  8.17756E+01 -1.00000E+00  1.27890E-01
      21    -1     0     0   502   501  0.000000000E+00  0.000000000E+00  1.172460394E+03  1.172460394E+03  0.000000000E+00  0.00000E+00  9.000E+00
      21    -1     0     0   501   511  0.000000000E+00  0.000000000E+00 -7.634624723E+01  7.634624723E+01  0.000000000E+00  0.00000E+00  9.000E+00
      25     1     1     2     0     0  1.180143528E+02  6.139681981E+01  2.251158493E+02  2.898259867E+02  1.250000000E+02  0.00000E+00  9.000E+00
      25     1     1     2     0     0 -9.293806143E+01 -1.392326932E+02  8.489578502E+02  8.742869423E+02  1.250000000E+02  0.00000E+00  9.000E+00
      21     1     1     2   502   511 -2.507629142E+01  7.783587343E+01  2.204044737E+01  8.469371230E+01  1.831327855E-06  0.00000E+00  9.000E+00
#rwgt            1           1   4.5364432552685789E-002           1        7534           0
</event>
<event>
      5   9999 -3.79277E-02  3.84716E+01 -1.00000E+00  1.45897E-01
      21    -1     0     0   502   501  0.000000000E+00  0.000000000E+00  1.104810358E+02  1.104810358E+02  0.000000000E+00  0.00000E+00  9.000E+00
       2    -1     0     0   501     0  0.000000000E+00  0.000000000E+00 -6.458236540E+02  6.458236540E+02  0.000000000E+00  0.00000E+00  9.000E+00
      25     1     1     2     0     0  5.041559889E+01 -1.776093653E+02 -1.388565773E+02  2.626651258E+02  1.250000000E+02  0.00000E+00  9.000E+00
      25     1     1     2     0     0 -7.849858581E+01  2.039040787E+02 -3.125901405E+02  4.013433658E+02  1.250000000E+02  0.00000E+00  9.000E+00
       2     1     1     2   502     0  2.808298692E+01 -2.629471346E+01 -8.389590035E+01  9.229619822E+01  9.536743164E-07  0.00000E+00  9.000E+00
#rwgt            1           1  -5.4016382665540451E-002           1        7674           0
</event>
<event>
      5   9999  3.79277E-02  3.62102E+01 -1.00000E+00  1.47573E-01
      21    -1     0     0   502   501  0.000000000E+00  0.000000000E+00  3.203404338E+02  3.203404338E+02  0.000000000E+00  0.00000E+00  9.000E+00
      21    -1     0     0   511   502  0.000000000E+00  0.000000000E+00 -8.421353365E+02  8.421353365E+02  0.000000000E+00  0.00000E+00  9.000E+00
      25     1     1     2     0     0 -6.495141850E+01  1.482764106E+02 -2.169464632E+02  2.981532301E+02  1.250000000E+02  0.00000E+00  9.000E+00
      25     1     1     2     0     0  1.009076705E+02 -1.525573245E+02  2.351718481E+02  3.230896058E+02  1.250000000E+02  0.00000E+00  9.000E+00
      21     1     1     2   511   501 -3.595625204E+01  4.280913869E+00 -5.400202877E+02  5.412329345E+02  7.629394531E-06  0.00000E+00  9.000E+00
#rwgt            1           1  0.15646019523352095                1        7832           0
</event>
<event>
      5   9999  3.79277E-02  2.17747E+01 -1.00000E+00  1.63379E-01
      21    -1     0     0   502   501  0.000000000E+00  0.000000000E+00  1.329534192E+02  1.329534192E+02  0.000000000E+00  0.00000E+00  9.000E+00
      21    -1     0     0   501   512  0.000000000E+00  0.000000000E+00 -2.498450762E+02  2.498450762E+02  0.000000000E+00  0.00000E+00  9.000E+00
      25     1     1     2     0     0  3.814378671E+01 -7.500012265E+01 -8.550186514E+01  1.732499230E+02  1.250000000E+02  0.00000E+00  9.000E+00
      25     1     1     2     0     0 -5.863355128E+01  6.763066256E+01  1.875283024E+01  1.548821116E+02  1.250000000E+02  0.00000E+00  9.000E+00
      21     1     1     2   502   512  2.048976457E+01  7.369460085E+00 -5.014262206E+01  5.466646085E+01  6.743495762E-07  0.00000E+00  9.000E+00
#rwgt            1           1   2.6819536556250363E-002           1        8184           0
</event>
<event>
      5   9999  3.79277E-02  5.78475E+01 -1.00000E+00  1.35557E-01
      21    -1     0     0   502   511  0.000000000E+00  0.000000000E+00  1.372524364E+02  1.372524364E+02  0.000000000E+00  0.00000E+00  9.000E+00
      21    -1     0     0   501   502  0.000000000E+00  0.000000000E+00 -8.261811062E+02  8.261811062E+02  0.000000000E+00  0.00000E+00  9.000E+00
      25     1     1     2     0     0 -1.142722776E+02 -1.609781065E+02 -4.115803402E+01  2.372574297E+02  1.250000000E+02  0.00000E+00  9.000E+00
      25     1     1     2     0     0  1.711204021E+02  1.502716425E+02 -5.888283495E+02  6.435896082E+02  1.250000000E+02  0.00000E+00  9.000E+00
      21     1     1     2   501   511 -5.684812451E+01  1.070646399E+01 -5.894228627E+01  8.258650460E+01  1.168007728E-06  0.00000E+00  9.000E+00
#rwgt            1           1   4.8717212469975797E-002           1        8500           0
</event>
<event>
      5   9999  3.79277E-02  2.76710E+01 -1.00000E+00  1.55518E-01
      21    -1     0     0   502   501  0.000000000E+00  0.000000000E+00  8.652491541E+02  8.652491541E+02  0.000000000E+00  0.00000E+00  9.000E+00
      21    -1     0     0   512   502  0.000000000E+00  0.000000000E+00 -7.845936409E+01  7.845936409E+01  0.000000000E+00  0.00000E+00  9.000E+00
      25     1     1     2     0     0  3.365727237E+01 -7.484616043E+00  1.987504584E+01  1.311825023E+02  1.250000000E+02  0.00000E+00  9.000E+00
      25     1     1     2     0     0 -3.632884644E+01  3.502632762E+01  7.726043352E+02  7.842761551E+02  1.250000000E+02  0.00000E+00  9.000E+00
      21     1     1     2   512   501  2.671574070E+00 -2.754171158E+01 -5.689591083E+00  2.824986073E+01  7.539457465E-07  0.00000E+00  9.000E+00
#rwgt            1           1   3.4456502241902817E-002           1        8670           0
</event>
<event>
      5   9999  3.79277E-02  4.18727E+01 -1.00000E+00  1.43618E-01
      21    -1     0     0   511   501  0.000000000E+00  0.000000000E+00  3.723225605E+02  3.723225605E+02  0.000000000E+00  0.00000E+00  9.000E+00
      21    -1     0     0   501   502  0.000000000E+00  0.000000000E+00 -3.279027258E+02  3.279027258E+02  0.000000000E+00  0.00000E+00  9.000E+00
      25     1     1     2     0     0 -3.449407182E+00 -1.177198672E+02 -2.765364987E+02  3.255261904E+02  1.250000000E+02  0.00000E+00  9.000E+00
      25     1     1     2     0     0 -1.266427048E+01  7.907179214E+01  2.751211588E+02  3.126169926E+02  1.250000000E+02  0.00000E+00  9.000E+00
      21     1     1     2   511   502  1.611367767E+01  3.864807502E+01  4.583517460E+01  6.208210323E+01  6.743495762E-07  0.00000E+00  9.000E+00
#rwgt            1           1   2.8419855340748347E-002           1        9104           0
</event>
<event>
      5   9999  3.79277E-02  2.35402E+01 -1.00000E+00  1.60733E-01
      21    -1     0     0   502   501  0.000000000E+00  0.000000000E+00  1.367890683E+02  1.367890683E+02  0.000000000E+00  0.00000E+00  9.000E+00
      21    -1     0     0   512   502  0.000000000E+00  0.000000000E+00 -6.539653012E+02  6.539653012E+02  0.000000000E+00  0.00000E+00  9.000E+00
      25     1     1     2     0     0 -4.002288350E+01 -1.183365690E+02  9.497807404E+00  1.769762219E+02  1.250000000E+02  0.00000E+00  9.000E+00
      25     1     1     2     0     0  3.250483395E+01  9.602922413E+01 -1.066019977E+02  1.930470462E+02  1.250000000E+02  0.00000E+00  9.000E+00
      21     1     1     2   512   501  7.518049545E+00  2.230734489E+01 -4.200720426E+02  4.207311014E+02  0.000000000E+00  0.00000E+00  9.000E+00
#rwgt            1           1   3.2788656174510697E-002           1        9264           0
</event>
<event>
      5   9999  3.79277E-02  2.85232E+01 -1.00000E+00  1.54578E-01
      21    -1     0     0   502   501  0.000000000E+00  0.000000000E+00  6.832710387E+01  6.832710387E+01  0.000000000E+00  0.00000E+00  9.000E+00
      21    -1     0     0   501   511  0.000000000E+00  0.000000000E+00 -5.725613525E+02  5.725613525E+02  0.000000000E+00  0.00000E+00  9.000E+00
      25     1     1     2     0     0 -1.620983311E+01 -3.075845730E+00 -9.631382835E+01  1.586618198E+02  1.250000000E+02  0.00000E+00  9.000E+00
      25     1     1     2     0     0  3.710220487E+01  2.249443552E+01 -8.329597829E+01  1.563515054E+02  1.250000000E+02  0.00000E+00  9.000E+00
      21     1     1     2   502   511 -2.089237177E+01 -1.941858979E+01 -3.246244420E+02  3.258751312E+02  5.394796609E-06  0.00000E+00  9.000E+00
#rwgt            1           1   4.2891806771241988E-003           1        9409           0
</event>
<event>
      5   9999  3.79277E-02  4.87066E+01 -1.00000E+00  1.39728E-01
      21    -1     0     0   502   512  0.000000000E+00  0.000000000E+00  1.409044674E+02  1.409044674E+02  0.000000000E+00  0.00000E+00  9.000E+00
      21    -1     0     0   501   502  0.000000000E+00  0.000000000E+00 -6.114459437E+02  6.114459437E+02  0.000000000E+00  0.00000E+00  9.000E+00
      25     1     1     2     0     0  7.587029965E+01 -1.149279356E+02 -3.852105260E+02  4.277579714E+02  1.250000000E+02  0.00000E+00  9.000E+00
      25     1     1     2     0     0 -7.457297536E+01  6.623862372E+01 -1.659116952E+02  2.304351851E+02  1.250000000E+02  0.00000E+00  9.000E+00
      21     1     1     2   501   512 -1.297324288E+00  4.868931185E+01  8.058074493E+01  9.415725459E+01  0.000000000E+00  0.00000E+00  9.000E+00
#rwgt            1           1   4.4164361419073511E-002           1        9503           0
</event>
<event>
      5   9999  3.79277E-02  1.53395E+01 -1.00000E+00  1.76473E-01
      21    -1     0     0   502   501  0.000000000E+00  0.000000000E+00  3.101312899E+02  3.101312899E+02  0.000000000E+00  0.00000E+00  9.000E+00
       2    -1     0     0   501     0  0.000000000E+00  0.000000000E+00 -1.435404906E+03  1.435404906E+03  0.000000000E+00  0.00000E+00  9.000E+00
      25     1     1     2     0     0 -2.164711892E+02  1.102156229E+02 -1.588982376E+02  3.160394108E+02  1.250000000E+02  0.00000E+00  9.000E+00
      25     1     1     2     0     0  2.155534193E+02 -9.490364892E+01  1.547345315E+02  3.082819398E+02  1.250000000E+02  0.00000E+00  9.000E+00
       2     1     1     2   502     0  9.177698538E-01 -1.531197394E+01 -1.121109910E+03  1.121214845E+03  0.000000000E+00  0.00000E+00  9.000E+00
#rwgt            1           1   3.0868986557091586E-002           1        9762           0
</event>
<event>
      5   9999  3.79277E-02  1.74776E+01 -1.00000E+00  1.71349E-01
      21    -1     0     0   502   501  0.000000000E+00  0.000000000E+00  7.358722837E+01  7.358722837E+01  0.000000000E+00  0.00000E+00  9.000E+00
      21    -1     0     0   511   502  0.000000000E+00  0.000000000E+00 -5.294731390E+02  5.294731390E+02  0.000000000E+00  0.00000E+00  9.000E+00
      25     1     1     2     0     0 -3.171215343E+01 -8.862153751E+01 -3.781068453E+02  4.092056012E+02  1.250000000E+02  0.00000E+00  9.000E+00
      25     1     1     2     0     0  2.483006778E+01  7.255594986E+01 -3.965565456E+01  1.519159934E+02  1.250000000E+02  0.00000E+00  9.000E+00
      21     1     1     2   511   501  6.882085651E+00  1.606558765E+01 -3.812341081E+01  4.193877276E+01  0.000000000E+00  0.00000E+00  9.000E+00
#rwgt            1           1   4.6266014984774839E-002           1       10088           0
</event>
<event>
      5   9999  3.79277E-02  3.64667E+01 -1.00000E+00  1.47376E-01
      21    -1     0     0   502   501  0.000000000E+00  0.000000000E+00  1.388971619E+03  1.388971619E+03  0.000000000E+00  0.00000E+00  9.000E+00
      21    -1     0     0   501   512  0.000000000E+00  0.000000000E+00 -1.151758884E+03  1.151758884E+03  0.000000000E+00  0.00000E+00  9.000E+00
      25     1     1     2     0     0 -1.168305098E+02 -3.293536677E+01  7.947295403E+02  8.136056469E+02  1.250000000E+02  0.00000E+00  9.000E+00
      25     1     1     2     0     0  1.285550176E+02  6.746587824E+01  5.688106995E+02  6.002071719E+02  1.250000000E+02  0.00000E+00  9.000E+00
      21     1     1     2   502   512 -1.172450782E+01 -3.453051147E+01 -1.126327505E+03  1.126917685E+03  1.525878906E-05  0.00000E+00  9.000E+00
#rwgt            1           1   4.8980271803699592E-002           1       10477           0
</event>
<event>
      5   9999  3.79277E-02  8.56920E+01 -1.00000E+00  1.26921E-01
      -3    -1     0     0     0   501  0.000000000E+00  0.000000000E+00  8.628135736E+02  8.628135736E+02  0.000000000E+00  0.00000E+00  9.000E+00
      21    -1     0     0   501   502  0.000000000E+00  0.000000000E+00 -1.247691744E+02  1.247691744E+02  0.000000000E+00  0.00000E+00  9.000E+00
      25     1     1     2     0     0  1.650969326E+01 -1.249455057E+02 -2.494963199E+01  1.792524296E+02  1.250000000E+02  0.00000E+00  9.000E+00
      25     1     1     2     0     0  3.492977682E+01  5.641010710E+01  2.420413599E+02  2.803769060E+02  1.250000000E+02  0.00000E+00  9.000E+00
      -3     1     1     2     0   502 -5.143947008E+01  6.853539862E+01  5.209526712E+02  5.279534124E+02  1.078959322E-05  0.00000E+00  9.000E+00
#rwgt            1           1   3.5513751994924965E-002           1       10660           0
</event>
<event>
      5   9999  3.79277E-02  1.20337E+01 -1.00000E+00  1.86900E-01
      21    -1     0     0   502   501  0.000000000E+00  0.000000000E+00  7.683013853E+02  7.683013853E+02  0.000000000E+00  0.00000E+00  9.000E+00
       2    -1     0     0   501     0  0.000000000E+00  0.000000000E+00 -1.385992723E+03  1.385992723E+03  0.000000000E+00  0.00000E+00  9.000E+00
      25     1     1     2     0     0  1.242627534E+02 -1.029393398E+01  2.537891836E+02  3.091620071E+02  1.250000000E+02  0.00000E+00  9.000E+00
      25     1     1     2     0     0 -1.296244721E+02  2.106713268E+01  4.699174293E+02  5.036801745E+02  1.250000000E+02  0.00000E+00  9.000E+00
       2     1     1     2   502     0  5.361718655E+00 -1.077319870E+01 -1.341397951E+03  1.341451927E+03  1.525878906E-05  0.00000E+00  9.000E+00
#rwgt            1           1   3.3736476021804455E-002           1       10713           0
</event>
<event>
      5   9999  3.79277E-02  3.25919E+01 -1.00000E+00  1.50582E-01
      21    -1     0     0   511   501  0.000000000E+00  0.000000000E+00  2.000307943E+02  2.000307943E+02  0.000000000E+00  0.00000E+00  9.000E+00
      21    -1     0     0   501   502  0.000000000E+00  0.000000000E+00 -4.611753879E+02  4.611753879E+02  0.000000000E+00  0.00000E+00  9.000E+00
      25     1     1     2     0     0 -6.219714302E+01 -2.443170575E+02 -1.827870165E+02  3.355523843E+02  1.250000000E+02  0.00000E+00  9.000E+00
      25     1     1     2     0     0  7.644985906E+01  2.150067705E+02 -1.078923265E+02  2.816704572E+02  1.250000000E+02  0.00000E+00  9.000E+00
      21     1     1     2   511   502 -1.425271603E+01  2.931028702E+01  2.953474939E+01  4.398334072E+01  8.920806376E-07  0.00000E+00  9.000E+00
#rwgt            1           1   5.6838330545786908E-002           1       10978           0
</event>
<event>
      5   9999  3.79277E-02  6.21238E+01 -1.00000E+00  1.33901E-01
      21    -1     0     0   502   501  0.000000000E+00  0.000000000E+00  1.048193907E+03  1.048193907E+03  0.000000000E+00  0.00000E+00  9.000E+00
      21    -1     0     0   501   512  0.000000000E+00  0.000000000E+00 -6.189491356E+01  6.189491356E+01  0.000000000E+00  0.00000E+00  9.000E+00
      25     1     1     2     0     0  1.630564590E+02  2.012588901E+01  6.387954636E+02  6.713248875E+02  1.250000000E+02  0.00000E+00  9.000E+00
      25     1     1     2     0     0 -1.560152526E+02  4.159756381E+01  2.853590339E+02  3.508929959E+02  1.250000000E+02  0.00000E+00  9.000E+00
      21     1     1     2   502   512 -7.041206363E+00 -6.172345282E+01  6.214449590E+01  8.787093709E+01  0.000000000E+00  0.00000E+00  9.000E+00
#rwgt            1           1   4.5627204818154125E-002           1       11142           0
</event>
<event>
      5   9999  3.79277E-02  2.83522E+01 -1.00000E+00  1.54764E-01
      21    -1     0     0   511   501  0.000000000E+00  0.000000000E+00  9.365259261E+02  9.365259261E+02  0.000000000E+00  0.00000E+00  9.000E+00
      21    -1     0     0   501   502  0.000000000E+00  0.000000000E+00 -1.837160682E+02  1.837160682E+02  0.000000000E+00  0.00000E+00  9.000E+00
      25     1     1     2     0     0 -1.494137559E+02  1.618168480E+02 -5.318055611E+01  2.587708142E+02  1.250000000E+02  0.00000E+00  9.000E+00
      25     1     1     2     0     0  1.553819394E+02 -1.895337756E+02  7.461028297E+02  7.952113126E+02  1.250000000E+02  0.00000E+00  9.000E+00
      21     1     1     2   511   502 -5.968183489E+00  2.771692762E+01  5.988758434E+01  6.625986756E+01  6.743495762E-07  0.00000E+00  9.000E+00
#rwgt            1           1   5.1106966176832407E-002           1       11259           0
</event>
<event>
      5   9999  3.79277E-02  6.46839E+01 -1.00000E+00  1.32982E-01
      21    -1     0     0   502   501  0.000000000E+00  0.000000000E+00  3.997853767E+02  3.997853767E+02  0.000000000E+00  0.00000E+00  9.000E+00
      21    -1     0     0   512   502  0.000000000E+00  0.000000000E+00 -1.809085185E+02  1.809085185E+02  0.000000000E+00  0.00000E+00  9.000E+00
      25     1     1     2     0     0 -1.082956597E+02  1.260181490E+02  2.451821529E+02  3.214775449E+02  1.250000000E+02  0.00000E+00  9.000E+00
      25     1     1     2     0     0  1.294171092E+02 -6.487985441E+01 -5.782178648E+00  1.913546897E+02  1.250000000E+02  0.00000E+00  9.000E+00
      21     1     1     2   512   501 -2.112144953E+01 -6.113829456E+01 -2.052311606E+01  6.786166064E+01  5.331201500E-07  0.00000E+00  9.000E+00
#rwgt            1           1   4.0191609398996596E-002           1       11441           0
</event>
<event>
      5   9999  3.79277E-02  8.90167E+01 -1.00000E+00  1.26144E-01
      21    -1     0     0   502   501  0.000000000E+00  0.000000000E+00  9.652616814E+01  9.652616814E+01  0.000000000E+00  0.00000E+00  9.000E+00
      21    -1     0     0   501   511  0.000000000E+00  0.000000000E+00 -9.979779507E+02  9.979779507E+02  0.000000000E+00  0.00000E+00  9.000E+00
      25     1     1     2     0     0  4.040786463E+01  3.649256630E+01  2.766644215E+01  1.391220146E+02  1.250000000E+02  0.00000E+00  9.000E+00
      25     1     1     2     0     0  4.355508728E+01 -6.925825595E+00 -5.128981479E+02  5.297494906E+02  1.250000000E+02  0.00000E+00  9.000E+00
      21     1     1     2   502   511 -8.396295191E+01 -2.956674071E+01 -4.162200769E+02  4.256326137E+02  5.394796609E-06  0.00000E+00  9.000E+00
#rwgt            1           1   3.9456540624365738E-002           1       11553           0
</event>
<event>
      5   9999  3.79277E-02  1.23173E+02 -1.00000E+00  1.19889E-01
      21    -1     0     0   502   512  0.000000000E+00  0.000000000E+00  1.780477178E+02  1.780477178E+02  0.000000000E+00  0.00000E+00  9.000E+00
      21    -1     0     0   501   502  0.000000000E+00  0.000000000E+00 -2.105878039E+03  2.105878039E+03  0.000000000E+00  0.00000E+00  9.000E+00
      25     1     1     2     0     0  2.564832188E+01  2.895285402E+02 -1.615437295E+03  1.646130999E+03  1.250000000E+02  0.00000E+00  9.000E+00
      25     1     1     2     0     0 -1.297864902E+02 -2.237505296E+02 -3.957759894E+02  4.890526212E+02  1.250000000E+02  0.00000E+00  9.000E+00
      21     1     1     2   501   512  1.041381683E+02 -6.577801062E+01  8.338296290E+01  1.487421369E+02  4.862803949E-06  0.00000E+00  9.000E+00
#rwgt            1           1   3.2498205584043170E-002           1       11605           0
</event>
<event>
      5   9999  3.79277E-02  4.28681E+01 -1.00000E+00  1.42999E-01
      21    -1     0     0   502   511  0.000000000E+00  0.000000000E+00  2.575498118E+02  2.575498118E+02  0.000000000E+00  0.00000E+00  9.000E+00
      21    -1     0     0   501   502  0.000000000E+00  0.000000000E+00 -6.294773156E+02  6.294773156E+02  0.000000000E+00  0.00000E+00  9.000E+00
      25     1     1     2     0     0 -1.659397250E+02  1.945833765E+02  1.067232569E+01  2.848465925E+02  1.250000000E+02  0.00000E+00  9.000E+00
      25     1     1     2     0     0  1.231221989E+02 -1.966640607E+02 -4.504709171E+02  5.219050448E+02  1.250000000E+02  0.00000E+00  9.000E+00
      21     1     1     2   501   511  4.281752616E+01  2.080684204E+00  6.787108754E+01  8.027549014E+01  0.000000000E+00  0.00000E+00  9.000E+00
#rwgt            1           1   7.8669914683730927E-002           1       11751           0
</event>
<event>
      5   9999  3.79277E-02  5.62531E+01 -1.00000E+00  1.36217E-01
      21    -1     0     0   502   512  0.000000000E+00  0.000000000E+00  2.535540305E+03  2.535540305E+03  0.000000000E+00  0.00000E+00  9.000E+00
      21    -1     0     0   501   502  0.000000000E+00  0.000000000E+00 -8.197503615E+01  8.197503615E+01  0.000000000E+00  0.00000E+00  9.000E+00
      25     1     1     2     0     0  3.724956802E+02 -2.275265737E+02  1.169326996E+03  1.254381121E+03  1.250000000E+02  0.00000E+00  9.000E+00
      25     1     1     2     0     0 -3.251179078E+02  1.971991136E+02  1.103975251E+03  1.174297875E+03  1.250000000E+02  0.00000E+00  9.000E+00
      21     1     1     2   501   512 -4.737777236E+01  3.032746016E+01  1.802630222E+02  1.888363453E+02  3.303624740E-06  0.00000E+00  9.000E+00
#rwgt            1           1   1.7298087526411456E-002           1       11846           0
</event>
<event>
      5   9999  3.79277E-02  6.68991E+01 -1.00000E+00  1.32225E-01
      21    -1     0     0   502   501  0.000000000E+00  0.000000000E+00  1.137521737E+03  1.137521737E+03  0.000000000E+00  0.00000E+00  9.000E+00
      21    -1     0     0   501   511  0.000000000E+00  0.000000000E+00 -6.154849876E+01  6.154849876E+01  0.000000000E+00  0.00000E+00  9.000E+00
      25     1     1     2     0     0 -9.856217979E+01 -1.036575646E+02  5.377434803E+02  5.703090781E+02  1.250000000E+02  0.00000E+00  9.000E+00
      25     1     1     2     0     0  1.567927777E+02  1.365921604E+02  4.883958484E+02  5.453410842E+02  1.250000000E+02  0.00000E+00  9.000E+00
      21     1     1     2   502   511 -5.823059790E+01 -3.293459577E+01  4.983390992E+01  8.342007377E+01  6.743495762E-07  0.00000E+00  9.000E+00
#rwgt            1           1   4.7354814881498647E-002           1       12113           0
</event>
<event>
      5   9999  3.79277E-02  1.20923E+01 -1.00000E+00  1.86679E-01
      21    -1     0     0   512   501  0.000000000E+00  0.000000000E+00  2.760942729E+02  2.760942729E+02  0.000000000E+00  0.00000E+00  9.000E+00
      21    -1     0     0   501   502  0.000000000E+00  0.000000000E+00 -7.071304296E+02  7.071304296E+02  0.000000000E+00  0.00000E+00  9.000E+00
      25     1     1     2     0     0  1.898068919E+02 -7.165518596E+01 -3.597512140E+02  4.315171582E+02  1.250000000E+02  0.00000E+00  9.000E+00
      25     1     1     2     0     0 -1.959083543E+02  6.121508977E+01 -2.649287923E+02  3.576865044E+02  1.250000000E+02  0.00000E+00  9.000E+00
      21     1     1     2   512   502  6.101462415E+00  1.044009619E+01  1.936438495E+02  1.940210398E+02  2.697398305E-06  0.00000E+00  9.000E+00
#rwgt            1           1   3.6507041446502561E-002           1       12205           0
</event>
<event>
      5   9999  3.79277E-02  2.28120E+01 -1.00000E+00  1.61789E-01
       5    -1     0     0   502     0  0.000000000E+00  0.000000000E+00  1.899094614E+02  1.899094614E+02  0.000000000E+00  0.00000E+00  9.000E+00
      21    -1     0     0   501   502  0.000000000E+00  0.000000000E+00 -1.017234589E+03  1.017234589E+03  0.000000000E+00  0.00000E+00  9.000E+00
      25     1     1     2     0     0  1.076921793E+02 -7.259346207E+01 -4.909239970E+02  5.229711149E+02  1.250000000E+02  0.00000E+00  9.000E+00
      25     1     1     2     0     0 -9.665314466E+01  9.255655323E+01 -4.930052446E+02  5.259160742E+02  1.250000000E+02  0.00000E+00  9.000E+00
       5     1     1     2   501     0 -1.103903464E+01 -1.996309115E+01  1.566041145E+02  1.582568607E+02  4.264961200E-06  0.00000E+00  9.000E+00
#rwgt            1           1   4.5165310688542001E-002           1       12551           0
</event>
<event>
      5   9999  3.79277E-02  4.96957E+01 -1.00000E+00  1.39227E-01
      21    -1     0     0   502   501  0.000000000E+00  0.000000000E+00  1.250248018E+02  1.250248018E+02  0.000000000E+00  0.00000E+00  9.000E+00
      21    -1     0     0   511   502  0.000000000E+00  0.000000000E+00 -1.522044769E+03  1.522044769E+03  0.000000000E+00  0.00000E+00  9.000E+00
      25     1     1     2     0     0 -1.777639919E+02 -7.554222426E+01 -2.304454925E+02  3.256329060E+02  1.250000000E+02  0.00000E+00  9.000E+00
      25     1     1     2     0     0  1.559533818E+02  1.201960535E+02 -1.000889346E+02  2.537938994E+02  1.250000000E+02  0.00000E+00  9.000E+00
      21     1     1     2   511   501  2.181061012E+01 -4.465382925E+01 -1.066485540E+03  1.067642765E+03  2.157918644E-05  0.00000E+00  9.000E+00
#rwgt            1           1   2.3856116633809682E-002           1       12705           0
</event>
<event>
      5   9999  3.79277E-02  8.30917E+01 -1.00000E+00  1.27557E-01
       3    -1     0     0   502     0  0.000000000E+00  0.000000000E+00  2.716797802E+02  2.716797802E+02  0.000000000E+00  0.00000E+00  9.000E+00
      21    -1     0     0   501   502  0.000000000E+00  0.000000000E+00 -2.801526150E+02  2.801526150E+02  0.000000000E+00  0.00000E+00  9.000E+00
      25     1     1     2     0     0  1.102526693E+02  1.926830413E+01 -1.267681633E+02  2.102904797E+02  1.250000000E+02  0.00000E+00  9.000E+00
      25     1     1     2     0     0 -1.177275120E+02 -1.020230722E+02  3.416640748E+00  1.997627287E+02  1.250000000E+02  0.00000E+00  9.000E+00
       3     1     1     2   501     0  7.474842668E+00  8.275476811E+01  1.148786877E+02  1.417791868E+02  1.348699152E-06  0.00000E+00  9.000E+00
#rwgt            1           1   3.3811559663862609E-002           1       12804           0
</event>
<event>
      5   9999  3.79277E-02  6.12725E+01 -1.00000E+00  1.34218E-01
      21    -1     0     0   502   501  0.000000000E+00  0.000000000E+00  1.477319523E+02  1.477319523E+02  0.000000000E+00  0.00000E+00  9.000E+00
      21    -1     0     0   511   502  0.000000000E+00  0.000000000E+00 -6.345454258E+02  6.345454258E+02  0.000000000E+00  0.00000E+00  9.000E+00
      25     1     1     2     0     0  3.367784493E+01 -5.166133842E+01 -8.929458235E+01  1.655343274E+02  1.250000000E+02  0.00000E+00  9.000E+00
      25     1     1     2     0     0 -3.281496194E+01  1.129277695E+02  3.895564516E+01  1.759887642E+02  1.250000000E+02  0.00000E+00  9.000E+00
      21     1     1     2   511   501 -8.628829929E-01 -6.126643106E+01 -4.364745363E+02  4.407542864E+02  0.000000000E+00  0.00000E+00  9.000E+00
#rwgt            1           1   3.9177348272481129E-002           1       12854           0
</event>
<event>
      5   9999  3.79277E-02  4.91946E+01 -1.00000E+00  1.39479E-01
       1    -1     0     0   502     0  0.000000000E+00  0.000000000E+00  5.737820968E+02  5.737820968E+02  0.000000000E+00  0.00000E+00  9.000E+00
      21    -1     0     0   501   502  0.000000000E+00  0.000000000E+00 -8.036482996E+01  8.036482996E+01  0.000000000E+00  0.00000E+00  9.000E+00
      25     1     1     2     0     0  3.474228939E+00 -3.909932504E+01  1.031712947E+02  1.667637357E+02  1.250000000E+02  0.00000E+00  9.000E+00
      25     1     1     2     0     0  1.343923465E+00  8.805737456E+01  7.869162056E+01  1.719688300E+02  1.250000000E+02  0.00000E+00  9.000E+00
       1     1     1     2   501     0 -4.818152403E+00 -4.895804953E+01  3.115543515E+02  3.154143611E+02  0.000000000E+00  0.00000E+00  9.000E+00
#rwgt            1           1   4.0844869250792802E-002           1       12912           0
</event>
<event>
      5   9999 -3.79277E-02  1.30600E+02 -1.00000E+00  1.18828E-01
      21    -1     0     0   511   501  0.000000000E+00  0.000000000E+00  1.038730601E+03  1.038730601E+03  0.000000000E+00  0.00000E+00  9.000E+00
      21    -1     0     0   501   502  0.000000000E+00  0.000000000E+00 -9.975879270E+01  9.975879270E+01  0.000000000E+00  0.00000E+00  9.000E+00
      25     1     1     2     0     0 -3.110204865E+01 -6.290807316E+01  3.985496792E+02  4.235464672E+02  1.250000000E+02  0.00000E+00  9.000E+00
      25     1     1     2     0     0 -9.904174785E+01  5.200179937E+01  9.303576148E+00  1.680030103E+02  1.250000000E+02  0.00000E+00  9.000E+00
      21     1     1     2   511   502  1.301437965E+02  1.090627379E+01  5.311185530E+02  5.469399162E+02  7.629394531E-06  0.00000E+00  9.000E+00
#rwgt            1           1  -6.1618060843692674E-002           1       13048           0
</event>
<event>
      5   9999  3.79277E-02  2.84323E+02 -1.00000E+00  1.06355E-01
      21    -1     0     0   502   501  0.000000000E+00  0.000000000E+00  8.354551599E+02  8.354551599E+02  0.000000000E+00  0.00000E+00  9.000E+00
      21    -1     0     0   501   512  0.000000000E+00  0.000000000E+00 -3.216107008E+02  3.216107008E+02  0.000000000E+00  0.00000E+00  9.000E+00
      25     1     1     2     0     0 -1.187669953E+02 -3.676242663E+02  1.450788369E+02  4.311914532E+02  1.250000000E+02  0.00000E+00  9.000E+00
      25     1     1     2     0     0 -1.428748795E+02  2.563459938E+02  2.893527757E+02  4.306698602E+02  1.250000000E+02  0.00000E+00  9.000E+00
      21     1     1     2   502   512  2.616418748E+02  1.112782725E+02  7.941284644E+01  2.952045473E+02  6.106495130E-06  0.00000E+00  9.000E+00
#rwgt            1           1   3.4653835633741088E-002           1       13098           0
</event>
<event>
      5   9999  3.79277E-02  1.05572E+02 -1.00000E+00  1.22778E-01
      21    -1     0     0   511   501  0.000000000E+00  0.000000000E+00  1.485136444E+02  1.485136444E+02  0.000000000E+00  0.00000E+00  9.000E+00
      21    -1     0     0   501   502  0.000000000E+00  0.000000000E+00 -5.871843756E+02  5.871843756E+02  0.000000000E+00  0.00000E+00  9.000E+00
      25     1     1     2     0     0  5.895360445E+01  9.119462216E+01 -2.512716551E+02  3.009226333E+02  1.250000000E+02  0.00000E+00  9.000E+00
      25     1     1     2     0     0 -9.398925532E+01 -1.907837662E+02 -2.132464675E+02  3.260850832E+02  1.250000000E+02  0.00000E+00  9.000E+00
      21     1     1     2   511   502  3.503565086E+01  9.958914400E+01  2.584739136E+01  1.086903035E+02  6.743495762E-07  0.00000E+00  9.000E+00
#rwgt            1           1   3.5699630473760784E-002           1       13251           0
</event>
<event>
      5   9999  3.79277E-02  1.49594E+02  7.55638E-03  1.16440E-01
       2    -1     0     0   501     0  0.000000000E+00  0.000000000E+00  3.293400635E+02  3.293400635E+02  0.000000000E+00  0.00000E+00  9.000E+00
      -2    -1     0     0     0   502  0.000000000E+00  0.000000000E+00 -1.678235876E+02  1.678235876E+02  0.000000000E+00  0.00000E+00  9.000E+00
      25     1     1     2     0     0 -1.448325577E+01  3.014770391E+01  8.864532422E+01  1.568491066E+02  1.250000000E+02  0.00000E+00  9.000E+00
      25     1     1     2     0     0 -1.330059279E+02 -5.141352885E+00  4.633567141E+01  1.883852563E+02  1.250000000E+02  0.00000E+00  9.000E+00
      21     1     1     2   501   502  1.474891837E+02 -2.500635102E+01  2.653548027E+01  1.519292882E+02  2.407909617E-06  0.00000E+00  9.000E+00
#rwgt            3           7   7.9228824756210194E-004           1       13900           0
</event>
<event>
      5   9999  3.79277E-02  1.36461E+02 -1.00000E+00  1.18045E-01
      21    -1     0     0   502   501  0.000000000E+00  0.000000000E+00  1.342946101E+03  1.342946101E+03  0.000000000E+00  0.00000E+00  9.000E+00
      21    -1     0     0   511   502  0.000000000E+00  0.000000000E+00 -1.283540323E+02  1.283540323E+02  0.000000000E+00  0.00000E+00  9.000E+00
      25     1     1     2     0     0 -2.622035761E+02 -8.972657897E+01  7.371473708E+02  7.973787184E+02  1.250000000E+02  0.00000E+00  9.000E+00
      25     1     1     2     0     0  1.724091366E+02  1.924817387E+02  4.514864062E+02  5.350131821E+02  1.250000000E+02  0.00000E+00  9.000E+00
      21     1     1     2   511   501  8.979443952E+01 -1.027551597E+02  2.595829175E+01  1.389082328E+02  3.873843386E-06  0.00000E+00  9.000E+00
#rwgt            1           1  0.21737065004487269                1       13994           0
</event>
<event>
      5   9999  3.79277E-02  2.13999E+01 -1.00000E+00  1.63981E-01
      21    -1     0     0   502   501  0.000000000E+00  0.000000000E+00  1.495553156E+03  1.495553156E+03  0.000000000E+00  0.00000E+00  9.000E+00
      21    -1     0     0   501   512  0.000000000E+00  0.000000000E+00 -6.438862612E+01  6.438862612E+01  0.000000000E+00  0.00000E+00  9.000E+00
      25     1     1     2     0     0  1.616155369E+02  3.093618758E+01  6.018324201E+02  6.363205885E+02  1.250000000E+02  0.00000E+00  9.000E+00
      25     1     1     2     0     0 -1.460144045E+02 -4.558413727E+01  8.621227858E+02  8.844652722E+02  1.250000000E+02  0.00000E+00  9.000E+00
      21     1     1     2   502   512 -1.560113238E+01  1.464794969E+01 -3.279067594E+01  3.915592153E+01  1.261592536E-06  0.00000E+00  9.000E+00
#rwgt            1           1   4.7653646700510796E-002           1       14085           0
</event>
<event>
      5   9999  3.79277E-02  1.58451E+01 -1.00000E+00  1.75170E-01
      21    -1     0     0   511   501  0.000000000E+00  0.000000000E+00  7.635866725E+01  7.635866725E+01  0.000000000E+00  0.00000E+00  9.000E+00
      21    -1     0     0   501   502  0.000000000E+00  0.000000000E+00 -5.139482005E+02  5.139482005E+02  0.000000000E+00  0.00000E+00  9.000E+00
      25     1     1     2     0     0 -6.847354541E+01 -1.204828956E+02 -1.634887472E+02  2.481095021E+02  1.250000000E+02  0.00000E+00  9.000E+00
      25     1     1     2     0     0  5.283645727E+01  1.179240613E+02 -2.722343832E+02  3.262427545E+02  1.250000000E+02  0.00000E+00  9.000E+00
      21     1     1     2   511   502  1.563708814E+01  2.558834251E+00 -1.866402772E+00  1.595461117E+01  4.177643588E-07  0.00000E+00  9.000E+00
#rwgt            1           1   4.9338830512471302E-002           1       14320           0
</event>
<event>
      5   9999  3.79277E-02  5.72677E+01 -1.00000E+00  1.35794E-01
      21    -1     0     0   502   501  0.000000000E+00  0.000000000E+00  1.532903226E+02  1.532903226E+02  0.000000000E+00  0.00000E+00  9.000E+00
      21    -1     0     0   512   502  0.000000000E+00  0.000000000E+00 -4.685327213E+02  4.685327213E+02  0.000000000E+00  0.00000E+00  9.000E+00
      25     1     1     2     0     0 -6.545594681E+01 -1.662935318E+02 -2.822437538E+00  2.181077391E+02  1.250000000E+02  0.00000E+00  9.000E+00
      25     1     1     2     0     0  2.814315949E+01  1.228499367E+02 -1.530862972E+02  2.344025571E+02  1.250000000E+02  0.00000E+00  9.000E+00
      21     1     1     2   512   501  3.731278732E+01  4.344359513E+01 -1.593336640E+02  1.693127477E+02  1.907348633E-06  0.00000E+00  9.000E+00
#rwgt            1           1   4.3165077077991658E-002           1       14508           0
</event>
<event>
      5   9999  3.79277E-02  1.70736E+02 -1.00000E+00  1.14208E-01
      21    -1     0     0   502   501  0.000000000E+00  0.000000000E+00  1.832476078E+02  1.832476078E+02  0.000000000E+00  0.00000E+00  9.000E+00
       2    -1     0     0   501     0  0.000000000E+00  0.000000000E+00 -3.493903064E+03  3.493903064E+03  0.000000000E+00  0.00000E+00  9.000E+00
      25     1     1     2     0     0 -6.467393317E+01 -1.462256981E+01  1.126221544E+02  1.808460308E+02  1.250000000E+02  0.00000E+00  9.000E+00
      25     1     1     2     0     0  2.264648104E+02  6.916009430E+01 -4.926888645E+02  5.607465971E+02  1.250000000E+02  0.00000E+00  9.000E+00
       2     1     1     2   502     0 -1.617908772E+02 -5.453752449E+01 -2.930588746E+03  2.935558044E+03  6.103515625E-05  0.00000E+00  9.000E+00
#rwgt            1           1   2.2873791643766971E-002           1       14631           0
</event>
<event>
      5   9999  3.79277E-02  6.79817E+01 -1.00000E+00  1.31867E-01
      21    -1     0     0   502   501  0.000000000E+00  0.000000000E+00  1.902248147E+03  1.902248147E+03  0.000000000E+00  0.00000E+00  9.000E+00
      21    -1     0     0   511   502  0.000000000E+00  0.000000000E+00 -2.879124273E+01  2.879124273E+01  0.000000000E+00  0.00000E+00  9.000E+00
      25     1     1     2     0     0  9.726292190E+01  5.684388175E+01  9.466997543E+02  9.615387291E+02  1.250000000E+02  0.00000E+00  9.000E+00
      25     1     1     2     0     0 -1.652441808E+02 -5.660661180E+01  7.489329796E+02  7.791248653E+02  1.250000000E+02  0.00000E+00  9.000E+00
      21     1     1     2   511   501  6.798125887E+01 -2.372699547E-01  1.778241700E+02  1.903757949E+02  1.907348633E-06  0.00000E+00  9.000E+00
#rwgt            1           1   4.2438444657998876E-002           1       14744           0
</event>
<event>
      5   9999  3.79277E-02  2.29947E+01 -1.00000E+00  1.61520E-01
      21    -1     0     0   502   501  0.000000000E+00  0.000000000E+00  1.223916171E+02  1.223916171E+02  0.000000000E+00  0.00000E+00  9.000E+00
      21    -1     0     0   512   502  0.000000000E+00  0.000000000E+00 -5.212284274E+02  5.212284274E+02  0.000000000E+00  0.00000E+00  9.000E+00
      25     1     1     2     0     0 -1.174704720E+02  1.018748778E+01  3.241930623E+01  1.748688312E+02  1.250000000E+02  0.00000E+00  9.000E+00
      25     1     1     2     0     0  9.659112104E+01 -5.537775867E-01 -3.990323017E+02  4.291642216E+02  1.250000000E+02  0.00000E+00  9.000E+00
      21     1     1     2   512   501  2.087935100E+01 -9.633710198E+00 -3.222381483E+01  3.958699171E+01  4.768371582E-07  0.00000E+00  9.000E+00
#rwgt            1           1   3.6728637960652913E-002           1       14877           0
</event>
<event>
      5   9999  3.79277E-02  3.74828E+01 -1.00000E+00  1.46613E-01
      21    -1     0     0   502   501  0.000000000E+00  0.000000000E+00  6.407793048E+01  6.407793048E+01  0.000000000E+00  0.00000E+00  9.000E+00
      21    -1     0     0   501   511  0.000000000E+00  0.000000000E+00 -1.955074482E+03  1.955074482E+03  0.000000000E+00  0.00000E+00  9.000E+00
      25     1     1     2     0     0  5.489374029E+00 -1.487391538E+02 -4.222935920E+02  4.648767008E+02  1.250000000E+02  0.00000E+00  9.000E+00
      25     1     1     2     0     0 -8.788724474E+00  1.860764712E+02 -2.535601555E+02  3.385549398E+02  1.250000000E+02  0.00000E+00  9.000E+00
      21     1     1     2   502   511  3.299350445E+00 -3.733731738E+01 -1.215142805E+03  1.215720772E+03  1.525878906E-05  0.00000E+00  9.000E+00
#rwgt            1           1   3.8609125030063661E-002           1       14990           0
</event>
<event>
      5   9999  3.79277E-02  6.28056E+01 -1.00000E+00  1.33651E-01
       1    -1     0     0   502     0  0.000000000E+00  0.000000000E+00  1.220937720E+03  1.220937720E+03  0.000000000E+00  0.00000E+00  9.000E+00
      21    -1     0     0   501   502  0.000000000E+00  0.000000000E+00 -1.053555400E+03  1.053555400E+03  0.000000000E+00  0.00000E+00  9.000E+00
      25     1     1     2     0     0  5.745664524E+01 -2.344835061E+01 -9.812391886E+02  9.911137354E+02  1.250000000E+02  0.00000E+00  9.000E+00
      25     1     1     2     0     0 -3.942581673E+01 -3.671338815E+01  3.113078674E+00  1.361505018E+02  1.250000000E+02  0.00000E+00  9.000E+00
       1     1     1     2   501     0 -1.803082851E+01  6.016173876E+01  1.145508430E+03  1.147228883E+03  2.157918644E-05  0.00000E+00  9.000E+00
#rwgt            1           1   3.4409388544272335E-002           1       15063           0
</event>
<event>
      5   9999  3.79277E-02  8.91361E+01 -1.00000E+00  1.26117E-01
      -3    -1     0     0     0   501  0.000000000E+00  0.000000000E+00  1.264879232E+02  1.264879232E+02  0.000000000E+00  0.00000E+00  9.000E+00
      21    -1     0     0   501   502  0.000000000E+00  0.000000000E+00 -5.420182009E+02  5.420182009E+02  0.000000000E+00  0.00000E+00  9.000E+00
      25     1     1     2     0     0  2.792749953E+01  2.418559175E+01 -4.943693008E+01  1.394055169E+02  1.250000000E+02  0.00000E+00  9.000E+00
      25     1     1     2     0     0 -1.160396914E+02 -3.765724022E+01 -3.978287504E+02  4.344835927E+02  1.250000000E+02  0.00000E+00  9.000E+00
      -3     1     1     2     0   502  8.811219185E+01  1.347164847E+01  3.173540276E+01  9.461701461E+01  1.752011592E-06  0.00000E+00  9.000E+00
#rwgt            1           1   5.3324109086824743E-002           1       15214           0
</event>
<event>
      5   9999  3.79277E-02  1.07037E+02 -1.00000E+00  1.22514E-01
      21    -1     0     0   502   501  0.000000000E+00  0.000000000E+00  7.158637839E+02  7.158637839E+02  0.000000000E+00  0.00000E+00  9.000E+00
      21    -1     0     0   501   511  0.000000000E+00  0.000000000E+00 -1.644883125E+02  1.644883125E+02  0.000000000E+00  0.00000E+00  9.000E+00
      25     1     1     2     0     0 -5.367101481E-01 -1.994659782E+02  4.770526626E+02  5.319691790E+02  1.250000000E+02  0.00000E+00  9.000E+00
      25     1     1     2     0     0 -1.006466225E+02  1.645552329E+02  2.729082370E+01  2.314691262E+02  1.250000000E+02  0.00000E+00  9.000E+00
      21     1     1     2   502   511  1.011833327E+02  3.491074526E+01  4.703198504E+01  1.169137911E+02  1.651812370E-06  0.00000E+00  9.000E+00
#rwgt            1           1   3.3208846460802903E-002           1       15283           0
</event>
<event>
      5   9999  3.79277E-02  9.89150E+01 -1.00000E+00  1.24041E-01
      21    -1     0     0   502   501  0.000000000E+00  0.000000000E+00  2.835913947E+02  2.835913947E+02  0.000000000E+00  0.00000E+00  9.000E+00
      21    -1     0     0   512   502  0.000000000E+00  0.000000000E+00 -1.694179804E+02  1.694179804E+02  0.000000000E+00  0.00000E+00  9.000E+00
      25     1     1     2     0     0  4.327244142E+01 -3.500696536E+00  1.569714956E+02  2.053041877E+02  1.250000000E+02  0.00000E+00  9.000E+00
      25     1     1     2     0     0  5.473733405E+01  1.685219080E+01  5.546825625E+00  1.376079189E+02  1.250000000E+02  0.00000E+00  9.000E+00
      21     1     1     2   512   501 -9.800977547E+01 -1.335149427E+01 -4.834490700E+01  1.100972684E+02  1.784161275E-06  0.00000E+00  9.000E+00
#rwgt            1           1   6.7782078490672595E-002           1       15462           0
</event>
<event>
      5   9999  3.79277E-02  7.19487E+01 -1.00000E+00  1.30620E-01
      21    -1     0     0   502   501  0.000000000E+00  0.000000000E+00  1.878435850E+02  1.878435850E+02  0.000000000E+00  0.00000E+00  9.000E+00
      21    -1     0     0   501   511  0.000000000E+00  0.000000000E+00 -3.532225689E+02  3.532225689E+02  0.000000000E+00  0.00000E+00  9.000E+00
      25     1     1     2     0     0  4.735529254E+01  1.369077347E+02 -1.067657862E+02  2.191122650E+02  1.250000000E+02  0.00000E+00  9.000E+00
      25     1     1     2     0     0 -2.099725100E+01 -2.038545305E+02 -2.152937295E+01  2.410105144E+02  1.250000000E+02  0.00000E+00  9.000E+00
      21     1     1     2   502   511 -2.635804154E+01  6.694679579E+01 -3.708382471E+01  8.094337450E+01  1.846782373E-06  0.00000E+00  9.000E+00
#rwgt            1           1  0.29108213798546922                1       15524           0
</event>
<event>
      5   9999  3.79277E-02  2.05685E+01 -1.00000E+00  1.65371E-01
       2    -1     0     0   502     0  0.000000000E+00  0.000000000E+00  5.071954098E+02  5.071954098E+02  0.000000000E+00  0.00000E+00  9.000E+00
      21    -1     0     0   501   502  0.000000000E+00  0.000000000E+00 -2.985486295E+02  2.985486295E+02  0.000000000E+00  0.00000E+00  9.000E+00
      25     1     1     2     0     0 -1.066842216E+02  1.833945089E+02  4.297304206E+01  2.499735013E+02  1.250000000E+02  0.00000E+00  9.000E+00
      25     1     1     2     0     0  1.045309868E+02 -2.038500278E+02 -1.071933264E+02  2.821293502E+02  1.250000000E+02  0.00000E+00  9.000E+00
       2     1     1     2   501     0  2.153234753E+00  2.045551889E+01  2.728670647E+02  2.736411878E+02  3.814697266E-06  0.00000E+00  9.000E+00
#rwgt            1           1   3.1448087362969113E-002           1       15587           0
</event>
<event>
      5   9999  3.79277E-02  9.82248E+00 -1.00000E+00  1.96661E-01
      21    -1     0     0   502   501  0.000000000E+00  0.000000000E+00  2.633245476E+02  2.633245476E+02  0.000000000E+00  0.00000E+00  9.000E+00
      21    -1     0     0   501   511  0.000000000E+00  0.000000000E+00 -5.119332894E+02  5.119332894E+02  0.000000000E+00  0.00000E+00  9.000E+00
      25     1     1     2     0     0 -1.895536629E+01  6.503641972E+01  1.322178302E+02  1.941535383E+02  1.250000000E+02  0.00000E+00  9.000E+00
      25     1     1     2     0     0  1.427204695E+01 -5.640232790E+01  5.259795258E+01  1.475684876E+02  1.250000000E+02  0.00000E+00  9.000E+00
      21     1     1     2   502   511  4.683319343E+00 -8.634091814E+00 -4.334245246E+02  4.335358111E+02  7.629394531E-06  0.00000E+00  9.000E+00
#rwgt            1           1   5.9743383182661071E-002           1       15747           0
</event>
<event>
      5   9999  3.79277E-02  9.10860E+00 -1.00000E+00  2.00564E-01
      21    -1     0     0   502   512  0.000000000E+00  0.000000000E+00  3.038446497E+02  3.038446497E+02  0.000000000E+00  0.00000E+00  9.000E+00
      21    -1     0     0   501   502  0.000000000E+00  0.000000000E+00 -3.059269032E+02  3.059269032E+02  0.000000000E+00  0.00000E+00  9.000E+00
      25     1     1     2     0     0 -5.248842454E+01  2.420600034E+02 -9.990004441E+01  2.948781084E+02  1.250000000E+02  0.00000E+00  9.000E+00
      25     1     1     2     0     0  4.628246981E+01 -2.353927095E+02  6.145201983E+01  2.774042996E+02  1.250000000E+02  0.00000E+00  9.000E+00
      21     1     1     2   501   512  6.205954730E+00 -6.667293907E+00  3.636577110E+01  3.748914496E+01  4.768371582E-07  0.00000E+00  9.000E+00
#rwgt            1           1   3.6296469686348941E-002           1       16097           0
</event>
<event>
      5   9999  3.79277E-02  1.09029E+02 -1.00000E+00  1.22163E-01
      21    -1     0     0   502   501  0.000000000E+00  0.000000000E+00  1.741406714E+03  1.741406714E+03  0.000000000E+00  0.00000E+00  9.000E+00
      21    -1     0     0   501   511  0.000000000E+00  0.000000000E+00 -6.081942459E+01  6.081942459E+01  0.000000000E+00  0.00000E+00  9.000E+00
      25     1     1     2     0     0 -2.318207962E+02  2.135720822E+01  1.082027738E+03  1.113824959E+03  1.250000000E+02  0.00000E+00  9.000E+00
      25     1     1     2     0     0  1.385495420E+02  3.510403962E+01  5.212160248E+02  5.547246287E+02  1.250000000E+02  0.00000E+00  9.000E+00
      21     1     1     2   502   511  9.327125419E+01 -5.646124784E+01  7.734352685E+01  1.336765518E+02  0.000000000E+00  0.00000E+00  9.000E+00
#rwgt            1           1   5.0507936882752909E-002           1       16366           0
</event>
<event>
      5   9999  3.79277E-02  4.43233E+01 -1.00000E+00  1.42129E-01
      21    -1     0     0   502   512  0.000000000E+00  0.000000000E+00  6.277677179E+02  6.277677179E+02  0.000000000E+00  0.00000E+00  9.000E+00
      21    -1     0     0   501   502  0.000000000E+00  0.000000000E+00 -1.013405904E+02  1.013405904E+02  0.000000000E+00  0.00000E+00  9.000E+00
      25     1     1     2     0     0 -3.654327005E+00  1.086281294E+02 -5.079580076E+00  1.657233439E+02  1.250000000E+02  0.00000E+00  9.000E+00
      25     1     1     2     0     0  1.906323400E+00 -6.433928159E+01  4.356643612E+02  4.577899221E+02  1.250000000E+02  0.00000E+00  9.000E+00
      21     1     1     2   501   512  1.748003605E+00 -4.428884777E+01  9.584234646E+01  1.055950422E+02  0.000000000E+00  0.00000E+00  9.000E+00
#rwgt            1           1   3.7717430916963182E-002           1       16412           0
</event>
<event>
      5   9999  3.79277E-02  8.21216E+01 -1.00000E+00  1.27802E-01
      21    -1     0     0   511   501  0.000000000E+00  0.000000000E+00  2.885463417E+03  2.885463417E+03  0.000000000E+00  0.00000E+00  9.000E+00
      21    -1     0     0   501   502  0.000000000E+00  0.000000000E+00 -4.107076036E+02  4.107076036E+02  0.000000000E+00  0.00000E+00  9.000E+00
      25     1     1     2     0     0  2.745158818E+02 -1.725633203E+02  1.320630809E+02  3.717562726E+02  1.250000000E+02  0.00000E+00  9.000E+00
      25     1     1     2     0     0 -2.519596316E+02  9.360019644E+01 -2.145048575E+02  3.658988749E+02  1.250000000E+02  0.00000E+00  9.000E+00
      21     1     1     2   511   502 -2.255625015E+01  7.896312384E+01  2.557197590E+03  2.558515873E+03  0.000000000E+00  0.00000E+00  9.000E+00
#rwgt            1           1  0.18478893974214847                1       16568           0
</event>
<event>
      5   9999 -3.79277E-02  7.32750E+01 -1.00000E+00  1.30223E-01
      21    -1     0     0   502   501  0.000000000E+00  0.000000000E+00  2.411856128E+01  2.411856128E+01  0.000000000E+00  0.00000E+00  9.000E+00
      21    -1     0     0   501   512  0.000000000E+00  0.000000000E+00 -2.520426833E+03  2.520426833E+03  0.000000000E+00  0.00000E+00  9.000E+00
      25     1     1     2     0     0  5.292578419E+01 -1.177300290E+02 -4.723724850E+02  5.053931766E+02  1.250000000E+02  0.00000E+00  9.000E+00
      25     1     1     2     0     0 -8.660352949E+01  5.265283955E+01 -1.027499186E+03  1.040025033E+03  1.250000000E+02  0.00000E+00  9.000E+00
      21     1     1     2   502   512  3.367774530E+01  6.507718949E+01 -9.964366007E+02  9.991271843E+02  1.868812365E-05  0.00000E+00  9.000E+00
#rwgt            1           1 -0.23357309852515395                1       16709           0
</event>
<event>
      5   9999  3.79277E-02  2.57345E+01 -1.00000E+00  1.57815E-01
      21    -1     0     0   502   501  0.000000000E+00  0.000000000E+00  9.330538574E+01  9.330538574E+01  0.000000000E+00  0.00000E+00  9.000E+00
      -1    -1     0     0     0   502  0.000000000E+00  0.000000000E+00 -5.413593575E+02  5.413593575E+02  0.000000000E+00  0.00000E+00  9.000E+00
      25     1     1     2     0     0 -1.174927140E+01 -4.768637153E+01 -1.889988104E+02  2.318568217E+02  1.250000000E+02  0.00000E+00  9.000E+00
      25     1     1     2     0     0  3.396750009E+01  6.067156552E+01 -5.640761343E-01  1.430389741E+02  1.250000000E+02  0.00000E+00  9.000E+00
      -1     1     1     2     0   501 -2.221822870E+01 -1.298519399E+01 -2.584910852E+02  2.597689475E+02  5.394796609E-06  0.00000E+00  9.000E+00
#rwgt            1           1   4.1429262861793104E-002           1       16806           0
</event>
<event>
      5   9999  3.79277E-02  4.51173E+01 -1.00000E+00  1.41671E-01
      -1    -1     0     0     0   501  0.000000000E+00  0.000000000E+00  2.726132354E+02  2.726132354E+02  0.000000000E+00  0.00000E+00  9.000E+00
      21    -1     0     0   501   502  0.000000000E+00  0.000000000E+00 -1.134485867E+02  1.134485867E+02  0.000000000E+00  0.00000E+00  9.000E+00
      25     1     1     2     0     0  2.681871093E+00 -5.509812163E+01  1.165669521E+01  1.371272182E+02  1.250000000E+02  0.00000E+00  9.000E+00
      25     1     1     2     0     0 -3.673265135E+01  8.469730254E+01  1.153840748E+02  1.935494910E+02  1.250000000E+02  0.00000E+00  9.000E+00
      -1     1     1     2     0   502  3.405078026E+01 -2.959918091E+01  3.212387874E+01  5.538511291E+01  6.743495762E-07  0.00000E+00  9.000E+00
#rwgt            1           1  0.15098157378314558                1       16971           0
</event>
<event>
      5   9999  3.79277E-02  1.62058E+01 -1.00000E+00  1.74278E-01
      21    -1     0     0   502   501  0.000000000E+00  0.000000000E+00  4.163997722E+02  4.163997722E+02  0.000000000E+00  0.00000E+00  9.000E+00
      21    -1     0     0   501   511  0.000000000E+00  0.000000000E+00 -9.441328097E+01  9.441328097E+01  0.000000000E+00  0.00000E+00  9.000E+00
      25     1     1     2     0     0 -1.426857958E+01  1.081940905E+02  4.455736238E+01  1.718135970E+02  1.250000000E+02  0.00000E+00  9.000E+00
      25     1     1     2     0     0  1.008835001E+01 -1.238514671E+02  2.662796855E+02  3.193287203E+02  1.250000000E+02  0.00000E+00  9.000E+00
      21     1     1     2   502   511  4.180229571E+00  1.565737663E+01  1.114944336E+01  1.967073586E+01  0.000000000E+00  0.00000E+00  9.000E+00
#rwgt            1           1   3.8421874740676036E-002           1       17059           0
</event>
<event>
      5   9999  3.79277E-02  1.47161E+01 -1.00000E+00  1.78169E-01
       2    -1     0     0   502     0  0.000000000E+00  0.000000000E+00  2.228605764E+03  2.228605764E+03  0.000000000E+00  0.00000E+00  9.000E+00
      21    -1     0     0   501   502  0.000000000E+00  0.000000000E+00 -7.597196845E+02  7.597196845E+02  0.000000000E+00  0.00000E+00  9.000E+00
      25     1     1     2     0     0  1.807247082E+02  5.001486675E+01 -4.752304204E+02  5.259580397E+02  1.250000000E+02  0.00000E+00  9.000E+00
      25     1     1     2     0     0 -1.763411585E+02 -6.406295674E+01 -2.100601792E+02  3.081404639E+02  1.250000000E+02  0.00000E+00  9.000E+00
       2     1     1     2   501     0 -4.383549732E+00  1.404808999E+01  2.154176679E+03  2.154226945E+03  4.315837288E-05  0.00000E+00  9.000E+00
#rwgt            1           1   3.8394559013916321E-002           1       17309           0
</event>
<event>
      5   9999  3.79277E-02  3.18662E+01 -1.00000E+00  1.51242E-01
      21    -1     0     0   511   501  0.000000000E+00  0.000000000E+00  2.900219425E+02  2.900219425E+02  0.000000000E+00  0.00000E+00  9.000E+00
      21    -1     0     0   501   502  0.000000000E+00  0.000000000E+00 -1.694280462E+02  1.694280462E+02  0.000000000E+00  0.00000E+00  9.000E+00
      25     1     1     2     0     0 -2.796909230E-01  1.335579677E+02 -3.828945737E+01  1.868927273E+02  1.250000000E+02  0.00000E+00  9.000E+00
      25     1     1     2     0     0 -3.115294395E+01 -1.387964031E+02  1.401949580E+02  2.356153086E+02  1.250000000E+02  0.00000E+00  9.000E+00
      21     1     1     2   511   502  3.143263488E+01  5.238435309E+00  1.868839568E+01  3.694195275E+01  6.307962682E-07  0.00000E+00  9.000E+00
#rwgt            1           1   3.2911611057256075E-002           1       17586           0
</event>
<event>
      5   9999  3.79277E-02  2.73000E+01 -1.00000E+00  1.55940E-01
      21    -1     0     0   502   501  0.000000000E+00  0.000000000E+00  2.057674311E+02  2.057674311E+02  0.000000000E+00  0.00000E+00  9.000E+00
       3    -1     0     0   501     0  0.000000000E+00  0.000000000E+00 -1.605234432E+03  1.605234432E+03  0.000000000E+00  0.00000E+00  9.000E+00
      25     1     1     2     0     0 -1.452351145E+00 -1.117984287E+02  7.928809114E+01  1.855063324E+02  1.250000000E+02  0.00000E+00  9.000E+00
      25     1     1     2     0     0  6.300442933E+00  1.386644972E+02 -4.586289963E+01  1.923432971E+02  1.250000000E+02  0.00000E+00  9.000E+00
       3     1     1     2   502     0 -4.848091788E+00 -2.686606852E+01 -1.432892193E+03  1.433152234E+03  0.000000000E+00  0.00000E+00  9.000E+00
#rwgt            1           1   5.0802066471507708E-002           1       17636           0
</event>
<event>
      5   9999  3.79277E-02  3.36329E+01 -1.00000E+00  1.49670E-01
      21    -1     0     0   511   501  0.000000000E+00  0.000000000E+00  1.818432311E+02  1.818432311E+02  0.000000000E+00  0.00000E+00  9.000E+00
      21    -1     0     0   501   502  0.000000000E+00  0.000000000E+00 -5.925882344E+02  5.925882344E+02  0.000000000E+00  0.00000E+00  9.000E+00
      25     1     1     2     0     0 -1.755599852E+02 -7.215075049E+01 -4.479553901E+02  5.023107312E+02  1.250000000E+02  0.00000E+00  9.000E+00
      25     1     1     2     0     0  1.843893150E+02  3.969750886E+01  6.178995982E+00  2.263592094E+02  1.250000000E+02  0.00000E+00  9.000E+00
      21     1     1     2   511   502 -8.829329732E+00  3.245324163E+01  3.103139076E+01  4.576152498E+01  7.539457465E-07  0.00000E+00  9.000E+00
#rwgt            1           1   3.6764795727090016E-002           1       17782           0
</event>
<event>
      5   9999  3.79277E-02  1.39751E+01 -1.00000E+00  1.80329E-01
      21    -1     0     0   512   501  0.000000000E+00  0.000000000E+00  1.478992439E+02  1.478992439E+02  0.000000000E+00  0.00000E+00  9.000E+00
      21    -1     0     0   501   502  0.000000000E+00  0.000000000E+00 -7.022107162E+02  7.022107162E+02  0.000000000E+00  0.00000E+00  9.000E+00
      25     1     1     2     0     0 -3.185119074E+01 -1.978229738E+02 -2.374518198E+02  3.348981846E+02  1.250000000E+02  0.00000E+00  9.000E+00
      25     1     1     2     0     0  3.919965759E+01  2.097100344E+02 -3.784439961E+02  4.520616881E+02  1.250000000E+02  0.00000E+00  9.000E+00
      21     1     1     2   512   502 -7.348466849E+00 -1.188706057E+01  6.158434351E+01  6.315008740E+01  1.507891493E-06  0.00000E+00  9.000E+00
#rwgt            1           1   4.4292521859151016E-002           1       17922           0
</event>
<event>
      5   9999  3.79277E-02  2.38294E+02 -1.00000E+00  1.08947E-01
      21    -1     0     0   511   501  0.000000000E+00  0.000000000E+00  9.326726950E+02  9.326726950E+02  0.000000000E+00  0.00000E+00  9.000E+00
      21    -1     0     0   501   502  0.000000000E+00  0.000000000E+00 -3.451468950E+02  3.451468950E+02  0.000000000E+00  0.00000E+00  9.000E+00
      25     1     1     2     0     0 -1.869997701E+02  3.304165944E+02 -1.314285559E+02  4.207641919E+02  1.250000000E+02  0.00000E+00  9.000E+00
      25     1     1     2     0     0  3.210905979E+01 -1.493289650E+02  1.773443788E+02  2.653415915E+02  1.250000000E+02  0.00000E+00  9.000E+00
      21     1     1     2   511   502  1.548907103E+02 -1.810876294E+02  5.416099771E+02  5.917138066E+02  7.629394531E-06  0.00000E+00  9.000E+00
#rwgt            1           1   3.4906040859608779E-002           1       18108           0
</event>
<event>
      5   9999  3.79277E-02  3.71436E+01 -1.00000E+00  1.46864E-01
      21    -1     0     0   512   501  0.000000000E+00  0.000000000E+00  1.203840853E+02  1.203840853E+02  0.000000000E+00  0.00000E+00  9.000E+00
      21    -1     0     0   501   502  0.000000000E+00  0.000000000E+00 -4.221106484E+02  4.221106484E+02  0.000000000E+00  0.00000E+00  9.000E+00
      25     1     1     2     0     0  1.160406658E+02  4.099767109E+01 -1.438269689E+02  2.268423288E+02  1.250000000E+02  0.00000E+00  9.000E+00
      25     1     1     2     0     0 -1.233752585E+02 -4.585418655E+00 -1.954683592E+02  2.628219167E+02  1.250000000E+02  0.00000E+00  9.000E+00
      21     1     1     2   512   502  7.334592673E+00 -3.641225244E+01  3.756876496E+01  5.283048815E+01  4.768371582E-07  0.00000E+00  9.000E+00
#rwgt            1           1   4.2628176114391202E-002           1       18229           0
</event>
<event>
      5   9999  3.79277E-02  1.16847E+02 -1.00000E+00  1.20861E-01
      21    -1     0     0   511   501  0.000000000E+00  0.000000000E+00  1.942651693E+02  1.942651693E+02  0.000000000E+00  0.00000E+00  9.000E+00
      21    -1     0     0   501   502  0.000000000E+00  0.000000000E+00 -4.189376328E+02  4.189376328E+02  0.000000000E+00  0.00000E+00  9.000E+00
      25     1     1     2     0     0  2.580697405E+01  1.997800812E+01  8.691142825E+01  1.557039405E+02  1.250000000E+02  0.00000E+00  9.000E+00
      25     1     1     2     0     0  2.436633289E+00  9.340440464E+01 -3.023946986E+02  3.402908664E+02  1.250000000E+02  0.00000E+00  9.000E+00
      21     1     1     2   511   502 -2.824360734E+01 -1.133824128E+02 -9.189193084E+00  1.172079952E+02  1.594911594E-06  0.00000E+00  9.000E+00
#rwgt            1           1   4.0703294944487038E-002           1       18348           0
</event>
<event>
      5   9999  3.79277E-02  1.29382E+01 -1.00000E+00  1.83655E-01
      21    -1     0     0   502   512  0.000000000E+00  0.000000000E+00  8.993008464E+02  8.993008464E+02  0.000000000E+00  0.00000E+00  9.000E+00
      21    -1     0     0   501   502  0.000000000E+00  0.000000000E+00 -6.057702462E+01  6.057702462E+01  0.000000000E+00  0.00000E+00  9.000E+00
      25     1     1     2     0     0  1.252867756E+02  1.036517687E+02  5.045747017E+02  5.446660398E+02  1.250000000E+02  0.00000E+00  9.000E+00
      25     1     1     2     0     0 -1.369783136E+02 -1.091928980E+02  2.490980566E+02  3.291823039E+02  1.250000000E+02  0.00000E+00  9.000E+00
      21     1     1     2   501   512  1.169153799E+01  5.541129337E+00  8.505106354E+01  8.602952739E+01  0.000000000E+00  0.00000E+00  9.000E+00
#rwgt            1           1   2.8369253070815986E-002           1       18434           0
</event>
<event>
      5   9999  3.79277E-02  5.73925E+01 -1.00000E+00  1.35743E-01
      21    -1     0     0   502   501  0.000000000E+00  0.000000000E+00  2.732339056E+02  2.732339056E+02  0.000000000E+00  0.00000E+00  9.000E+00
      21    -1     0     0   511   502  0.000000000E+00  0.000000000E+00 -9.061784842E+02  9.061784842E+02  0.000000000E+00  0.00000E+00  9.000E+00
      25     1     1     2     0     0  1.033806104E+02  6.348368623E+01  1.047528509E+02  2.032631024E+02  1.250000000E+02  0.00000E+00  9.000E+00
      25     1     1     2     0     0 -1.211211262E+02 -8.901895990E+00  5.393602567E+01  1.824381151E+02  1.250000000E+02  0.00000E+00  9.000E+00
      21     1     1     2   511   501  1.774051581E+01 -5.458179024E+01 -7.916334551E+02  7.937111723E+02  0.000000000E+00  0.00000E+00  9.000E+00
#rwgt            1           1   3.6050796726257384E-002           1       18612           0
</event>
<event>
      5   9999  3.79277E-02  1.58319E+02 -1.00000E+00  1.15472E-01
      21    -1     0     0   502   501  0.000000000E+00  0.000000000E+00  2.379969941E+02  2.379969941E+02  0.000000000E+00  0.00000E+00  9.000E+00
      21    -1     0     0   501   512  0.000000000E+00  0.000000000E+00 -1.145507629E+03  1.145507629E+03  0.000000000E+00  0.00000E+00  9.000E+00
      25     1     1     2     0     0  2.563372707E+02 -2.791409434E+02 -3.020823230E+02  5.005069355E+02  1.250000000E+02  0.00000E+00  9.000E+00
      25     1     1     2     0     0 -3.937711426E+02  2.005477012E+02 -3.307041820E+02  5.659199141E+02  1.250000000E+02  0.00000E+00  9.000E+00
      21     1     1     2   502   512  1.374338719E+02  7.859324220E+01 -2.747241293E+02  3.170777729E+02  3.814697266E-06  0.00000E+00  9.000E+00
#rwgt            1           1   3.7683484566815466E-002           1       18752           0
</event>
<event>
      5   9999  3.79277E-02  1.61565E+02 -1.00000E+00  1.15129E-01
      21    -1     0     0   502   501  0.000000000E+00  0.000000000E+00  1.607790462E+02  1.607790462E+02  0.000000000E+00  0.00000E+00  9.000E+00
      21    -1     0     0   501   511  0.000000000E+00  0.000000000E+00 -6.272349479E+02  6.272349479E+02  0.000000000E+00  0.00000E+00  9.000E+00
      25     1     1     2     0     0  1.036559980E+02  1.328454488E+02 -3.627088957E+02  4.190169713E+02  1.250000000E+02  0.00000E+00  9.000E+00
      25     1     1     2     0     0  2.599465778E+01 -3.644109928E+01  5.386919256E+01  1.432849115E+02  1.250000000E+02  0.00000E+00  9.000E+00
      21     1     1     2   502   511 -1.296506558E+02 -9.640434952E+01 -1.576161986E+02  2.257121113E+02  4.264961200E-06  0.00000E+00  9.000E+00
#rwgt            1           1   3.7212804988640526E-002           1       19172           0
</event>
<event>
      5   9999  3.79277E-02  3.00057E+01 -1.00000E+00  1.53034E-01
      21    -1     0     0   502   512  0.000000000E+00  0.000000000E+00  1.512479992E+02  1.512479992E+02  0.000000000E+00  0.00000E+00  9.000E+00
      21    -1     0     0   501   502  0.000000000E+00  0.000000000E+00 -4.689817827E+02  4.689817827E+02  0.000000000E+00  0.00000E+00  9.000E+00
      25     1     1     2     0     0  1.790096082E+02 -8.180064068E+01 -1.063351540E+02  2.562575846E+02  1.250000000E+02  0.00000E+00  9.000E+00
      25     1     1     2     0     0 -2.033257486E+02  9.938087553E+01 -2.114018276E+02  3.339665420E+02  1.250000000E+02  0.00000E+00  9.000E+00
      21     1     1     2   501   512  2.431614038E+01 -1.758023486E+01  3.198060506E-03  3.000565531E+01  5.660024758E-07  0.00000E+00  9.000E+00
#rwgt            1           1   3.6162562307109430E-002           1       19343           0
</event>
<event>
      5   9999  3.79277E-02  1.46916E+01 -1.00000E+00  1.78238E-01
      21    -1     0     0   502   511  0.000000000E+00  0.000000000E+00  1.137791212E+03  1.137791212E+03  0.000000000E+00  0.00000E+00  9.000E+00
      21    -1     0     0   501   502  0.000000000E+00  0.000000000E+00 -4.895911893E+01  4.895911893E+01  0.000000000E+00  0.00000E+00  9.000E+00
      25     1     1     2     0     0  1.280023374E+02  1.050279371E+02  7.518042192E+02  7.799038723E+02  1.250000000E+02  0.00000E+00  9.000E+00
      25     1     1     2     0     0 -1.204649059E+02 -1.176386115E+02  2.921209268E+02  3.595973753E+02  1.250000000E+02  0.00000E+00  9.000E+00
      21     1     1     2   501   511 -7.537431457E+00  1.261067440E+01  4.490694719E+01  4.724908346E+01  4.768371582E-07  0.00000E+00  9.000E+00
#rwgt            1           1   4.3323423105909149E-002           1       19581           0
</event>
<event>
      5   9999  3.79277E-02  1.68782E+01 -1.00000E+00  1.72689E-01
      21    -1     0     0   502   501  0.000000000E+00  0.000000000E+00  2.408835715E+02  2.408835715E+02  0.000000000E+00  0.00000E+00  9.000E+00
      21    -1     0     0   501   512  0.000000000E+00  0.000000000E+00 -2.291661286E+02  2.291661286E+02  0.000000000E+00  0.00000E+00  9.000E+00
      25     1     1     2     0     0  1.315174189E+02  1.387197953E+02 -8.915599726E-01  2.283983537E+02  1.250000000E+02  0.00000E+00  9.000E+00
      25     1     1     2     0     0 -1.147321039E+02 -1.369518993E+02  2.668582664E+01  2.196734206E+02  1.250000000E+02  0.00000E+00  9.000E+00
      21     1     1     2   502   512 -1.678531500E+01 -1.767896010E+00 -1.407682372E+01  2.197792579E+01  0.000000000E+00  0.00000E+00  9.000E+00
#rwgt            1           1   4.4222844404918644E-002           1       19826           0
</event>
<event>
      5   9999  3.79277E-02  1.37789E+01 -1.00000E+00  1.80929E-01
      21    -1     0     0   502   511  0.000000000E+00  0.000000000E+00  1.739377480E+02  1.739377480E+02  0.000000000E+00  0.00000E+00  9.000E+00
      21    -1     0     0   501   502  0.000000000E+00  0.000000000E+00 -1.423971922E+02  1.423971922E+02  0.000000000E+00  0.00000E+00  9.000E+00
      25     1     1     2     0     0 -7.026865891E+00  2.040399734E+00 -6.746596452E+01  1.422328951E+02  1.250000000E+02  0.00000E+00  9.000E+00
      25     1     1     2     0     0  2.299378104E+00  1.090217562E+01  7.437747822E+01  1.458806150E+02  1.250000000E+02  0.00000E+00  9.000E+00
      21     1     1     2   501   511  4.727487787E+00 -1.294257535E+01  2.462904209E+01  2.822143001E+01  0.000000000E+00  0.00000E+00  9.000E+00
#rwgt            1           1   4.6641410115367522E-002           1       20241           0
</event>
<event>
      5   9999  3.79277E-02  1.25314E+02 -1.00000E+00  1.19575E-01
      21    -1     0     0   512   501  0.000000000E+00  0.000000000E+00  3.771077146E+02  3.771077146E+02  0.000000000E+00  0.00000E+00  9.000E+00
      21    -1     0     0   501   502  0.000000000E+00  0.000000000E+00 -2.208975002E+02  2.208975002E+02  0.000000000E+00  0.00000E+00  9.000E+00
      25     1     1     2     0     0 -1.965131944E+01  7.276805791E+01  6.608343810E+00  1.461165111E+02  1.250000000E+02  0.00000E+00  9.000E+00
      25     1     1     2     0     0  1.447782931E+02 -6.591509155E+01 -5.705608465E+01  2.102045438E+02  1.250000000E+02  0.00000E+00  9.000E+00
      21     1     1     2   512   502 -1.251269736E+02 -6.852966358E+00  2.066579552E+02  2.416841599E+02  3.814697266E-06  0.00000E+00  9.000E+00
#rwgt            1           1   5.2440370107926577E-002           1       20564           0
</event>
<event>
      5   9999  3.79277E-02  8.69870E+01 -1.00000E+00  1.26614E-01
      21    -1     0     0   502   501  0.000000000E+00  0.000000000E+00  5.403475190E+02  5.403475190E+02  0.000000000E+00  0.00000E+00  9.000E+00
      21    -1     0     0   501   511  0.000000000E+00  0.000000000E+00 -9.387831283E+01  9.387831283E+01  0.000000000E+00  0.00000E+00  9.000E+00
      25     1     1     2     0     0  4.720570063E+01 -3.947419907E+01  1.397046556E+01  1.400241567E+02  1.250000000E+02  0.00000E+00  9.000E+00
      25     1     1     2     0     0  3.046309634E+01  3.040046199E-01  3.553775359E+02  3.779501101E+02  1.250000000E+02  0.00000E+00  9.000E+00
      21     1     1     2   502   511 -7.766879697E+01  3.917019445E+01  7.712120464E+01  1.162515650E+02  9.536743164E-07  0.00000E+00  9.000E+00
#rwgt            1           1   4.4382463866022633E-002           1       20623           0
</event>
<event>
      5   9999  3.79277E-02  5.72398E+01 -1.00000E+00  1.35806E-01
      21    -1     0     0   502   512  0.000000000E+00  0.000000000E+00  2.069595442E+02  2.069595442E+02  0.000000000E+00  0.00000E+00  9.000E+00
      21    -1     0     0   501   502  0.000000000E+00  0.000000000E+00 -4.444187791E+02  4.444187791E+02  0.000000000E+00  0.00000E+00  9.000E+00
      25     1     1     2     0     0  1.170135086E+02 -6.984204499E+01  7.980119425E+01  2.014033342E+02  1.250000000E+02  0.00000E+00  9.000E+00
      25     1     1     2     0     0 -1.064294059E+02  1.358925841E+01 -3.479874125E+02  3.850092540E+02  1.250000000E+02  0.00000E+00  9.000E+00
      21     1     1     2   501   512 -1.058410268E+01  5.625278658E+01  3.072698338E+01  6.496573509E+01  5.840038640E-07  0.00000E+00  9.000E+00
#rwgt            1           1   4.3885584352773267E-002           1       20747           0
</event>
<event>
      5   9999  3.79277E-02  5.86804E+01 -1.00000E+00  1.35222E-01
      21    -1     0     0   502   501  0.000000000E+00  0.000000000E+00  5.238893622E+01  5.238893622E+01  0.000000000E+00  0.00000E+00  9.000E+00
      21    -1     0     0   511   502  0.000000000E+00  0.000000000E+00 -1.016762020E+03  1.016762020E+03  0.000000000E+00  0.00000E+00  9.000E+00
      25     1     1     2     0     0 -1.617732193E+01 -5.015358828E+01 -6.686309284E+01  1.512374337E+02  1.250000000E+02  0.00000E+00  9.000E+00
      25     1     1     2     0     0  1.507484249E+00 -6.663540437E+00 -7.241598881E+02  7.349008224E+02  1.250000000E+02  0.00000E+00  9.000E+00
      21     1     1     2   511   501  1.466983768E+01  5.681712872E+01 -1.733501032E+02  1.830127005E+02  1.907348633E-06  0.00000E+00  9.000E+00
#rwgt            1           1   4.1153120989128864E-002           1       20873           0
</event>
<event>
      5   9999  3.79277E-02  1.22497E+02 -1.00000E+00  1.19990E-01
      21    -1     0     0   502   501  0.000000000E+00  0.000000000E+00  1.154809904E+03  1.154809904E+03  0.000000000E+00  0.00000E+00  9.000E+00
      21    -1     0     0   501   512  0.000000000E+00  0.000000000E+00 -2.579564014E+02  2.579564014E+02  0.000000000E+00  0.00000E+00  9.000E+00
      25     1     1     2     0     0 -7.787643609E+01  2.727837832E+02  2.861088036E+02  4.218518450E+02  1.250000000E+02  0.00000E+00  9.000E+00
      25     1     1     2     0     0 -3.777404315E+01 -2.324036462E+02  7.555777376E+02  8.012247192E+02  1.250000000E+02  0.00000E+00  9.000E+00
      21     1     1     2   502   512  1.156504792E+02 -4.038013698E+01 -1.448330386E+02  1.896897411E+02  2.697398305E-06  0.00000E+00  9.000E+00
#rwgt            1           1   3.6262234535454879E-002           1       20969           0
</event>
<event>
      5   9999  3.79277E-02  5.77839E+00 -1.00000E+00  2.28040E-01
      21    -1     0     0   502   501  0.000000000E+00  0.000000000E+00  4.732482441E+02  4.732482441E+02  0.000000000E+00  0.00000E+00  9.000E+00
      21    -1     0     0   501   511  0.000000000E+00  0.000000000E+00 -9.935428476E+01  9.935428476E+01  0.000000000E+00  0.00000E+00  9.000E+00
      25     1     1     2     0     0 -6.046017360E+01 -1.137924288E+02  1.161314037E+02  2.138121895E+02  1.250000000E+02  0.00000E+00  9.000E+00
      25     1     1     2     0     0  6.066422897E+01  1.080176467E+02  2.828027257E+02  3.330920929E+02  1.250000000E+02  0.00000E+00  9.000E+00
      21     1     1     2   502   511 -2.040553719E-01  5.774782090E+00 -2.504017015E+01  2.569824640E+01  5.840038640E-07  0.00000E+00  9.000E+00
#rwgt            2          11   6.3286084887189927E-004           1       21155           0
</event>
<event>
      5   9999  3.79277E-02  1.59598E+01 -1.00000E+00  1.74883E-01
      21    -1     0     0   502   501  0.000000000E+00  0.000000000E+00  3.314351134E+02  3.314351134E+02  0.000000000E+00  0.00000E+00  9.000E+00
      21    -1     0     0   501   512  0.000000000E+00  0.000000000E+00 -1.235484270E+02  1.235484270E+02  0.000000000E+00  0.00000E+00  9.000E+00
      25     1     1     2     0     0  2.133785757E+01 -1.420133945E+02  1.428375007E+02  2.380139912E+02  1.250000000E+02  0.00000E+00  9.000E+00
      25     1     1     2     0     0 -1.677253792E+01  1.267204474E+02  7.929048372E+01  1.955795762E+02  1.250000000E+02  0.00000E+00  9.000E+00
      21     1     1     2   502   512 -4.565319649E+00  1.529294710E+01 -1.424129804E+01  2.138997298E+01  2.384185791E-07  0.00000E+00  9.000E+00
#rwgt            1           1   3.7914730518356261E-002           1       21220           0
</event>
<event>
      5   9999  3.79277E-02  6.13789E+01 -1.00000E+00  1.34178E-01
      21    -1     0     0   502   501  0.000000000E+00  0.000000000E+00  4.084438455E+02  4.084438455E+02  0.000000000E+00  0.00000E+00  9.000E+00
      21    -1     0     0   511   502  0.000000000E+00  0.000000000E+00 -2.852499434E+02  2.852499434E+02  0.000000000E+00  0.00000E+00  9.000E+00
      25     1     1     2     0     0  9.802631503E+01  8.789432059E+01  3.051656222E+02  3.550853799E+02  1.250000000E+02  0.00000E+00  9.000E+00
      25     1     1     2     0     0 -1.594050259E+02 -8.776269567E+01 -1.628134677E+02  2.743090926E+02  1.250000000E+02  0.00000E+00  9.000E+00
      21     1     1     2   511   501  6.137871084E+01 -1.316249188E-01 -1.915825232E+01  6.429931650E+01  4.768371582E-07  0.00000E+00  9.000E+00
#rwgt            1           1   4.3847042136083376E-002           1       21350           0
</event>
<event>
      5   9999  3.79277E-02  1.91619E+01 -1.00000E+00  1.67918E-01
      21    -1     0     0   502   501  0.000000000E+00  0.000000000E+00  1.386184059E+03  1.386184059E+03  0.000000000E+00  0.00000E+00  9.000E+00
      21    -1     0     0   501   512  0.000000000E+00  0.000000000E+00 -2.880074650E+02  2.880074650E+02  0.000000000E+00  0.00000E+00  9.000E+00
      25     1     1     2     0     0  1.635348350E+01  8.036301773E+01  2.200474455E+02  2.660291888E+02  1.250000000E+02  0.00000E+00  9.000E+00
      25     1     1     2     0     0 -3.510886899E+01 -7.643715717E+01  1.137826792E+03  1.147758720E+03  1.250000000E+02  0.00000E+00  9.000E+00
      21     1     1     2   502   512  1.875538549E+01 -3.925860555E+00 -2.596976431E+02  2.604036150E+02  9.344061824E-06  0.00000E+00  9.000E+00
#rwgt            1           1   4.9666347430793581E-002           1       21474           0
</event>
<event>
      5   9999  3.79277E-02  6.48045E+01 -1.00000E+00  1.32940E-01
      21    -1     0     0   502   501  0.000000000E+00  0.000000000E+00  7.849747573E+01  7.849747573E+01  0.000000000E+00  0.00000E+00  9.000E+00
       2    -1     0     0   501     0  0.000000000E+00  0.000000000E+00 -3.763668234E+03  3.763668234E+03  0.000000000E+00  0.00000E+00  9.000E+00
      25     1     1     2     0     0 -9.810459762E+01  2.565510244E+02 -3.458701628E+02  4.590142805E+02  1.250000000E+02  0.00000E+00  9.000E+00
      25     1     1     2     0     0  4.197528567E+01 -2.889411180E+02 -1.154517239E+03  1.197407178E+03  1.250000000E+02  0.00000E+00  9.000E+00
       2     1     1     2   502     0  5.612931195E+01  3.239009356E+01 -2.184783356E+03  2.185744251E+03  3.051757812E-05  0.00000E+00  9.000E+00
#rwgt            1           1   3.4974308602417771E-002           1       21697           0
</event>
<event>
      5   9999  3.79277E-02  4.39398E+01 -1.00000E+00  1.42355E-01
      21    -1     0     0   511   501  0.000000000E+00  0.000000000E+00  4.192426146E+02  4.192426146E+02  0.000000000E+00  0.00000E+00  9.000E+00
      21    -1     0     0   501   502  0.000000000E+00  0.000000000E+00 -1.338524506E+02  1.338524506E+02  0.000000000E+00  0.00000E+00  9.000E+00
      25     1     1     2     0     0  1.666886694E+02 -8.054015638E+01  6.827753187E+01  2.335779327E+02  1.250000000E+02  0.00000E+00  9.000E+00
      25     1     1     2     0     0 -1.332537140E+02  5.203031521E+01  1.842812215E+02  2.646663458E+02  1.250000000E+02  0.00000E+00  9.000E+00
      21     1     1     2   511   502 -3.343495539E+01  2.850984117E+01  3.283141056E+01  5.485078673E+01  4.768371582E-07  0.00000E+00  9.000E+00
#rwgt            1           1   4.0758473178260979E-002           1       21864           0
</event>
<event>
      5   9999  3.79277E-02  9.24797E+01 -1.00000E+00  1.25375E-01
      21    -1     0     0   502   501  0.000000000E+00  0.000000000E+00  8.558051960E+01  8.558051960E+01  0.000000000E+00  0.00000E+00  9.000E+00
      21    -1     0     0   512   502  0.000000000E+00  0.000000000E+00 -8.869770423E+02  8.869770423E+02  0.000000000E+00  0.00000E+00  9.000E+00
      25     1     1     2     0     0 -5.899974938E+01 -1.838805003E+02 -2.541392955E+02  3.427897173E+02  1.250000000E+02  0.00000E+00  9.000E+00
      25     1     1     2     0     0  1.292915089E+02  1.237842577E+02 -4.049109837E+02  4.600181969E+02  1.250000000E+02  0.00000E+00  9.000E+00
      21     1     1     2   512   501 -7.029175956E+01  6.009624265E+01 -1.423462435E+02  1.697496476E+02  3.303624740E-06  0.00000E+00  9.000E+00
#rwgt            1           1  0.22527690972742775                1       22064           0
</event>
<event>
      5   9999  3.79277E-02  7.26975E+00 -1.00000E+00  2.13259E-01
      21    -1     0     0   511   501  0.000000000E+00  0.000000000E+00  6.561795503E+01  6.561795503E+01  0.000000000E+00  0.00000E+00  9.000E+00
      21    -1     0     0   501   502  0.000000000E+00  0.000000000E+00 -9.673768947E+02  9.673768947E+02  0.000000000E+00  0.00000E+00  9.000E+00
      25     1     1     2     0     0  2.976585668E+01  1.837353639E+02 -6.245902772E+02  6.636133698E+02  1.250000000E+02  0.00000E+00  9.000E+00
      25     1     1     2     0     0 -3.005992523E+01 -1.764715645E+02 -2.847867098E+02  3.588513373E+02  1.250000000E+02  0.00000E+00  9.000E+00
      21     1     1     2   511   502  2.940685512E-01 -7.263799449E+00  7.618047362E+00  1.053014266E+01  3.953724850E-07  0.00000E+00  9.000E+00
#rwgt            1           1   4.0868336210564571E-002           1       22168           0
</event>
<event>
      5   9999  3.79277E-02  1.04055E+01 -1.00000E+00  1.93782E-01
      21    -1     0     0   502   512  0.000000000E+00  0.000000000E+00  4.262407524E+02  4.262407524E+02  0.000000000E+00  0.00000E+00  9.000E+00
      21    -1     0     0   501   502  0.000000000E+00  0.000000000E+00 -9.999008768E+01  9.999008768E+01  0.000000000E+00  0.00000E+00  9.000E+00
      25     1     1     2     0     0  9.348858216E+01 -8.013995088E+01  2.776724125E+02  3.284653641E+02  1.250000000E+02  0.00000E+00  9.000E+00
      25     1     1     2     0     0 -8.975985832E+01  7.042544975E+01  2.381598993E+01  1.709057562E+02  1.250000000E+02  0.00000E+00  9.000E+00
      21     1     1     2   501   512 -3.728723845E+00  9.714501130E+00  2.476226221E+01  2.685971972E+01  0.000000000E+00  0.00000E+00  9.000E+00
#rwgt            1           1   4.1887608713608332E-002           1       22457           0
</event>
<event>
      5   9999 -3.79277E-02  4.81911E+01 -1.00000E+00  1.39995E-01
      21    -1     0     0   502   501  0.000000000E+00  0.000000000E+00  8.776942177E+01  8.776942177E+01  0.000000000E+00  0.00000E+00  9.000E+00
       1    -1     0     0   501     0  0.000000000E+00  0.000000000E+00 -2.447193114E+03  2.447193114E+03  0.000000000E+00  0.00000E+00  9.000E+00
      25     1     1     2     0     0 -1.172094131E+02  1.551788525E+02 -2.574890138E+02  3.460406262E+02  1.250000000E+02  0.00000E+00  9.000E+00
      25     1     1     2     0     0  7.028812483E+01 -1.661687135E+02 -2.357348260E+02  3.220999379E+02  1.250000000E+02  0.00000E+00  9.000E+00
       1     1     1     2   502     0  4.692128824E+01  1.098986099E+01 -1.866199853E+03  1.866821972E+03  3.051757812E-05  0.00000E+00  9.000E+00
#rwgt            1           1 -0.13484323713615676                1       22745           0
</event>
<event>
      5   9999  3.79277E-02  6.65376E+01 -1.00000E+00  1.32346E-01
      21    -1     0     0   502   511  0.000000000E+00  0.000000000E+00  1.099376716E+03  1.099376716E+03  0.000000000E+00  0.00000E+00  9.000E+00
      21    -1     0     0   501   502  0.000000000E+00  0.000000000E+00 -8.167519509E+01  8.167519509E+01  0.000000000E+00  0.00000E+00  9.000E+00
      25     1     1     2     0     0 -1.269247538E+02 -9.757248396E+01  1.543742333E+02  2.551209256E+02  1.250000000E+02  0.00000E+00  9.000E+00
      25     1     1     2     0     0  6.742876933E+01  6.778194847E+01  1.788596426E+02  2.382368637E+02  1.250000000E+02  0.00000E+00  9.000E+00
      21     1     1     2   501   511  5.949598444E+01  2.979053549E+01  6.844676445E+02  6.876941214E+02  1.078959322E-05  0.00000E+00  9.000E+00
#rwgt            1           1   3.5557129450565945E-002           1       22853           0
</event>
<event>
      5   9999  3.79277E-02  6.53639E+01 -1.00000E+00  1.32746E-01
      21    -1     0     0   502   501  0.000000000E+00  0.000000000E+00  1.134258691E+02  1.134258691E+02  0.000000000E+00  0.00000E+00  9.000E+00
      21    -1     0     0   501   512  0.000000000E+00  0.000000000E+00 -6.538192362E+02  6.538192362E+02  0.000000000E+00  0.00000E+00  9.000E+00
      25     1     1     2     0     0  2.108467654E+02  2.887292477E+01 -3.934936079E+02  4.644913602E+02  1.250000000E+02  0.00000E+00  9.000E+00
      25     1     1     2     0     0 -1.456393214E+02 -2.435376625E+01 -8.039429053E+01  2.095045580E+02  1.250000000E+02  0.00000E+00  9.000E+00
      21     1     1     2   502   512 -6.520744395E+01 -4.519158526E+00 -6.650546861E+01  9.324918710E+01  0.000000000E+00  0.00000E+00  9.000E+00
#rwgt            1           1   4.3358693240544262E-002           1       22956           0
</event>
<event>
      5   9999  3.79277E-02  5.73450E+01 -1.00000E+00  1.35762E-01
      21    -1     0     0   502   501  0.000000000E+00  0.000000000E+00  3.947590277E+02  3.947590277E+02  0.000000000E+00  0.00000E+00  9.000E+00
      21    -1     0     0   511   502  0.000000000E+00  0.000000000E+00 -2.345678890E+02  2.345678890E+02  0.000000000E+00  0.00000E+00  9.000E+00
      25     1     1     2     0     0 -1.804887056E+02  1.053875261E+02  2.354400265E+01  2.446671690E+02  1.250000000E+02  0.00000E+00  9.000E+00
      25     1     1     2     0     0  2.362064812E+02 -1.189515468E+02  1.453780503E+02  3.266538684E+02  1.250000000E+02  0.00000E+00  9.000E+00
      21     1     1     2   511   501 -5.571777561E+01  1.356402061E+01 -8.730914234E+00  5.800587934E+01  1.425535767E-06  0.00000E+00  9.000E+00
#rwgt            1           1   3.0574261483247329E-002           1       23180           0
</event>
<event>
      5   9999  3.79277E-02  7.42421E+01 -1.00000E+00  1.29940E-01
      21    -1     0     0   512   501  0.000000000E+00  0.000000000E+00  6.359151291E+01  6.359151291E+01  0.000000000E+00  0.00000E+00  9.000E+00
      21    -1     0     0   501   502  0.000000000E+00  0.000000000E+00 -1.676953892E+03  1.676953892E+03  0.000000000E+00  0.00000E+00  9.000E+00
      25     1     1     2     0     0  1.506776595E+02  9.166468139E+01 -3.940694177E+02  4.494684381E+02  1.250000000E+02  0.00000E+00  9.000E+00
      25     1     1     2     0     0 -1.299281433E+02 -1.629482170E+02 -1.184344495E+03  1.209020400E+03  1.250000000E+02  0.00000E+00  9.000E+00
      21     1     1     2   512   502 -2.074951615E+01  7.128353565E+01 -3.494846594E+01  8.205656675E+01  2.132480600E-06  0.00000E+00  9.000E+00
#rwgt            1           1  0.19179384321587095                1       23364           0
</event>
<event>
      5   9999  3.79277E-02  2.66910E+01 -1.00000E+00  1.56651E-01
      21    -1     0     0   502   501  0.000000000E+00  0.000000000E+00  6.406758139E+01  6.406758139E+01  0.000000000E+00  0.00000E+00  9.000E+00
       2    -1     0     0   501     0  0.000000000E+00  0.000000000E+00 -1.472122600E+03  1.472122600E+03  0.000000000E+00  0.00000E+00  9.000E+00
      25     1     1     2     0     0  6.714305501E+01 -1.508269676E+02 -1.788598753E+02  2.736289805E+02  1.250000000E+02  0.00000E+00  9.000E+00
      25     1     1     2     0     0 -4.057781238E+01  1.482395002E+02 -5.815650021E+02  6.143812822E+02  1.250000000E+02  0.00000E+00  9.000E+00
       2     1     1     2   502     0 -2.656524262E+01  2.587467372E+00 -6.476301409E+02  6.481799183E+02  7.629394531E-06  0.00000E+00  9.000E+00
#rwgt            1           1   4.1964507736795019E-002           1       23540           0
</event>
<event>
      5   9999  3.79277E-02  1.22317E+01 -1.00000E+00  1.86159E-01
      21    -1     0     0   502   501  0.000000000E+00  0.000000000E+00  1.626766860E+02  1.626766860E+02  0.000000000E+00  0.00000E+00  9.000E+00
       1    -1     0     0   501     0  0.000000000E+00  0.000000000E+00 -1.567870591E+03  1.567870591E+03  0.000000000E+00  0.00000E+00  9.000E+00
      25     1     1     2     0     0 -1.065451200E+02 -1.402766290E+02 -2.534819576E+01  2.174785651E+02  1.250000000E+02  0.00000E+00  9.000E+00
      25     1     1     2     0     0  1.156759626E+02  1.484155239E+02 -1.250366512E+02  2.582000391E+02  1.250000000E+02  0.00000E+00  9.000E+00
       1     1     1     2   502     0 -9.130842605E+00 -8.138894882E+00 -1.254809058E+03  1.254868673E+03  0.000000000E+00  0.00000E+00  9.000E+00
#rwgt            1           1   4.0422596173304182E-002           1       23705           0
</event>
<event>
      5   9999  3.79277E-02  3.80966E+01 -1.00000E+00  1.46166E-01
      21    -1     0     0   502   501  0.000000000E+00  0.000000000E+00  6.547338411E+02  6.547338411E+02  0.000000000E+00  0.00000E+00  9.000E+00
      21    -1     0     0   501   511  0.000000000E+00  0.000000000E+00 -2.370156436E+02  2.370156436E+02  0.000000000E+00  0.00000E+00  9.000E+00
      25     1     1     2     0     0 -1.516098215E+02  1.047556043E+02  2.443746230E+02  3.306103915E+02  1.250000000E+02  0.00000E+00  9.000E+00
      25     1     1     2     0     0  1.890360145E+02 -1.118713008E+02  3.210535397E+02  4.085953721E+02  1.250000000E+02  0.00000E+00  9.000E+00
      21     1     1     2   502   511 -3.742619304E+01  7.115696532E+00 -1.477099651E+02  1.525437211E+02  0.000000000E+00  0.00000E+00  9.000E+00
#rwgt            1           1   9.2776566300558638E-002           1       23971           0
</event>
<event>
      5   9999  3.79277E-02  3.08587E+01 -1.00000E+00  1.52193E-01
      21    -1     0     0   502   501  0.000000000E+00  0.000000000E+00  2.872488646E+01  2.872488646E+01  0.000000000E+00  0.00000E+00  9.000E+00
       2    -1     0     0   501     0  0.000000000E+00  0.000000000E+00 -1.598972794E+03  1.598972794E+03  0.000000000E+00  0.00000E+00  9.000E+00
      25     1     1     2     0     0 -6.237128802E+01 -1.178898399E+01 -2.023988129E+02  2.462101484E+02  1.250000000E+02  0.00000E+00  9.000E+00
      25     1     1     2     0     0  9.322349663E+01  1.242088287E+01 -1.246463934E+03  1.256241314E+03  1.250000000E+02  0.00000E+00  9.000E+00
       2     1     1     2   502     0 -3.085220861E+01 -6.318988772E-01 -1.213851604E+02  1.252462184E+02  1.348699152E-06  0.00000E+00  9.000E+00
#rwgt            1           1   8.6196971197681091E-002           1       24100           0
</event>
<event>
      5   9999  3.79277E-02  1.41491E+01 -1.00000E+00  1.79807E-01
      21    -1     0     0   511   501  0.000000000E+00  0.000000000E+00  2.907468429E+02  2.907468429E+02  0.000000000E+00  0.00000E+00  9.000E+00
      21    -1     0     0   501   502  0.000000000E+00  0.000000000E+00 -1.399810600E+02  1.399810600E+02  0.000000000E+00  0.00000E+00  9.000E+00
      25     1     1     2     0     0 -9.152771927E+01 -1.136612885E+02  2.307989409E+01  1.935300840E+02  1.250000000E+02  0.00000E+00  9.000E+00
      25     1     1     2     0     0  7.741479057E+01  1.126502156E+02  1.138975739E+02  2.174414363E+02  1.250000000E+02  0.00000E+00  9.000E+00
      21     1     1     2   511   502  1.411292870E+01  1.011072866E+00  1.378831493E+01  1.975638261E+01  2.920019320E-07  0.00000E+00  9.000E+00
#rwgt            1           1   3.9011058513179347E-002           1       24260           0
</event>
<event>
      5   9999  3.79277E-02  4.08508E+01 -1.00000E+00  1.44276E-01
      21    -1     0     0   502   501  0.000000000E+00  0.000000000E+00  4.836681055E+02  4.836681055E+02  0.000000000E+00  0.00000E+00  9.000E+00
       1    -1     0     0   501     0  0.000000000E+00  0.000000000E+00 -9.478672921E+02  9.478672921E+02  0.000000000E+00  0.00000E+00  9.000E+00
      25     1     1     2     0     0  1.744270083E+02  1.956678305E+02  1.779145693E+02  3.405719822E+02  1.250000000E+02  0.00000E+00  9.000E+00
      25     1     1     2     0     0 -1.339286307E+02 -1.903137568E+02  1.459787603E+02  3.018128602E+02  1.250000000E+02  0.00000E+00  9.000E+00
       1     1     1     2   502     0 -4.049837756E+01 -5.354073722E+00 -7.880925161E+02  7.891505551E+02  1.078959322E-05  0.00000E+00  9.000E+00
#rwgt            1           1   3.3065396308129512E-002           1       24541           0
</event>
<event>
      5   9999  3.79277E-02  6.84813E+01 -1.00000E+00  1.31705E-01
      21    -1     0     0   502   501  0.000000000E+00  0.000000000E+00  1.637864851E+02  1.637864851E+02  0.000000000E+00  0.00000E+00  9.000E+00
       2    -1     0     0   501     0  0.000000000E+00  0.000000000E+00 -1.332085453E+03  1.332085453E+03  0.000000000E+00  0.00000E+00  9.000E+00
      25     1     1     2     0     0 -1.237072290E+02  1.111732716E+01 -4.299892933E+01  1.813862767E+02  1.250000000E+02  0.00000E+00  9.000E+00
      25     1     1     2     0     0  1.179869092E+02  5.712463252E+01  5.886081054E+00  1.812285307E+02  1.250000000E+02  0.00000E+00  9.000E+00
       2     1     1     2   502     0  5.720319756E+00 -6.824195968E+01 -1.131186120E+03  1.133257131E+03  0.000000000E+00  0.00000E+00  9.000E+00
#rwgt            1           1   3.6233134577202078E-002           1       24727           0
</event>
<event>
      5   9999  3.79277E-02  1.50580E+02 -1.00000E+00  1.16327E-01
       1    -1     0     0   502     0  0.000000000E+00  0.000000000E+00  1.630159477E+02  1.630159477E+02  0.000000000E+00  0.00000E+00  9.000E+00
      21    -1     0     0   501   502  0.000000000E+00  0.000000000E+00 -7.319155780E+02  7.319155780E+02  0.000000000E+00  0.00000E+00  9.000E+00
      25     1     1     2     0     0  2.029958513E+02 -1.815251897E+02 -1.649260668E+02  3.420297029E+02  1.250000000E+02  0.00000E+00  9.000E+00
      25     1     1     2     0     0 -9.490471081E+01  7.668916766E+01 -7.306864061E+01  1.893466631E+02  1.250000000E+02  0.00000E+00  9.000E+00
       1     1     1     2   501     0 -1.080911405E+02  1.048360221E+02 -3.309049228E+02  3.635551597E+02  3.814697266E-06  0.00000E+00  9.000E+00
#rwgt            1           1   4.4836776866559278E-002           1       24996           0
</event>
<event>
      5   9999  3.79277E-02  3.59359E+01 -1.00000E+00  1.47786E-01
      21    -1     0     0   502   501  0.000000000E+00  0.000000000E+00  5.232026869E+01  5.232026869E+01  0.000000000E+00  0.00000E+00  9.000E+00
      21    -1     0     0   501   511  0.000000000E+00  0.000000000E+00 -1.161511782E+03  1.161511782E+03  0.000000000E+00  0.00000E+00  9.000E+00
      25     1     1     2     0     0  7.943167602E+01 -1.083267686E+02 -1.979079645E+02  2.698826455E+02  1.250000000E+02  0.00000E+00  9.000E+00
      25     1     1     2     0     0 -8.589619200E+01  1.436763881E+02 -7.393025143E+02  7.682540387E+02  1.250000000E+02  0.00000E+00  9.000E+00
      21     1     1     2   502   511  6.464515978E+00 -3.534961955E+01 -1.719810346E+02  1.756953665E+02  1.907348633E-06  0.00000E+00  9.000E+00
#rwgt            1           1   3.4068771173797530E-002           1       25085           0
</event>
<event>
      5   9999  3.79277E-02  1.53441E+01 -1.00000E+00  1.76461E-01
      21    -1     0     0   502   501  0.000000000E+00  0.000000000E+00  1.947459636E+02  1.947459636E+02  0.000000000E+00  0.00000E+00  9.000E+00
      21    -1     0     0   501   512  0.000000000E+00  0.000000000E+00 -3.103352836E+02  3.103352836E+02  0.000000000E+00  0.00000E+00  9.000E+00
      25     1     1     2     0     0 -1.522398643E+02  6.090694701E+01 -1.659286485E+02  2.646581736E+02  1.250000000E+02  0.00000E+00  9.000E+00
      25     1     1     2     0     0  1.427484051E+02 -7.296324526E+01  7.043088033E+01  2.151423975E+02  1.250000000E+02  0.00000E+00  9.000E+00
      21     1     1     2   502   512  9.491459211E+00  1.205629824E+01 -2.009155184E+01  2.528067603E+01  3.371747881E-07  0.00000E+00  9.000E+00
#rwgt            1           1   3.7066513348552550E-002           1       25296           0
</event>
<event>
      5   9999 -5.34547E-02  1.57566E+01 -1.00000E+00  1.75394E-01
      21    -1     0     0   502   501  0.000000000E+00  0.000000000E+00  1.521520434E+03  1.521520434E+03  0.000000000E+00  0.00000E+00  9.000E+00
      21    -1     0     0   511   502  0.000000000E+00  0.000000000E+00 -2.718436693E+01  2.718436693E+01  0.000000000E+00  0.00000E+00  9.000E+00
      25     1     1     2     0     0  1.225346417E+02 -4.991566621E+01  4.989235741E+02  5.310894886E+02  1.250000000E+02  0.00000E+00  9.000E+00
      25     1     1     2     0     0 -1.141809903E+02  3.655572965E+01  9.812834996E+02  9.964516679E+02  1.250000000E+02  0.00000E+00  9.000E+00
      21     1     1     2   511   501 -8.353651392E+00  1.335993656E+01  1.412899389E+01  2.116364489E+01  5.840038640E-07  0.00000E+00  9.000E+00
#rwgt            1           1 -0.43244045727806374                1       25514           0
</event>
<event>
      5   9999  3.79277E-02  1.61499E+02 -1.00000E+00  1.15136E-01
      21    -1     0     0   502   501  0.000000000E+00  0.000000000E+00  3.185202924E+02  3.185202924E+02  0.000000000E+00  0.00000E+00  9.000E+00
      21    -1     0     0   501   512  0.000000000E+00  0.000000000E+00 -3.931973672E+02  3.931973672E+02  0.000000000E+00  0.00000E+00  9.000E+00
      25     1     1     2     0     0  2.953317299E+01  2.408124591E+02  1.546423317E+02  3.136910893E+02  1.250000000E+02  0.00000E+00  9.000E+00
      25     1     1     2     0     0  1.563292338E+01 -8.575808056E+01 -5.928415717E+01  1.635189529E+02  1.250000000E+02  0.00000E+00  9.000E+00
      21     1     1     2   502   512 -4.516609638E+01 -1.550543785E+02 -1.700352493E+02  2.345076173E+02  3.303624740E-06  0.00000E+00  9.000E+00
#rwgt            1           1   2.9113291366565534E-002           1       25687           0
</event>
<event>
      5   9999  3.79277E-02  1.53168E+02 -1.00000E+00  1.16035E-01
      21    -1     0     0   502   501  0.000000000E+00  0.000000000E+00  1.686402575E+02  1.686402575E+02  0.000000000E+00  0.00000E+00  9.000E+00
      21    -1     0     0   501   511  0.000000000E+00  0.000000000E+00 -5.267136339E+02  5.267136339E+02  0.000000000E+00  0.00000E+00  9.000E+00
      25     1     1     2     0     0  6.339665200E+01  4.963461923E+01  1.486003506E+01  1.494274123E+02  1.250000000E+02  0.00000E+00  9.000E+00
      25     1     1     2     0     0 -4.365566666E+01 -2.015247094E+02 -1.877199697E+02  3.055843791E+02  1.250000000E+02  0.00000E+00  9.000E+00
      21     1     1     2   502   511 -1.974098533E+01  1.518900902E+02 -1.852134418E+02  2.403421000E+02  2.697398305E-06  0.00000E+00  9.000E+00
#rwgt            1           1   4.1004551494095993E-002           1       25766           0
</event>
<event>
      5   9999  3.79277E-02  9.38458E+01 -1.00000E+00  1.25081E-01
      21    -1     0     0   502   501  0.000000000E+00  0.000000000E+00  2.191771886E+02  2.191771886E+02  0.000000000E+00  0.00000E+00  9.000E+00
      21    -1     0     0   501   512  0.000000000E+00  0.000000000E+00 -3.920359037E+02  3.920359037E+02  0.000000000E+00  0.00000E+00  9.000E+00
      25     1     1     2     0     0  1.966637841E+02  1.016272802E+02 -8.435814726E+01  2.678545222E+02  1.250000000E+02  0.00000E+00  9.000E+00
      25     1     1     2     0     0 -1.159261331E+02 -1.494651210E+02 -2.086939193E+01  2.276822836E+02  1.250000000E+02  0.00000E+00  9.000E+00
      21     1     1     2   502   512 -8.073765095E+01  4.783784087E+01 -6.763117590E+01  1.156762865E+02  0.000000000E+00  0.00000E+00  9.000E+00
#rwgt            1           1   3.6248288449701356E-002           1       25866           0
</event>
<event>
      5   9999  3.79277E-02  1.15618E+02 -1.00000E+00  1.21058E-01
       2    -1     0     0   502     0  0.000000000E+00  0.000000000E+00  7.525006801E+02  7.525006801E+02  0.000000000E+00  0.00000E+00  9.000E+00
      21    -1     0     0   501   502  0.000000000E+00  0.000000000E+00 -1.947322260E+02  1.947322260E+02  0.000000000E+00  0.00000E+00  9.000E+00
      25     1     1     2     0     0  4.480987100E+01  2.114922398E+01 -9.380636416E+01  1.639507492E+02  1.250000000E+02  0.00000E+00  9.000E+00
      25     1     1     2     0     0 -1.283604803E+02 -1.010669200E+02  1.176356355E+02  2.369685168E+02  1.250000000E+02  0.00000E+00  9.000E+00
       2     1     1     2   501     0  8.355060926E+01  7.991769598E+01  5.339391828E+02  5.463136401E+02  0.000000000E+00  0.00000E+00  9.000E+00
#rwgt            1           1   4.3233654636670268E-002           1       25986           0
</event>
<event>
      5   9999  3.79277E-02  3.84918E+01 -1.00000E+00  1.45883E-01
      21    -1     0     0   502   511  0.000000000E+00  0.000000000E+00  4.305098817E+02  4.305098817E+02  0.000000000E+00  0.00000E+00  9.000E+00
      21    -1     0     0   501   502  0.000000000E+00  0.000000000E+00 -4.024224550E+02  4.024224550E+02  0.000000000E+00  0.00000E+00  9.000E+00
      25     1     1     2     0     0  6.402542640E+01 -1.033437021E+02 -2.211211995E+01  1.757643930E+02  1.250000000E+02  0.00000E+00  9.000E+00
      25     1     1     2     0     0 -6.782155192E+01  6.503955946E+01 -2.821542950E+02  3.225925502E+02  1.250000000E+02  0.00000E+00  9.000E+00
      21     1     1     2   501   511  3.796125522E+00  3.830414269E+01  3.323538417E+02  3.345753936E+02  5.394796609E-06  0.00000E+00  9.000E+00
#rwgt            1           1   5.0142387577862213E-002           1       26160           0
</event>
<event>
      5   9999  3.79277E-02  2.59273E+01 -1.00000E+00  1.57575E-01
      21    -1     0     0   502   501  0.000000000E+00  0.000000000E+00  4.426899132E+02  4.426899132E+02  0.000000000E+00  0.00000E+00  9.000E+00
      21    -1     0     0   512   502  0.000000000E+00  0.000000000E+00 -1.050451964E+02  1.050451964E+02  0.000000000E+00  0.00000E+00  9.000E+00
      25     1     1     2     0     0 -6.263514705E+01  1.052693188E+02  4.991999344E+01  1.819939473E+02  1.250000000E+02  0.00000E+00  9.000E+00
      25     1     1     2     0     0  7.916048060E+01 -1.252478031E+02  2.760271906E+02  3.372972040E+02  1.250000000E+02  0.00000E+00  9.000E+00
      21     1     1     2   512   501 -1.652533355E+01  1.997848433E+01  1.169753282E+01  2.844395822E+01  2.920019320E-07  0.00000E+00  9.000E+00
#rwgt            1           1   2.7670566214754555E-002           1       26287           0
</event>
<event>
      5   9999  3.79277E-02  2.32250E+01 -1.00000E+00  1.61184E-01
      21    -1     0     0   502   501  0.000000000E+00  0.000000000E+00  1.610202019E+03  1.610202019E+03  0.000000000E+00  0.00000E+00  9.000E+00
      21    -1     0     0   501   511  0.000000000E+00  0.000000000E+00 -6.983197018E+01  6.983197018E+01  0.000000000E+00  0.00000E+00  9.000E+00
      25     1     1     2     0     0 -1.622164442E+02 -1.558253486E+02  1.263082207E+03  1.289029626E+03  1.250000000E+02  0.00000E+00  9.000E+00
      25     1     1     2     0     0  1.397826780E+02  1.618360723E+02  2.286204474E+02  3.370792493E+02  1.250000000E+02  0.00000E+00  9.000E+00
      21     1     1     2   502   511  2.243376622E+01 -6.010723686E+00  4.866739442E+01  5.392511424E+01  0.000000000E+00  0.00000E+00  9.000E+00
#rwgt            1           1   4.0895744868181767E-002           1       26428           0
</event>
<event>
      5   9999  3.79277E-02  9.62233E+00 -1.00000E+00  1.97710E-01
      21    -1     0     0   502   501  0.000000000E+00  0.000000000E+00  6.516071737E+02  6.516071737E+02  0.000000000E+00  0.00000E+00  9.000E+00
      21    -1     0     0   512   502  0.000000000E+00  0.000000000E+00 -6.439113161E+01  6.439113161E+01  0.000000000E+00  0.00000E+00  9.000E+00
      25     1     1     2     0     0 -1.306553391E+02 -9.505906866E+00  3.195469459E+02  3.672824942E+02  1.250000000E+02  0.00000E+00  9.000E+00
      25     1     1     2     0     0  1.213607051E+02  7.016127422E+00  2.819418527E+02  3.315024210E+02  1.250000000E+02  0.00000E+00  9.000E+00
      21     1     1     2   512   501  9.294633990E+00  2.489779444E+00 -1.427275652E+01  1.721339018E+01  2.920019320E-07  0.00000E+00  9.000E+00
#rwgt            1           1   4.1055364498299621E-002           1       26595           0
</event>
<event>
      5   9999  3.79277E-02  7.13923E+01 -1.00000E+00  1.30789E-01
      21    -1     0     0   502   501  0.000000000E+00  0.000000000E+00  2.072371573E+03  2.072371573E+03  0.000000000E+00  0.00000E+00  9.000E+00
      21    -1     0     0   501   511  0.000000000E+00  0.000000000E+00 -1.302535981E+02  1.302535981E+02  0.000000000E+00  0.00000E+00  9.000E+00
      25     1     1     2     0     0  1.045013025E+02  8.021587027E+01  4.448607192E+02  4.805009548E+02  1.250000000E+02  0.00000E+00  9.000E+00
      25     1     1     2     0     0 -1.153490564E+02 -9.652530159E+00  1.593339751E+03  1.602421648E+03  1.250000000E+02  0.00000E+00  9.000E+00
      21     1     1     2   502   511  1.084775384E+01 -7.056334011E+01 -9.608249572E+01  1.197025677E+02  2.336015456E-06  0.00000E+00  9.000E+00
#rwgt            1           1  0.29370660194544518                1       26858           0
</event>
<event>
      5   9999  3.79277E-02  9.74720E+00 -1.00000E+00  1.97051E-01
      21    -1     0     0   502   512  0.000000000E+00  0.000000000E+00  1.642493229E+02  1.642493229E+02  0.000000000E+00  0.00000E+00  9.000E+00
      21    -1     0     0   501   502  0.000000000E+00  0.000000000E+00 -2.345587790E+02  2.345587790E+02  0.000000000E+00  0.00000E+00  9.000E+00
      25     1     1     2     0     0  1.194353558E+02 -9.995442137E-01 -2.387362103E+01  1.745300922E+02  1.250000000E+02  0.00000E+00  9.000E+00
      25     1     1     2     0     0 -1.102419694E+02 -2.239214225E+00 -8.316420278E+01  1.862782610E+02  1.250000000E+02  0.00000E+00  9.000E+00
      21     1     1     2   501   512 -9.193386412E+00  3.238758439E+00  3.672836773E+01  3.799974876E+01  0.000000000E+00  0.00000E+00  9.000E+00
#rwgt            1           1   2.2698208444249236E-002           1       26949           0
</event>
<event>
      5   9999  3.79277E-02  1.29516E+01 -1.00000E+00  1.83610E-01
      21    -1     0     0   511   501  0.000000000E+00  0.000000000E+00  1.659973590E+02  1.659973590E+02  0.000000000E+00  0.00000E+00  9.000E+00
      21    -1     0     0   501   502  0.000000000E+00  0.000000000E+00 -9.206193756E+02  9.206193756E+02  0.000000000E+00  0.00000E+00  9.000E+00
      25     1     1     2     0     0  1.587882223E+01  9.299691679E+01 -2.497657694E+02  2.948024815E+02  1.250000000E+02  0.00000E+00  9.000E+00
      25     1     1     2     0     0 -1.829695950E+01 -8.027308687E+01 -6.393812161E+02  6.566672573E+02  1.250000000E+02  0.00000E+00  9.000E+00
      21     1     1     2   511   502  2.418137275E+00 -1.272382993E+01  1.345249689E+02  1.351469958E+02  3.814697266E-06  0.00000E+00  9.000E+00
#rwgt            1           1   4.5910418600885357E-002           1       27379           0
</event>
<event>
      5   9999  3.79277E-02  3.25213E+01 -1.00000E+00  1.50645E-01
      21    -1     0     0   512   501  0.000000000E+00  0.000000000E+00  2.562770355E+02  2.562770355E+02  0.000000000E+00  0.00000E+00  9.000E+00
      21    -1     0     0   501   502  0.000000000E+00  0.000000000E+00 -2.393501220E+02  2.393501220E+02  0.000000000E+00  0.00000E+00  9.000E+00
      25     1     1     2     0     0  1.120642953E+02 -1.483994552E+02  2.504740713E+01  2.254621414E+02  1.250000000E+02  0.00000E+00  9.000E+00
      25     1     1     2     0     0 -9.386131052E+01  1.214497628E+02 -6.182424252E+01  2.073818398E+02  1.250000000E+02  0.00000E+00  9.000E+00
      21     1     1     2   512   502 -1.820298483E+01  2.694969235E+01  5.370374897E+01  6.278317632E+01  6.743495762E-07  0.00000E+00  9.000E+00
#rwgt            1           1   3.6712912647551180E-002           1       27571           0
</event>
<event>
      5   9999  3.79277E-02  3.23215E+01 -1.00000E+00  1.50825E-01
      -1    -1     0     0     0   501  0.000000000E+00  0.000000000E+00  1.476392706E+02  1.476392706E+02  0.000000000E+00  0.00000E+00  9.000E+00
      21    -1     0     0   501   502  0.000000000E+00  0.000000000E+00 -5.826052930E+02  5.826052930E+02  0.000000000E+00  0.00000E+00  9.000E+00
      25     1     1     2     0     0 -8.909621412E+01 -1.486905788E+02 -3.628090440E+02  4.210729462E+02  1.250000000E+02  0.00000E+00  9.000E+00
      25     1     1     2     0     0  9.652345521E+01  1.172339817E+02 -1.349618598E+02  2.385378114E+02  1.250000000E+02  0.00000E+00  9.000E+00
      -1     1     1     2     0   502 -7.427241088E+00  3.145659710E+01  6.280488148E+01  7.063380599E+01  1.784161275E-06  0.00000E+00  9.000E+00
#rwgt            1           1   4.4315175113070294E-002           1       27692           0
</event>
<event>
      5   9999  3.79277E-02  2.61036E+01 -1.00000E+00  1.57358E-01
      21    -1     0     0   502   501  0.000000000E+00  0.000000000E+00  2.304163686E+02  2.304163686E+02  0.000000000E+00  0.00000E+00  9.000E+00
      21    -1     0     0   511   502  0.000000000E+00  0.000000000E+00 -3.181254550E+02  3.181254550E+02  0.000000000E+00  0.00000E+00  9.000E+00
      25     1     1     2     0     0  1.837725371E+02 -5.450737191E+01  4.728892900E+01  2.336763612E+02  1.250000000E+02  0.00000E+00  9.000E+00
      25     1     1     2     0     0 -2.007861161E+02  7.430481145E+01 -9.174368938E+01  2.643448013E+02  1.250000000E+02  0.00000E+00  9.000E+00
      21     1     1     2   511   501  1.701357900E+01 -1.979743954E+01 -4.325432601E+01  5.052066113E+01  0.000000000E+00  0.00000E+00  9.000E+00
#rwgt            1           1   6.2808293350960415E-002           1       27911           0
</event>
<event>
      5   9999  3.79277E-02  8.04743E+01 -1.00000E+00  1.28225E-01
       2    -1     0     0   502     0  0.000000000E+00  0.000000000E+00  1.805020172E+03  1.805020172E+03  0.000000000E+00  0.00000E+00  9.000E+00
      21    -1     0     0   501   502  0.000000000E+00  0.000000000E+00 -9.894675892E+01  9.894675892E+01  0.000000000E+00  0.00000E+00  9.000E+00
      25     1     1     2     0     0 -3.460107084E+02  1.312659591E+02  1.085938631E+03  1.154054536E+03  1.250000000E+02  0.00000E+00  9.000E+00
      25     1     1     2     0     0  3.068310433E+02 -6.097321558E+01  4.542292140E+02  5.655194082E+02  1.250000000E+02  0.00000E+00  9.000E+00
       2     1     1     2   501     0  3.917966506E+01 -7.029274355E+01  1.659055685E+02  1.843929868E+02  2.697398305E-06  0.00000E+00  9.000E+00
#rwgt            1           1   3.3091323611551850E-002           1       28099           0
</event>
<event>
      5   9999  3.79277E-02  2.13083E+01 -1.00000E+00  1.64130E-01
      21    -1     0     0   511   501  0.000000000E+00  0.000000000E+00  5.863445522E+01  5.863445522E+01  0.000000000E+00  0.00000E+00  9.000E+00
      21    -1     0     0   501   502  0.000000000E+00  0.000000000E+00 -1.521941994E+03  1.521941994E+03  0.000000000E+00  0.00000E+00  9.000E+00
      25     1     1     2     0     0 -9.514524364E+01 -9.778099073E+01 -6.364636929E+02  6.628157903E+02  1.250000000E+02  0.00000E+00  9.000E+00
      25     1     1     2     0     0  8.328446169E+01  8.007882365E+01 -8.609116652E+02  8.775778112E+02  1.250000000E+02  0.00000E+00  9.000E+00
      21     1     1     2   511   502  1.186078195E+01  1.770216708E+01  3.406781973E+01  4.018284720E+01  2.236564522E-06  0.00000E+00  9.000E+00
#rwgt            1           1   4.7440315584610412E-002           1       28180           0
</event>
<event>
      5   9999  3.79277E-02  1.37392E+02 -1.00000E+00  1.17925E-01
      21    -1     0     0   502   501  0.000000000E+00  0.000000000E+00  7.086980630E+02  7.086980630E+02  0.000000000E+00  0.00000E+00  9.000E+00
      21    -1     0     0   501   512  0.000000000E+00  0.000000000E+00 -1.730454555E+02  1.730454555E+02  0.000000000E+00  0.00000E+00  9.000E+00
      25     1     1     2     0     0  1.214399309E+02  1.234762215E+02  2.889610747E+02  3.593292874E+02  1.250000000E+02  0.00000E+00  9.000E+00
      25     1     1     2     0     0 -1.479133443E+02 -2.582932333E+02  1.646687173E+02  3.624010737E+02  1.250000000E+02  0.00000E+00  9.000E+00
      21     1     1     2   502   512  2.647341346E+01  1.348170118E+02  8.202281543E+01  1.600131574E+02  1.348699152E-06  0.00000E+00  9.000E+00
#rwgt            1           1   3.7062042964779843E-002           1       28457           0
</event>
<event>
      5   9999  3.79277E-02  2.67244E+01 -1.00000E+00  1.56611E-01
      21    -1     0     0   502   501  0.000000000E+00  0.000000000E+00  3.000818341E+02  3.000818341E+02  0.000000000E+00  0.00000E+00  9.000E+00
      21    -1     0     0   511   502  0.000000000E+00  0.000000000E+00 -7.239824877E+02  7.239824877E+02  0.000000000E+00  0.00000E+00  9.000E+00
      25     1     1     2     0     0  1.315026818E+02 -2.052522346E+01  1.587476394E+02  2.419505179E+02  1.250000000E+02  0.00000E+00  9.000E+00
      25     1     1     2     0     0 -1.529674184E+02  4.604766550E+00  1.251621638E+00  1.976026354E+02  1.250000000E+02  0.00000E+00  9.000E+00
      21     1     1     2   511   501  2.146473663E+01  1.592045691E+01 -5.838999145E+02  5.845111685E+02  1.078959322E-05  0.00000E+00  9.000E+00
#rwgt            1           1   4.2465865461402949E-002           1       28694           0
</event>
<event>
      5   9999  3.79277E-02  4.21156E+01 -1.00000E+00  1.43466E-01
      21    -1     0     0   502   512  0.000000000E+00  0.000000000E+00  2.732617725E+02  2.732617725E+02  0.000000000E+00  0.00000E+00  9.000E+00
      21    -1     0     0   501   502  0.000000000E+00  0.000000000E+00 -4.874801548E+02  4.874801548E+02  0.000000000E+00  0.00000E+00  9.000E+00
      25     1     1     2     0     0  1.681836654E+02  1.965902643E+02 -1.978276720E+02  3.488470513E+02  1.250000000E+02  0.00000E+00  9.000E+00
      25     1     1     2     0     0 -1.596192560E+02 -1.553546473E+02 -1.329587001E+02  2.879520607E+02  1.250000000E+02  0.00000E+00  9.000E+00
      21     1     1     2   501   512 -8.564409378E+00 -4.123561705E+01  1.165679898E+02  1.239428154E+02  2.336015456E-06  0.00000E+00  9.000E+00
#rwgt            1           1   2.9159023134414017E-002           1       28972           0
</event>
<event>
      5   9999  3.79277E-02  2.98331E+01 -1.00000E+00  1.53208E-01
      21    -1     0     0   511   501  0.000000000E+00  0.000000000E+00  4.969323663E+01  4.969323663E+01  0.000000000E+00  0.00000E+00  9.000E+00
      21    -1     0     0   501   502  0.000000000E+00  0.000000000E+00 -1.660035968E+03  1.660035968E+03  0.000000000E+00  0.00000E+00  9.000E+00
      25     1     1     2     0     0 -7.711295798E+01  1.197197595E+02 -5.058681079E+02  5.401914213E+02  1.250000000E+02  0.00000E+00  9.000E+00
      25     1     1     2     0     0  4.813172943E+01 -1.267980967E+02 -1.120564316E+03  1.135642464E+03  1.250000000E+02  0.00000E+00  9.000E+00
      21     1     1     2   511   502  2.898122855E+01  7.078337227E+00  1.608969222E+01  3.389531918E+01  2.396077066E-06  0.00000E+00  9.000E+00
#rwgt            1           1   4.5776225262905285E-002           1       29159           0
</event>
<event>
      5   9999  3.79277E-02  5.47664E+00 -1.00000E+00  2.31809E-01
      21    -1     0     0   502   512  0.000000000E+00  0.000000000E+00  3.480955660E+02  3.480955660E+02  0.000000000E+00  0.00000E+00  9.000E+00
      21    -1     0     0   501   502  0.000000000E+00  0.000000000E+00 -4.382916194E+02  4.382916194E+02  0.000000000E+00  0.00000E+00  9.000E+00
      25     1     1     2     0     0 -1.488792940E+02  1.713770156E+02 -2.161586569E+02  3.374680587E+02  1.250000000E+02  0.00000E+00  9.000E+00
      25     1     1     2     0     0  1.488179629E+02 -1.768533155E+02 -5.450801271E+01  2.683654313E+02  1.250000000E+02  0.00000E+00  9.000E+00
      21     1     1     2   501   512  6.133108656E-02  5.476299865E+00  1.804706162E+02  1.805536954E+02  1.907348633E-06  0.00000E+00  9.000E+00
#rwgt            1           1   3.9715681590852939E-002           1       29266           0
</event>
<event>
      5   9999  3.79277E-02  3.75592E+01 -1.00000E+00  1.46557E-01
      21    -1     0     0   502   511  0.000000000E+00  0.000000000E+00  1.109588665E+03  1.109588665E+03  0.000000000E+00  0.00000E+00  9.000E+00
      21    -1     0     0   501   502  0.000000000E+00  0.000000000E+00 -7.494257427E+01  7.494257427E+01  0.000000000E+00  0.00000E+00  9.000E+00
      25     1     1     2     0     0  1.659183519E+01 -1.768335870E+02  4.227948089E+02  4.753165860E+02  1.250000000E+02  0.00000E+00  9.000E+00
      25     1     1     2     0     0 -2.471534411E+01  2.135038040E+02  2.768311184E+02  3.720956741E+02  1.250000000E+02  0.00000E+00  9.000E+00
      21     1     1     2   501   511  8.123508918E+00 -3.667021702E+01  3.350201636E+02  3.371189793E+02  3.814697266E-06  0.00000E+00  9.000E+00
#rwgt            1           1   2.0856708031263153E-002           1       29623           0
</event>
<event>
      5   9999  3.79277E-02  1.00581E+02 -1.00000E+00  1.23715E-01
       5    -1     0     0   502     0  0.000000000E+00  0.000000000E+00  6.351083103E+02  6.351083103E+02  0.000000000E+00  0.00000E+00  9.000E+00
      21    -1     0     0   501   502  0.000000000E+00  0.000000000E+00 -2.647411384E+02  2.647411384E+02  0.000000000E+00  0.00000E+00  9.000E+00
      25     1     1     2     0     0  8.175591782E+01 -1.362947298E+02  1.094967125E+02  2.299452403E+02  1.250000000E+02  0.00000E+00  9.000E+00
      25     1     1     2     0     0 -1.034320381E+01  6.546496654E+01 -1.735948414E+02  2.239482366E+02  1.250000000E+02  0.00000E+00  9.000E+00
       5     1     1     2   501     0 -7.141271401E+01  7.082976328E+01  4.344653009E+02  4.459559718E+02  5.394796609E-06  0.00000E+00  9.000E+00
#rwgt            2          21   1.3845768467897415E-005           1       29761           0
</event>
<event>
      5   9999  3.79277E-02  1.65447E+01 -1.00000E+00  1.73465E-01
      21    -1     0     0   511   501  0.000000000E+00  0.000000000E+00  1.022137677E+02  1.022137677E+02  0.000000000E+00  0.00000E+00  9.000E+00
      21    -1     0     0   501   502  0.000000000E+00  0.000000000E+00 -5.157045516E+02  5.157045516E+02  0.000000000E+00  0.00000E+00  9.000E+00
      25     1     1     2     0     0  8.747532238E+01 -1.032711738E+02 -6.078724138E+01  1.940024641E+02  1.250000000E+02  0.00000E+00  9.000E+00
      25     1     1     2     0     0 -7.285226083E+01  1.110101351E+02 -3.617089700E+02  4.050791046E+02  1.250000000E+02  0.00000E+00  9.000E+00
      21     1     1     2   511   502 -1.462306155E+01 -7.738961308E+00  9.005427460E+00  1.883675065E+01  0.000000000E+00  0.00000E+00  9.000E+00
#rwgt            1           1   3.4448748857965880E-002           1       29780           0
</event>
<event>
      5   9999  3.79277E-02  1.14688E+02 -1.00000E+00  1.21209E-01
      21    -1     0     0   502   501  0.000000000E+00  0.000000000E+00  2.212716268E+02  2.212716268E+02  0.000000000E+00  0.00000E+00  9.000E+00
      21    -1     0     0   512   502  0.000000000E+00  0.000000000E+00 -2.938263555E+02  2.938263555E+02  0.000000000E+00  0.00000E+00  9.000E+00
      25     1     1     2     0     0 -7.249696740E+01  3.481031316E+01  8.133792501E+01  1.694356109E+02  1.250000000E+02  0.00000E+00  9.000E+00
      25     1     1     2     0     0  1.341212287E+02  6.191456571E+01 -1.118506969E+02  2.235117353E+02  1.250000000E+02  0.00000E+00  9.000E+00
      21     1     1     2   512   501 -6.162426130E+01 -9.672487887E+01 -4.204195684E+01  1.221506361E+02  2.384185791E-06  0.00000E+00  9.000E+00
#rwgt            1           1   4.5760375932636571E-002           1       29976           0
</event>
<event>
      5   9999  3.79277E-02  6.95557E+01 -1.00000E+00  1.31361E-01
      21    -1     0     0   502   511  0.000000000E+00  0.000000000E+00  6.298085095E+02  6.298085095E+02  0.000000000E+00  0.00000E+00  9.000E+00
      21    -1     0     0   501   502  0.000000000E+00  0.000000000E+00 -1.414827576E+02  1.414827576E+02  0.000000000E+00  0.00000E+00  9.000E+00
      25     1     1     2     0     0 -1.251677424E+02 -9.116413569E+00 -4.160705718E+01  1.819511471E+02  1.250000000E+02  0.00000E+00  9.000E+00
      25     1     1     2     0     0  7.289335256E+01  5.500090886E+01  2.040929959E+02  2.561591142E+02  1.250000000E+02  0.00000E+00  9.000E+00
      21     1     1     2   501   511  5.227438984E+01 -4.588449529E+01  3.258398132E+02  3.331810058E+02  3.814697266E-06  0.00000E+00  9.000E+00
#rwgt            1           1   4.3058066365583819E-002           1       30056           0
</event>
<event>
      5   9999  3.79277E-02  9.49696E+00 -1.00000E+00  1.98385E-01
      21    -1     0     0   502   512  0.000000000E+00  0.000000000E+00  1.497131087E+02  1.497131087E+02  0.000000000E+00  0.00000E+00  9.000E+00
      21    -1     0     0   501   502  0.000000000E+00  0.000000000E+00 -4.876444962E+02  4.876444962E+02  0.000000000E+00  0.00000E+00  9.000E+00
      25     1     1     2     0     0 -1.178159816E+02 -1.900490114E+02 -1.785569796E+02  3.122608321E+02  1.250000000E+02  0.00000E+00  9.000E+00
      25     1     1     2     0     0  1.273043713E+02  1.904523542E+02 -1.695260444E+02  3.111954079E+02  1.250000000E+02  0.00000E+00  9.000E+00
      21     1     1     2   501   512 -9.488389684E+00 -4.033427711E-01  1.015163651E+01  1.390136497E+01  3.153981341E-07  0.00000E+00  9.000E+00
#rwgt            1           1  0.28732851682736005                1       30191           0
</event>
<event>
      5   9999  3.79277E-02  5.35688E+01 -1.00000E+00  1.37388E-01
      21    -1     0     0   511   501  0.000000000E+00  0.000000000E+00  2.478598656E+02  2.478598656E+02  0.000000000E+00  0.00000E+00  9.000E+00
      21    -1     0     0   501   502  0.000000000E+00  0.000000000E+00 -9.924046450E+02  9.924046450E+02  0.000000000E+00  0.00000E+00  9.000E+00
      25     1     1     2     0     0 -7.951443837E+00 -1.291148667E+02 -7.503397762E+02  7.716013569E+02  1.250000000E+02  0.00000E+00  9.000E+00
      25     1     1     2     0     0  2.092944559E+01  7.714188236E+01 -2.039366181E+02  2.521984455E+02  1.250000000E+02  0.00000E+00  9.000E+00
      21     1     1     2   511   502 -1.297800175E+01  5.197298432E+01  2.097316149E+02  2.164647083E+02  5.394796609E-06  0.00000E+00  9.000E+00
#rwgt            1           1   4.9763093013250471E-002           1       30555           0
</event>
<event>
      5   9999  3.79277E-02  2.71231E+01 -1.00000E+00  1.56144E-01
      21    -1     0     0   502   512  0.000000000E+00  0.000000000E+00  2.562242453E+02  2.562242453E+02  0.000000000E+00  0.00000E+00  9.000E+00
      21    -1     0     0   501   502  0.000000000E+00  0.000000000E+00 -3.576208404E+02  3.576208404E+02  0.000000000E+00  0.00000E+00  9.000E+00
      25     1     1     2     0     0  2.117060503E+02 -6.547382797E+01  6.699198255E+01  2.630954192E+02  1.250000000E+02  0.00000E+00  9.000E+00
      25     1     1     2     0     0 -2.183367821E+02  9.177398004E+01 -1.784596690E+02  3.218171333E+02  1.250000000E+02  0.00000E+00  9.000E+00
      21     1     1     2   501   512  6.630731828E+00 -2.630015206E+01  1.007109132E+01  2.893253331E+01  3.371747881E-07  0.00000E+00  9.000E+00
#rwgt            1           1   3.2237389835229745E-002           1       30634           0
</event>
<event>
      5   9999  3.79277E-02  1.09031E+02 -1.00000E+00  1.22162E-01
       2    -1     0     0   502     0  0.000000000E+00  0.000000000E+00  2.404322503E+03  2.404322503E+03  0.000000000E+00  0.00000E+00  9.000E+00
      21    -1     0     0   501   502  0.000000000E+00  0.000000000E+00 -8.890207675E+01  8.890207675E+01  0.000000000E+00  0.00000E+00  9.000E+00
      25     1     1     2     0     0  3.765073746E+00  3.667452661E+01  6.995129175E+02  7.115493788E+02  1.250000000E+02  0.00000E+00  9.000E+00
      25     1     1     2     0     0 -1.065681511E+02 -7.299681859E+01  1.866665332E+01  1.807173215E+02  1.250000000E+02  0.00000E+00  9.000E+00
       2     1     1     2   501     0  1.028030773E+02  3.632229198E+01  1.597240855E+03  1.600957879E+03  2.157918644E-05  0.00000E+00  9.000E+00
#rwgt            2          18   6.6092786097914611E-004           1       30936           0
</event>
<event>
      5   9999  3.79277E-02  2.03755E+01 -1.00000E+00  1.65705E-01
      21    -1     0     0   502   501  0.000000000E+00  0.000000000E+00  1.055986213E+02  1.055986213E+02  0.000000000E+00  0.00000E+00  9.000E+00
      21    -1     0     0   501   511  0.000000000E+00  0.000000000E+00 -4.512943283E+02  4.512943283E+02  0.000000000E+00  0.00000E+00  9.000E+00
      25     1     1     2     0     0 -1.692878248E+01  9.525574406E+01  9.105136818E+00  1.583292265E+02  1.250000000E+02  0.00000E+00  9.000E+00
      25     1     1     2     0     0 -2.946185363E+00 -9.974409318E+01 -3.277744282E+02  3.647172054E+02  1.250000000E+02  0.00000E+00  9.000E+00
      21     1     1     2   502   511  1.987496784E+01  4.488349126E+00 -2.702641557E+01  3.384651774E+01  4.768371582E-07  0.00000E+00  9.000E+00
#rwgt            1           1   4.0057568293970419E-002           1       30970           0
</event>
<event>
      5   9999  3.79277E-02  1.03659E+01 -1.00000E+00  1.93970E-01
      21    -1     0     0   512   501  0.000000000E+00  0.000000000E+00  1.662961602E+02  1.662961602E+02  0.000000000E+00  0.00000E+00  9.000E+00
      21    -1     0     0   501   502  0.000000000E+00  0.000000000E+00 -3.268939948E+02  3.268939948E+02  0.000000000E+00  0.00000E+00  9.000E+00
      25     1     1     2     0     0  1.380060833E+02 -3.351385649E+01 -2.048205732E+02  2.788284864E+02  1.250000000E+02  0.00000E+00  9.000E+00
      25     1     1     2     0     0 -1.412382951E+02  2.366474247E+01  2.394727883E+01  1.915900524E+02  1.250000000E+02  0.00000E+00  9.000E+00
      21     1     1     2   512   502  3.232211742E+00  9.849114026E+00  2.027545966E+01  2.277161620E+01  5.331201500E-07  0.00000E+00  9.000E+00
#rwgt            1           1   4.3888794774541953E-002           1       31138           0
</event>
<event>
      5   9999  3.79277E-02  1.08868E+01 -1.00000E+00  1.91586E-01
      21    -1     0     0   511   501  0.000000000E+00  0.000000000E+00  9.332247500E+01  9.332247500E+01  0.000000000E+00  0.00000E+00  9.000E+00
      21    -1     0     0   501   502  0.000000000E+00  0.000000000E+00 -6.786375048E+02  6.786375048E+02  0.000000000E+00  0.00000E+00  9.000E+00
      25     1     1     2     0     0 -1.514881349E+02 -4.592390196E+01 -3.462716993E+02  4.007327657E+02  1.250000000E+02  0.00000E+00  9.000E+00
      25     1     1     2     0     0  1.423113177E+02  5.178129507E+01 -2.725932109E+02  3.359551641E+02  1.250000000E+02  0.00000E+00  9.000E+00
      21     1     1     2   511   502  9.176817169E+00 -5.857393106E+00  3.354988046E+01  3.527204993E+01  4.768371582E-07  0.00000E+00  9.000E+00
#rwgt            1           1   2.3883528841228373E-002           1       31495           0
</event>
<event>
      5   9999 -3.79277E-02  2.03604E+01 -1.00000E+00  1.65732E-01
      21    -1     0     0   502   501  0.000000000E+00  0.000000000E+00  1.965344836E+02  1.965344836E+02  0.000000000E+00  0.00000E+00  9.000E+00
      21    -1     0     0   501   512  0.000000000E+00  0.000000000E+00 -4.212639698E+02  4.212639698E+02  0.000000000E+00  0.00000E+00  9.000E+00
      25     1     1     2     0     0 -3.316396386E+01 -4.945536535E+01  1.347073694E+02  1.931754566E+02  1.250000000E+02  0.00000E+00  9.000E+00
      25     1     1     2     0     0  4.851368988E+01  3.607878624E+01 -1.176885782E+02  1.820188407E+02  1.250000000E+02  0.00000E+00  9.000E+00
      21     1     1     2   502   512 -1.534972602E+01  1.337657911E+01 -2.417482773E+02  2.426041561E+02  2.697398305E-06  0.00000E+00  9.000E+00
#rwgt            1           1  -3.7483163096444255E-002           1       31740           0
</event>
<event>
      5   9999  3.79277E-02  1.21945E+01 -1.00000E+00  1.86297E-01
      21    -1     0     0   502   501  0.000000000E+00  0.000000000E+00  5.529190261E+02  5.529190261E+02  0.000000000E+00  0.00000E+00  9.000E+00
      21    -1     0     0   501   511  0.000000000E+00  0.000000000E+00 -6.692659151E+01  6.692659151E+01  0.000000000E+00  0.00000E+00  9.000E+00
      25     1     1     2     0     0  7.261929362E+01 -1.099550905E+02  2.199086598E+02  2.852165885E+02  1.250000000E+02  0.00000E+00  9.000E+00
      25     1     1     2     0     0 -8.135177780E+01  1.184667692E+02  2.538030176E+02  3.173223265E+02  1.250000000E+02  0.00000E+00  9.000E+00
      21     1     1     2   502   511  8.732484186E+00 -8.511678748E+00  1.228075720E+01  1.730670253E+01  0.000000000E+00  0.00000E+00  9.000E+00
#rwgt            1           1   4.0259241373147847E-002           1       31908           0
</event>
<event>
      5   9999  3.79277E-02  3.74696E+01 -1.00000E+00  1.46623E-01
      21    -1     0     0   502   512  0.000000000E+00  0.000000000E+00  4.016314792E+02  4.016314792E+02  0.000000000E+00  0.00000E+00  9.000E+00
      21    -1     0     0   501   502  0.000000000E+00  0.000000000E+00 -3.288225790E+02  3.288225790E+02  0.000000000E+00  0.00000E+00  9.000E+00
      25     1     1     2     0     0  2.261288505E+02  8.374398977E+00 -1.899215357E+02  3.207796398E+02  1.250000000E+02  0.00000E+00  9.000E+00
      25     1     1     2     0     0 -2.169440172E+02  2.795204729E+01  1.554370243E+02  2.960265057E+02  1.250000000E+02  0.00000E+00  9.000E+00
      21     1     1     2   501   512 -9.184833291E+00 -3.632644627E+01  1.072934117E+02  1.136479127E+02  1.348699152E-06  0.00000E+00  9.000E+00
#rwgt            1           1   3.2955407777338117E-002           1       32237           0
</event>
<event>
      5   9999  3.79277E-02  9.80970E+00 -1.00000E+00  1.96727E-01
      21    -1     0     0   502   501  0.000000000E+00  0.000000000E+00  2.202484880E+02  2.202484880E+02  0.000000000E+00  0.00000E+00  9.000E+00
      21    -1     0     0   501   511  0.000000000E+00  0.000000000E+00 -4.811613922E+02  4.811613922E+02  0.000000000E+00  0.00000E+00  9.000E+00
      25     1     1     2     0     0 -1.069327073E+02  2.163462887E+02 -1.609364180E+02  3.158573272E+02  1.250000000E+02  0.00000E+00  9.000E+00
      25     1     1     2     0     0  1.002315203E+02 -2.235103905E+02  9.953271642E+00  2.751859734E+02  1.250000000E+02  0.00000E+00  9.000E+00
      21     1     1     2   502   511  6.701186924E+00  7.164101815E+00 -1.099297577E+02  1.103665796E+02  2.336015456E-06  0.00000E+00  9.000E+00
#rwgt            1           1   3.6192539637709312E-002           1       32444           0
</event>
<event>
      5   9999  3.79277E-02  7.32483E+01 -1.00000E+00  1.30231E-01
      21    -1     0     0   512   501  0.000000000E+00  0.000000000E+00  1.398640987E+03  1.398640987E+03  0.000000000E+00  0.00000E+00  9.000E+00
      21    -1     0     0   501   502  0.000000000E+00  0.000000000E+00 -1.067451118E+03  1.067451118E+03  0.000000000E+00  0.00000E+00  9.000E+00
      25     1     1     2     0     0 -2.499903911E+01 -2.952853376E+02 -7.087850829E+02  7.783441889E+02  1.250000000E+02  0.00000E+00  9.000E+00
      25     1     1     2     0     0 -4.756263493E+01  3.052913520E+02 -2.368103421E+02  4.088632436E+02  1.250000000E+02  0.00000E+00  9.000E+00
      21     1     1     2   512   502  7.256167404E+01 -1.000601438E+01  1.276785294E+03  1.278884672E+03  2.157918644E-05  0.00000E+00  9.000E+00
#rwgt            1           1  0.10806583020232899                1       33021           0
</event>
<event>
      5   9999  3.79277E-02  4.85642E+01 -1.00000E+00  1.39801E-01
      21    -1     0     0   502   501  0.000000000E+00  0.000000000E+00  3.420168158E+02  3.420168158E+02  0.000000000E+00  0.00000E+00  9.000E+00
      21    -1     0     0   501   511  0.000000000E+00  0.000000000E+00 -3.034318936E+02  3.034318936E+02  0.000000000E+00  0.00000E+00  9.000E+00
      25     1     1     2     0     0  1.574761497E+02 -2.494868715E+00  2.017363768E+02  2.848289448E+02  1.250000000E+02  0.00000E+00  9.000E+00
      25     1     1     2     0     0 -1.093076777E+02 -3.692448205E+00  2.350621768E+01  1.677478609E+02  1.250000000E+02  0.00000E+00  9.000E+00
      21     1     1     2   502   511 -4.816847203E+01  6.187316920E+00 -1.866576723E+02  1.928719036E+02  2.697398305E-06  0.00000E+00  9.000E+00
#rwgt            1           1   2.6472987630402563E-002           1       33164           0
</event>
<event>
      5   9999  3.79277E-02  3.69962E+01 -1.00000E+00  1.46975E-01
      21    -1     0     0   512   501  0.000000000E+00  0.000000000E+00  1.237844867E+03  1.237844867E+03  0.000000000E+00  0.00000E+00  9.000E+00
      21    -1     0     0   501   502  0.000000000E+00  0.000000000E+00 -1.635691207E+02  1.635691207E+02  0.000000000E+00  0.00000E+00  9.000E+00
      25     1     1     2     0     0 -2.094253550E+02 -6.736549864E+01  9.549167130E+01  2.704454640E+02  1.250000000E+02  0.00000E+00  9.000E+00
      25     1     1     2     0     0  2.198795963E+02  1.028539141E+02  1.706370222E+02  3.219750889E+02  1.250000000E+02  0.00000E+00  9.000E+00
      21     1     1     2   512   502 -1.045424131E+01 -3.548841546E+01  8.081470524E+02  8.089934346E+02  0.000000000E+00  0.00000E+00  9.000E+00
#rwgt            1           1   3.4968880205839450E-002           1       33315           0
</event>
<event>
      5   9999  3.79277E-02  1.62502E+01 -1.00000E+00  1.74170E-01
       2    -1     0     0   502     0  0.000000000E+00  0.000000000E+00  4.013314408E+03  4.013314408E+03  0.000000000E+00  0.00000E+00  9.000E+00
      21    -1     0     0   501   502  0.000000000E+00  0.000000000E+00 -2.079947130E+02  2.079947130E+02  0.000000000E+00  0.00000E+00  9.000E+00
      25     1     1     2     0     0 -1.090231978E+02 -2.862653393E+01 -1.293756778E+02  2.122936695E+02  1.250000000E+02  0.00000E+00  9.000E+00
      25     1     1     2     0     0  1.133926660E+02  1.297483749E+01  1.557038260E+02  2.299889661E+02  1.250000000E+02  0.00000E+00  9.000E+00
       2     1     1     2   501     0 -4.369468191E+00  1.565169644E+01  3.778991547E+03  3.779026486E+03  6.103515625E-05  0.00000E+00  9.000E+00
#rwgt            1           1   3.9563100137200158E-002           1       33471           0
</event>
<event>
      5   9999  3.79277E-02  6.31906E+01 -1.00000E+00  1.33512E-01
      21    -1     0     0   502   501  0.000000000E+00  0.000000000E+00  5.414479245E+02  5.414479245E+02  0.000000000E+00  0.00000E+00  9.000E+00
       2    -1     0     0   501     0  0.000000000E+00  0.000000000E+00 -6.450856137E+02  6.450856137E+02  0.000000000E+00  0.00000E+00  9.000E+00
      25     1     1     2     0     0 -7.437189207E+01  7.124000025E+01  4.341945820E+02  4.634180090E+02  1.250000000E+02  0.00000E+00  9.000E+00
      25     1     1     2     0     0  1.119267636E+01 -7.003962326E+01  3.409320597E+01  1.477097543E+02  1.250000000E+02  0.00000E+00  9.000E+00
       2     1     1     2   502     0  6.317921571E+01 -1.200376992E+00 -5.719254773E+02  5.754057749E+02  7.629394531E-06  0.00000E+00  9.000E+00
#rwgt            1           1   4.0630216757231295E-002           1       33657           0
</event>
<event>
      5   9999  3.79277E-02  2.58148E+01 -1.00000E+00  1.57715E-01
      21    -1     0     0   502   501  0.000000000E+00  0.000000000E+00  5.632428589E+02  5.632428589E+02  0.000000000E+00  0.00000E+00  9.000E+00
      21    -1     0     0   501   511  0.000000000E+00  0.000000000E+00 -1.996863403E+02  1.996863403E+02  0.000000000E+00  0.00000E+00  9.000E+00
      25     1     1     2     0     0 -1.113674877E+02  1.848132515E+02  4.346966454E-02  2.493665116E+02  1.250000000E+02  0.00000E+00  9.000E+00
      25     1     1     2     0     0  1.355226045E+02 -1.757064006E+02  3.967610960E+02  4.714694930E+02  1.250000000E+02  0.00000E+00  9.000E+00
      21     1     1     2   502   511 -2.415511681E+01 -9.106850875E+00 -3.324804704E+01  4.209319461E+01  4.768371582E-07  0.00000E+00  9.000E+00
#rwgt            1           1   2.4195939867809026E-002           1       33893           0
</event>
<event>
      5   9999  3.79277E-02  4.11788E+01 -1.00000E+00  1.44062E-01
      21    -1     0     0   502   501  0.000000000E+00  0.000000000E+00  1.486475131E+02  1.486475131E+02  0.000000000E+00  0.00000E+00  9.000E+00
      21    -1     0     0   512   502  0.000000000E+00  0.000000000E+00 -3.905630786E+02  3.905630786E+02  0.000000000E+00  0.00000E+00  9.000E+00
      25     1     1     2     0     0 -1.500200226E+02  5.969277591E+01 -9.529690612E+01  2.253347177E+02  1.250000000E+02  0.00000E+00  9.000E+00
      25     1     1     2     0     0  1.784383368E+02 -8.949363461E+01 -1.159015928E+02  2.625024379E+02  1.250000000E+02  0.00000E+00  9.000E+00
      21     1     1     2   512   501 -2.841831422E+01  2.980085870E+01 -3.071706661E+01  5.137343617E+01  7.539457465E-07  0.00000E+00  9.000E+00
#rwgt            1           1   3.8777717181263126E-002           1       34073           0
</event>
<event>
      5   9999  3.79277E-02  1.01281E+02 -1.00000E+00  1.23580E-01
      21    -1     0     0   511   501  0.000000000E+00  0.000000000E+00  3.701009098E+02  3.701009098E+02  0.000000000E+00  0.00000E+00  9.000E+00
      21    -1     0     0   501   502  0.000000000E+00  0.000000000E+00 -3.610373252E+02  3.610373252E+02  0.000000000E+00  0.00000E+00  9.000E+00
      25     1     1     2     0     0 -5.782911148E+01  1.298260875E+02 -2.859177117E+02  3.428891322E+02  1.250000000E+02  0.00000E+00  9.000E+00
      25     1     1     2     0     0  3.845231773E+01 -3.041628627E+01  9.627444787E+01  1.652195525E+02  1.250000000E+02  0.00000E+00  9.000E+00
      21     1     1     2   511   502  1.937679375E+01 -9.940980123E+01  1.987068484E+02  2.230295503E+02  2.697398305E-06  0.00000E+00  9.000E+00
#rwgt            1           1   5.5307213503246425E-002           1       34171           0
</event>
<event>
      5   9999  3.79277E-02  3.15500E+01 -1.00000E+00  1.51536E-01
      21    -1     0     0   502   501  0.000000000E+00  0.000000000E+00  9.724520847E+02  9.724520847E+02  0.000000000E+00  0.00000E+00  9.000E+00
      21    -1     0     0   501   512  0.000000000E+00  0.000000000E+00 -6.229020482E+01  6.229020482E+01  0.000000000E+00  0.00000E+00  9.000E+00
      25     1     1     2     0     0  2.070454865E+01  6.792282174E+01  6.242767981E+01  1.567303521E+02  1.250000000E+02  0.00000E+00  9.000E+00
      25     1     1     2     0     0  3.246044679E-01 -4.440313817E+01  8.324531569E+02  8.429561095E+02  1.250000000E+02  0.00000E+00  9.000E+00
      21     1     1     2   502   512 -2.102915311E+01 -2.351968357E+01  1.528104313E+01  3.505582797E+01  6.529361695E-07  0.00000E+00  9.000E+00
#rwgt            1           1   5.5811251574024369E-002           1       34234           0
</event>
<event>
      5   9999  3.79277E-02  1.64687E+02 -1.00000E+00  1.14808E-01
      21    -1     0     0   502   501  0.000000000E+00  0.000000000E+00  1.861105455E+02  1.861105455E+02  0.000000000E+00  0.00000E+00  9.000E+00
       2    -1     0     0   501     0  0.000000000E+00  0.000000000E+00 -1.232152825E+03  1.232152825E+03  0.000000000E+00  0.00000E+00  9.000E+00
      25     1     1     2     0     0  2.123240088E+02 -2.560128541E+02 -7.716374724E+01  3.635977311E+02  1.250000000E+02  0.00000E+00  9.000E+00
      25     1     1     2     0     0 -1.385066576E+02  1.087955236E+02 -3.261758537E+02  3.911984761E+02  1.250000000E+02  0.00000E+00  9.000E+00
       2     1     1     2   502     0 -7.381735117E+01  1.472173305E+02 -6.427026787E+02  6.634671634E+02  1.321449896E-05  0.00000E+00  9.000E+00
#rwgt            1           1   3.9725837664934448E-002           1       34336           0
</event>
<event>
      5   9999  3.79277E-02  8.84009E+01 -1.00000E+00  1.26285E-01
      21    -1     0     0   511   501  0.000000000E+00  0.000000000E+00  4.966922375E+02  4.966922375E+02  0.000000000E+00  0.00000E+00  9.000E+00
      21    -1     0     0   501   502  0.000000000E+00  0.000000000E+00 -1.216185197E+02  1.216185197E+02  0.000000000E+00  0.00000E+00  9.000E+00
      25     1     1     2     0     0  1.882152859E+00 -5.317225144E+01  2.870601888E+02  3.175836627E+02  1.250000000E+02  0.00000E+00  9.000E+00
      25     1     1     2     0     0 -2.266030757E+01  1.390965494E+02  2.049259393E+01  1.894895406E+02  1.250000000E+02  0.00000E+00  9.000E+00
      21     1     1     2   511   502  2.077815471E+01 -8.592429799E+01  6.752093507E+01  1.112375538E+02  1.651812370E-06  0.00000E+00  9.000E+00
#rwgt            1           1   2.5203962798636990E-002           1       34384           0
</event>
<event>
      5   9999  3.79277E-02  4.11123E+01 -1.00000E+00  1.44105E-01
      21    -1     0     0   512   501  0.000000000E+00  0.000000000E+00  2.884663618E+02  2.884663618E+02  0.000000000E+00  0.00000E+00  9.000E+00
      21    -1     0     0   501   502  0.000000000E+00  0.000000000E+00 -2.710533501E+02  2.710533501E+02  0.000000000E+00  0.00000E+00  9.000E+00
      25     1     1     2     0     0  1.118725076E+01  2.217394391E+02 -4.724259453E+01  2.591339348E+02  1.250000000E+02  0.00000E+00  9.000E+00
      25     1     1     2     0     0 -5.042078057E+01 -2.094531110E+02  3.949640038E+01  2.521860949E+02  1.250000000E+02  0.00000E+00  9.000E+00
      21     1     1     2   512   502  3.923352982E+01 -1.228632806E+01  2.515920589E+01  4.819968216E+01  5.840038640E-07  0.00000E+00  9.000E+00
#rwgt            1           1   3.8277403937317885E-002           1       34472           0
</event>
<event>
      5   9999  3.79277E-02  4.49621E+01 -1.00000E+00  1.41759E-01
       1    -1     0     0   502     0  0.000000000E+00  0.000000000E+00  1.020248446E+03  1.020248446E+03  0.000000000E+00  0.00000E+00  9.000E+00
      21    -1     0     0   501   502  0.000000000E+00  0.000000000E+00 -6.925429829E+02  6.925429829E+02  0.000000000E+00  0.00000E+00  9.000E+00
      25     1     1     2     0     0  1.999400842E+02 -3.046862290E+01 -4.255970881E+02  4.875061596E+02  1.250000000E+02  0.00000E+00  9.000E+00
      25     1     1     2     0     0 -1.913620478E+02  7.460487343E+01 -1.740630361E+02  2.968303572E+02  1.250000000E+02  0.00000E+00  9.000E+00
       1     1     1     2   501     0 -8.578036439E+00 -4.413625053E+01  9.273655871E+02  9.284549119E+02  1.078959322E-05  0.00000E+00  9.000E+00
#rwgt            1           1   3.7695663373193716E-002           1       34617           0
</event>
<event>
      5   9999  3.79277E-02  8.73358E+01 -1.00000E+00  1.26532E-01
      21    -1     0     0   502   501  0.000000000E+00  0.000000000E+00  1.970087346E+03  1.970087346E+03  0.000000000E+00  0.00000E+00  9.000E+00
      21    -1     0     0   501   511  0.000000000E+00  0.000000000E+00 -1.357056950E+02  1.357056950E+02  0.000000000E+00  0.00000E+00  9.000E+00
      25     1     1     2     0     0  2.049339990E+02  4.459184322E+01  9.768842998E+02  1.006933122E+03  1.250000000E+02  0.00000E+00  9.000E+00
      25     1     1     2     0     0 -2.033375657E+02 -1.319130674E+02  9.399737819E+02  9.787353747E+02  1.250000000E+02  0.00000E+00  9.000E+00
      21     1     1     2   502   511 -1.596433307E+00  8.732122421E+01 -8.247643019E+01  1.201245451E+02  1.907348633E-06  0.00000E+00  9.000E+00
#rwgt            1           1   3.2277873353078745E-002           1       34776           0
</event>
<event>
      5   9999  3.79277E-02  8.02184E+00 -1.00000E+00  2.07516E-01
      21    -1     0     0   512   501  0.000000000E+00  0.000000000E+00  1.429329860E+02  1.429329860E+02  0.000000000E+00  0.00000E+00  9.000E+00
      21    -1     0     0   501   502  0.000000000E+00  0.000000000E+00 -3.687226261E+02  3.687226261E+02  0.000000000E+00  0.00000E+00  9.000E+00
      25     1     1     2     0     0  1.155608938E+02  5.000821526E+01 -2.221950518E+02  2.843427207E+02  1.250000000E+02  0.00000E+00  9.000E+00
      25     1     1     2     0     0 -1.214909564E+02 -4.460596237E+01 -4.472693164E+01  1.854056169E+02  1.250000000E+02  0.00000E+00  9.000E+00
      21     1     1     2   512   502  5.930062607E+00 -5.402252891E+00  4.113234336E+01  4.190727442E+01  8.259061849E-07  0.00000E+00  9.000E+00
#rwgt            1           1   1.9383502854322880E-002           1       34974           0
</event>
<event>
      5   9999 -3.79277E-02  1.18375E+01 -1.00000E+00  1.87653E-01
      21    -1     0     0   502   501  0.000000000E+00  0.000000000E+00  1.746568739E+02  1.746568739E+02  0.000000000E+00  0.00000E+00  9.000E+00
      21    -1     0     0   511   502  0.000000000E+00  0.000000000E+00 -1.539715421E+03  1.539715421E+03  0.000000000E+00  0.00000E+00  9.000E+00
      25     1     1     2     0     0 -9.865880440E+01 -2.648563880E+02 -8.633697969E+00  3.091633981E+02  1.250000000E+02  0.00000E+00  9.000E+00
      25     1     1     2     0     0  1.057702723E+02  2.553930665E+02 -9.221383273E+02  9.707610744E+02  1.250000000E+02  0.00000E+00  9.000E+00
      21     1     1     2   511   501 -7.111467922E+00  9.463321548E+00 -4.342865220E+02  4.344478227E+02  7.629394531E-06  0.00000E+00  9.000E+00
#rwgt            1           1  -9.1242723480952637E-002           1       35230           0
</event>
<event>
      5   9999  3.79277E-02  4.67792E+01 -1.00000E+00  1.40746E-01
      21    -1     0     0   512   501  0.000000000E+00  0.000000000E+00  1.087454119E+03  1.087454119E+03  0.000000000E+00  0.00000E+00  9.000E+00
      21    -1     0     0   501   502  0.000000000E+00  0.000000000E+00 -6.228747788E+01  6.228747788E+01  0.000000000E+00  0.00000E+00  9.000E+00
      25     1     1     2     0     0  1.407347710E+01  1.724972514E+02  2.921665824E+02  3.618558779E+02  1.250000000E+02  0.00000E+00  9.000E+00
      25     1     1     2     0     0  1.574125439E+01 -1.364504255E+02  3.032771938E+02  3.556241865E+02  1.250000000E+02  0.00000E+00  9.000E+00
      21     1     1     2   512   502 -2.981473149E+01 -3.604682594E+01  4.297228648E+02  4.322615325E+02  0.000000000E+00  0.00000E+00  9.000E+00
#rwgt            1           1   5.1600353970805972E-002           1       35538           0
</event>
<event>
      5   9999  3.79277E-02  3.36736E+01 -1.00000E+00  1.49635E-01
      21    -1     0     0   502   511  0.000000000E+00  0.000000000E+00  1.051929711E+03  1.051929711E+03  0.000000000E+00  0.00000E+00  9.000E+00
      21    -1     0     0   501   502  0.000000000E+00  0.000000000E+00 -5.935267780E+01  5.935267780E+01  0.000000000E+00  0.00000E+00  9.000E+00
      25     1     1     2     0     0 -3.991655488E+00  1.730469540E+02  6.786146824E+02  7.114099161E+02  1.250000000E+02  0.00000E+00  9.000E+00
      25     1     1     2     0     0  3.152875155E+01 -1.536660648E+02  2.091609031E+02  2.897940735E+02  1.250000000E+02  0.00000E+00  9.000E+00
      21     1     1     2   501   511 -2.753709607E+01 -1.938088915E+01  1.048014479E+02  1.100783994E+02  1.348699152E-06  0.00000E+00  9.000E+00
#rwgt            1           1   4.9601507345468802E-002           1       35701           0
</event>
<event>
      5   9999  3.79277E-02  1.61314E+01 -1.00000E+00  1.74459E-01
      21    -1     0     0   502   512  0.000000000E+00  0.000000000E+00  1.840816919E+02  1.840816919E+02  0.000000000E+00  0.00000E+00  9.000E+00
      21    -1     0     0   501   502  0.000000000E+00  0.000000000E+00 -2.079228797E+02  2.079228797E+02  0.000000000E+00  0.00000E+00  9.000E+00
      25     1     1     2     0     0 -9.155444226E+00  3.664032019E+01  9.634861887E+01  1.622787465E+02  1.250000000E+02  0.00000E+00  9.000E+00
      25     1     1     2     0     0  1.495914628E+01 -5.169151719E+01 -1.458084454E+02  1.994514772E+02  1.250000000E+02  0.00000E+00  9.000E+00
      21     1     1     2   501   512 -5.803702058E+00  1.505119700E+01  2.561863875E+01  3.027434789E+01  0.000000000E+00  0.00000E+00  9.000E+00
#rwgt            1           1   2.6623066963371272E-002           1       35882           0
</event>
<event>
      5   9999  3.79277E-02  7.32882E+01 -1.00000E+00  1.30219E-01
      21    -1     0     0   502   511  0.000000000E+00  0.000000000E+00  1.274676340E+03  1.274676340E+03  0.000000000E+00  0.00000E+00  9.000E+00
      21    -1     0     0   501   502  0.000000000E+00  0.000000000E+00 -2.475800278E+02  2.475800278E+02  0.000000000E+00  0.00000E+00  9.000E+00
      25     1     1     2     0     0 -5.996180285E+01 -1.368048353E+02 -2.367379753E+01  1.962050699E+02  1.250000000E+02  0.00000E+00  9.000E+00
      25     1     1     2     0     0  1.162652950E+02  8.988921164E+01 -6.823944312E+01  2.046443520E+02  1.250000000E+02  0.00000E+00  9.000E+00
      21     1     1     2   501   511 -5.630349217E+01  4.691562364E+01  1.119009553E+03  1.121406946E+03  2.157918644E-05  0.00000E+00  9.000E+00
#rwgt            1           1  0.16566486084473009                1       36090           0
</event>
<event>
      5   9999  3.79277E-02  1.94069E+02 -1.00000E+00  1.12126E-01
      21    -1     0     0   502   512  0.000000000E+00  0.000000000E+00  9.707791619E+01  9.707791619E+01  0.000000000E+00  0.00000E+00  9.000E+00
      21    -1     0     0   501   502  0.000000000E+00  0.000000000E+00 -1.112776592E+03  1.112776592E+03  0.000000000E+00  0.00000E+00  9.000E+00
      25     1     1     2     0     0  9.730537785E+01  1.032735306E+02 -7.529431332E+02  7.763260401E+02  1.250000000E+02  0.00000E+00  9.000E+00
      25     1     1     2     0     0  7.436735462E+01 -1.276859013E+01 -1.488269669E+02  2.084898233E+02  1.250000000E+02  0.00000E+00  9.000E+00
      21     1     1     2   501   512 -1.716727325E+02 -9.050494050E+01 -1.139285758E+02  2.250386450E+02  3.015782986E-06  0.00000E+00  9.000E+00
#rwgt            1           1   4.0791669113876952E-002           1       36269           0
</event>
<event>
      5   9999  3.79277E-02  4.86839E+01 -1.00000E+00  1.39740E-01
      21    -1     0     0   511   501  0.000000000E+00  0.000000000E+00  7.229594261E+01  7.229594261E+01  0.000000000E+00  0.00000E+00  9.000E+00
      21    -1     0     0   501   502  0.000000000E+00  0.000000000E+00 -1.296801856E+03  1.296801856E+03  0.000000000E+00  0.00000E+00  9.000E+00
      25     1     1     2     0     0  1.055251313E+02  7.786584998E+01 -8.382364605E+02  8.575919820E+02  1.250000000E+02  0.00000E+00  9.000E+00
      25     1     1     2     0     0 -1.212673725E+02 -3.179742500E+01 -4.176241433E+02  4.535986959E+02  1.250000000E+02  0.00000E+00  9.000E+00
      21     1     1     2   511   502  1.574224128E+01 -4.606842497E+01  3.135469082E+01  5.790712025E+01  3.552356821E-06  0.00000E+00  9.000E+00
#rwgt            1           1   4.0941107904257493E-002           1       36361           0
</event>
<event>
      5   9999  3.79277E-02  1.57503E+01 -1.00000E+00  1.75410E-01
      21    -1     0     0   512   501  0.000000000E+00  0.000000000E+00  4.704671788E+02  4.704671788E+02  0.000000000E+00  0.00000E+00  9.000E+00
      21    -1     0     0   501   502  0.000000000E+00  0.000000000E+00 -2.612867867E+02  2.612867867E+02  0.000000000E+00  0.00000E+00  9.000E+00
      25     1     1     2     0     0 -1.737267243E+00  1.728728879E+02 -1.670953469E+02  2.709869156E+02  1.250000000E+02  0.00000E+00  9.000E+00
      25     1     1     2     0     0  1.740402291E+01 -1.744926042E+02  2.355167427E+02  3.191296053E+02  1.250000000E+02  0.00000E+00  9.000E+00
      21     1     1     2   512   502 -1.566675566E+01  1.619716269E+00  1.407589962E+02  1.416374447E+02  1.907348633E-06  0.00000E+00  9.000E+00
#rwgt            1           1   3.0419031887472626E-002           1       36456           0
</event>
<event>
      5   9999  3.79277E-02  1.43935E+02 -1.00000E+00  1.17108E-01
       4    -1     0     0   502     0  0.000000000E+00  0.000000000E+00  1.233418201E+03  1.233418201E+03  0.000000000E+00  0.00000E+00  9.000E+00
      21    -1     0     0   501   502  0.000000000E+00  0.000000000E+00 -4.495718858E+02  4.495718858E+02  0.000000000E+00  0.00000E+00  9.000E+00
      25     1     1     2     0     0  3.993445500E+01  1.006478198E+01 -1.300215802E-01  1.316095644E+02  1.250000000E+02  0.00000E+00  9.000E+00
      25     1     1     2     0     0 -1.140372537E+02 -1.334592658E+02 -3.485250971E+02  4.097689766E+02  1.250000000E+02  0.00000E+00  9.000E+00
       4     1     1     2   501     0  7.410279873E+01  1.233944839E+02  1.132501434E+03  1.141611546E+03  1.525878906E-05  0.00000E+00  9.000E+00
#rwgt            1           1   2.5949180544712919E-002           1       36654           0
</event>
<event>
      5   9999  3.79277E-02  5.80892E+01 -1.00000E+00  1.35459E-01
      21    -1     0     0   502   511  0.000000000E+00  0.000000000E+00  5.889943699E+02  5.889943699E+02  0.000000000E+00  0.00000E+00  9.000E+00
      21    -1     0     0   501   502  0.000000000E+00  0.000000000E+00 -1.375847117E+02  1.375847117E+02  0.000000000E+00  0.00000E+00  9.000E+00
      25     1     1     2     0     0 -6.317201648E+00  1.790934839E+01  3.774736951E+02  3.980854711E+02  1.250000000E+02  0.00000E+00  9.000E+00
      25     1     1     2     0     0  6.141798508E+01  4.824294007E-01 -8.232393108E+01  1.617857573E+02  1.250000000E+02  0.00000E+00  9.000E+00
      21     1     1     2   501   511 -5.510078343E+01 -1.839177779E+01  1.562598941E+02  1.667078533E+02  1.907348633E-06  0.00000E+00  9.000E+00
#rwgt            2          11   1.5400210138378481E-003           1       36826           0
</event>
<event>
      5   9999  3.79277E-02  2.53830E+01 -1.00000E+00  1.58258E-01
       4    -1     0     0   502     0  0.000000000E+00  0.000000000E+00  9.827028544E+01  9.827028544E+01  0.000000000E+00  0.00000E+00  9.000E+00
      21    -1     0     0   501   502  0.000000000E+00  0.000000000E+00 -5.897109961E+02  5.897109961E+02  0.000000000E+00  0.00000E+00  9.000E+00
      25     1     1     2     0     0  5.718154441E+01  6.536681871E+01 -9.600666294E+01  1.799578543E+02  1.250000000E+02  0.00000E+00  9.000E+00
      25     1     1     2     0     0 -7.803169509E+01 -5.089038367E+01 -4.343956478E+02  4.615228656E+02  1.250000000E+02  0.00000E+00  9.000E+00
       4     1     1     2   501     0  2.085015068E+01 -1.447643505E+01  3.896160008E+01  4.650056167E+01  4.768371582E-07  0.00000E+00  9.000E+00
#rwgt            1           1   2.4304592684989395E-002           1       36921           0
</event>
<event>
      5   9999 -3.79277E-02  1.37351E+01 -1.00000E+00  1.81066E-01
      21    -1     0     0   502   511  0.000000000E+00  0.000000000E+00  1.667477975E+02  1.667477975E+02  0.000000000E+00  0.00000E+00  9.000E+00
      21    -1     0     0   501   502  0.000000000E+00  0.000000000E+00 -7.123990767E+02  7.123990767E+02  0.000000000E+00  0.00000E+00  9.000E+00
      25     1     1     2     0     0  1.400996669E+02 -2.464811808E+02 -1.148903145E+02  3.304628172E+02  1.250000000E+02  0.00000E+00  9.000E+00
      25     1     1     2     0     0 -1.318930681E+02  2.574949829E+02 -4.321678897E+02  5.348771191E+02  1.250000000E+02  0.00000E+00  9.000E+00
      21     1     1     2   501   511 -8.206598777E+00 -1.101380205E+01  1.406924998E+00  1.380693800E+01  1.731358474E-07  0.00000E+00  9.000E+00
#rwgt            1           1 -0.33726292314291711                1       37002           0
</event>
<event>
      5   9999  3.79277E-02  1.29885E+01 -1.00000E+00  1.83485E-01
      21    -1     0     0   502   501  0.000000000E+00  0.000000000E+00  3.033535139E+02  3.033535139E+02  0.000000000E+00  0.00000E+00  9.000E+00
      21    -1     0     0   512   502  0.000000000E+00  0.000000000E+00 -2.428443776E+02  2.428443776E+02  0.000000000E+00  0.00000E+00  9.000E+00
      25     1     1     2     0     0 -1.231149327E+02 -1.674002673E+02  5.385786646E+01  2.484065336E+02  1.250000000E+02  0.00000E+00  9.000E+00
      25     1     1     2     0     0  1.175333559E+02  1.556722373E+02  6.290111456E+01  2.400614202E+02  1.250000000E+02  0.00000E+00  9.000E+00
      21     1     1     2   512   501  5.581576772E+00  1.172802999E+01 -5.624984470E+01  5.772993777E+01  6.743495762E-07  0.00000E+00  9.000E+00
#rwgt            1           1   3.3518282059164552E-002           1       37288           0
</event>
<event>
      5   9999  3.79277E-02  1.50476E+02 -1.00000E+00  1.16339E-01
      21    -1     0     0   511   501  0.000000000E+00  0.000000000E+00  5.017990244E+02  5.017990244E+02  0.000000000E+00  0.00000E+00  9.000E+00
      21    -1     0     0   501   502  0.000000000E+00  0.000000000E+00 -5.957621221E+02  5.957621221E+02  0.000000000E+00  0.00000E+00  9.000E+00
      25     1     1     2     0     0 -5.093680023E+01  4.074816068E+02 -1.114969155E+01  4.294009002E+02  1.250000000E+02  0.00000E+00  9.000E+00
      25     1     1     2     0     0 -9.094694267E+01 -4.576012947E+02 -1.465396333E+02  5.047466250E+02  1.250000000E+02  0.00000E+00  9.000E+00
      21     1     1     2   511   502  1.418837429E+02  5.011968792E+01  6.372622717E+01  1.634136214E+02  2.023048729E-06  0.00000E+00  9.000E+00
#rwgt            1           1  0.15112004540349014                1       37534           0
</event>
<event>
      5   9999  3.79277E-02  4.51821E+01 -1.00000E+00  1.41634E-01
      21    -1     0     0   512   501  0.000000000E+00  0.000000000E+00  1.588357708E+02  1.588357708E+02  0.000000000E+00  0.00000E+00  9.000E+00
      21    -1     0     0   501   502  0.000000000E+00  0.000000000E+00 -3.529132452E+02  3.529132452E+02  0.000000000E+00  0.00000E+00  9.000E+00
      25     1     1     2     0     0  9.829273608E+01 -3.048595125E+01 -2.257587529E+02  2.778180514E+02  1.250000000E+02  0.00000E+00  9.000E+00
      25     1     1     2     0     0 -1.046038982E+02  7.522508089E+01  1.365187191E+00  1.795206173E+02  1.250000000E+02  0.00000E+00  9.000E+00
      21     1     1     2   512   502  6.311162119E+00 -4.473912965E+01  3.031609129E+01  5.441034717E+01  1.066240300E-06  0.00000E+00  9.000E+00
#rwgt            1           1   4.4167492136576537E-002           1       37638           0
</event>
<event>
      5   9999  3.79277E-02  5.68884E+01 -1.00000E+00  1.35951E-01
      21    -1     0     0   502   501  0.000000000E+00  0.000000000E+00  7.339116159E+02  7.339116159E+02  0.000000000E+00  0.00000E+00  9.000E+00
      21    -1     0     0   511   502  0.000000000E+00  0.000000000E+00 -7.089437735E+01  7.089437735E+01  0.000000000E+00  0.00000E+00  9.000E+00
      25     1     1     2     0     0  1.652585734E+02 -2.718642254E+01  4.428378237E+02  4.896731928E+02  1.250000000E+02  0.00000E+00  9.000E+00
      25     1     1     2     0     0 -1.127543796E+02  5.286595147E+00  1.693851046E+02  2.388677707E+02  1.250000000E+02  0.00000E+00  9.000E+00
      21     1     1     2   511   501 -5.250419387E+01  2.189982739E+01  5.079431021E+01  7.626502976E+01  1.168007728E-06  0.00000E+00  9.000E+00
#rwgt            1           1   3.7917632795565169E-002           1       37762           0
</event>
<event>
      5   9999  3.79277E-02  8.64131E+01 -1.00000E+00  1.26749E-01
      21    -1     0     0   502   501  0.000000000E+00  0.000000000E+00  4.534269359E+02  4.534269359E+02  0.000000000E+00  0.00000E+00  9.000E+00
      21    -1     0     0   512   502  0.000000000E+00  0.000000000E+00 -1.862245575E+02  1.862245575E+02  0.000000000E+00  0.00000E+00  9.000E+00
      25     1     1     2     0     0 -7.462819798E+00  1.954043592E+02  1.516454829E+02  2.772361985E+02  1.250000000E+02  0.00000E+00  9.000E+00
      25     1     1     2     0     0  2.714037865E+01 -1.112615328E+02  1.854594077E+02  2.512686227E+02  1.250000000E+02  0.00000E+00  9.000E+00
      21     1     1     2   512   501 -1.967755885E+01 -8.414282634E+01 -6.990251212E+01  1.111466722E+02  2.132480600E-06  0.00000E+00  9.000E+00
#rwgt            1           1   3.3147657126329520E-002           1       37909           0
</event>
<event>
      5   9999  3.79277E-02  2.33400E+01 -1.00000E+00  1.61019E-01
      21    -1     0     0   502   501  0.000000000E+00  0.000000000E+00  3.947218487E+02  3.947218487E+02  0.000000000E+00  0.00000E+00  9.000E+00
       2    -1     0     0   501     0  0.000000000E+00  0.000000000E+00 -4.356088197E+02  4.356088197E+02  0.000000000E+00  0.00000E+00  9.000E+00
      25     1     1     2     0     0  9.106422030E+00  1.514471295E+02  1.346014207E+02  2.382471456E+02  1.250000000E+02  0.00000E+00  9.000E+00
      25     1     1     2     0     0  1.418335763E+01 -1.529778288E+02  1.607192056E+02  2.550667496E+02  1.250000000E+02  0.00000E+00  9.000E+00
       2     1     1     2   502     0 -2.328977966E+01  1.530699328E+00 -3.362075973E+02  3.370167731E+02  3.814697266E-06  0.00000E+00  9.000E+00
#rwgt            2          13   4.8913565294200236E-004           1       38141           0
</event>
<event>
      5   9999  3.79277E-02  4.61713E+01 -1.00000E+00  1.41079E-01
      21    -1     0     0   502   511  0.000000000E+00  0.000000000E+00  1.769578844E+02  1.769578844E+02  0.000000000E+00  0.00000E+00  9.000E+00
      21    -1     0     0   501   502  0.000000000E+00  0.000000000E+00 -6.190458850E+02  6.190458850E+02  0.000000000E+00  0.00000E+00  9.000E+00
      25     1     1     2     0     0  1.174738744E+01  1.948226273E+02 -1.770605499E+02  2.916664114E+02  1.250000000E+02  0.00000E+00  9.000E+00
      25     1     1     2     0     0  8.301480149E+00 -1.532314122E+02 -3.531614523E+02  4.048416871E+02  1.250000000E+02  0.00000E+00  9.000E+00
      21     1     1     2   501   511 -2.004886758E+01 -4.159121507E+01  8.813400166E+01  9.949567082E+01  1.907348633E-06  0.00000E+00  9.000E+00
#rwgt            1           1   3.7478385073129554E-002           1       38160           0
</event>
<event>
      5   9999  3.79277E-02  3.32161E+01 -1.00000E+00  1.50030E-01
      21    -1     0     0   502   501  0.000000000E+00  0.000000000E+00  2.568867122E+02  2.568867122E+02  0.000000000E+00  0.00000E+00  9.000E+00
      21    -1     0     0   512   502  0.000000000E+00  0.000000000E+00 -2.157724681E+02  2.157724681E+02  0.000000000E+00  0.00000E+00  9.000E+00
      25     1     1     2     0     0 -1.305760909E+02 -8.224518246E+01 -5.446727898E+01  2.059273416E+02  1.250000000E+02  0.00000E+00  9.000E+00
      25     1     1     2     0     0  1.162948062E+02  1.122344593E+02  1.081999305E+02  2.311996557E+02  1.250000000E+02  0.00000E+00  9.000E+00
      21     1     1     2   512   501  1.428128463E+01 -2.998927686E+01 -1.261840743E+01  3.553218293E+01  2.384185791E-07  0.00000E+00  9.000E+00
#rwgt            1           1   4.2517302833466594E-002           1       38293           0
</event>
<event>
      5   9999  3.79277E-02  1.52972E+02 -1.00000E+00  1.16057E-01
      21    -1     0     0   502   501  0.000000000E+00  0.000000000E+00  8.618598434E+01  8.618598434E+01  0.000000000E+00  0.00000E+00  9.000E+00
       1    -1     0     0   501     0  0.000000000E+00  0.000000000E+00 -1.494793438E+03  1.494793438E+03  0.000000000E+00  0.00000E+00  9.000E+00
      25     1     1     2     0     0  1.741964338E+02 -1.213963931E+02 -1.680909183E+02  2.982633712E+02  1.250000000E+02  0.00000E+00  9.000E+00
      25     1     1     2     0     0 -1.093396279E+02 -1.714614287E+01 -5.201905572E+02  5.463262398E+02  1.250000000E+02  0.00000E+00  9.000E+00
       1     1     1     2   502     0 -6.485680587E+01  1.385425359E+02 -7.203259781E+02  7.363898113E+02  1.078959322E-05  0.00000E+00  9.000E+00
#rwgt            1           1   4.2770713233876580E-002           1       38376           0
</event>
<event>
      5   9999  3.79277E-02  8.97149E+01 -1.00000E+00  1.25986E-01
      -5    -1     0     0     0   501  0.000000000E+00  0.000000000E+00  1.026384910E+02  1.026384910E+02  0.000000000E+00  0.00000E+00  9.000E+00
      21    -1     0     0   501   502  0.000000000E+00  0.000000000E+00 -8.939311440E+02  8.939311440E+02  0.000000000E+00  0.00000E+00  9.000E+00
      25     1     1     2     0     0 -6.800976015E+01  1.745882042E+01 -6.149983094E+02  6.314887635E+02  1.250000000E+02  0.00000E+00  9.000E+00
      25     1     1     2     0     0  7.929779935E+01 -1.064607165E+02 -2.016384483E+02  2.718549042E+02  1.250000000E+02  0.00000E+00  9.000E+00
      -5     1     1     2     0   502 -1.128803920E+01  8.900189604E+01  2.534410461E+01  9.322596723E+01  2.185142372E-06  0.00000E+00  9.000E+00
#rwgt            1           1   4.5380642501727450E-002           1       38498           0
</event>
<event>
      5   9999  3.79277E-02  1.32857E+02 -1.00000E+00  1.18522E-01
      21    -1     0     0   502   511  0.000000000E+00  0.000000000E+00  1.325351118E+02  1.325351118E+02  0.000000000E+00  0.00000E+00  9.000E+00
      21    -1     0     0   501   502  0.000000000E+00  0.000000000E+00 -9.018041376E+02  9.018041376E+02  0.000000000E+00  0.00000E+00  9.000E+00
      25     1     1     2     0     0  5.305779807E+01  1.450079194E+02 -1.945129820E+02  2.780336792E+02  1.250000000E+02  0.00000E+00  9.000E+00
      25     1     1     2     0     0 -7.286658662E+01 -2.763794843E+02 -5.320324499E+02  6.167484791E+02  1.250000000E+02  0.00000E+00  9.000E+00
      21     1     1     2   501   511  1.980878855E+01  1.313715650E+02 -4.272359393E+01  1.395570910E+02  2.780414531E-06  0.00000E+00  9.000E+00
#rwgt            1           1   3.5783921481816479E-002           1       38584           0
</event>
<event>
      5   9999  3.79277E-02  2.00278E+01 -1.00000E+00  1.66319E-01
      21    -1     0     0   502   501  0.000000000E+00  0.000000000E+00  1.156757509E+02  1.156757509E+02  0.000000000E+00  0.00000E+00  9.000E+00
      21    -1     0     0   501   512  0.000000000E+00  0.000000000E+00 -1.616747799E+03  1.616747799E+03  0.000000000E+00  0.00000E+00  9.000E+00
      25     1     1     2     0     0 -1.259497142E+02 -2.095078534E+02 -3.200337760E+02  4.216675099E+02  1.250000000E+02  0.00000E+00  9.000E+00
      25     1     1     2     0     0  1.363993254E+02  2.265934907E+02 -2.656570088E+02  3.951557064E+02  1.250000000E+02  0.00000E+00  9.000E+00
      21     1     1     2   502   512 -1.044961127E+01 -1.708563729E+01 -9.153812636E+02  9.156003338E+02  1.078959322E-05  0.00000E+00  9.000E+00
#rwgt            1           1  0.13572645661821103                1       38660           0
</event>
<event>
      5   9999  3.79277E-02  1.81247E+01 -1.00000E+00  1.69976E-01
      21    -1     0     0   502   501  0.000000000E+00  0.000000000E+00  1.636561017E+02  1.636561017E+02  0.000000000E+00  0.00000E+00  9.000E+00
      21    -1     0     0   501   511  0.000000000E+00  0.000000000E+00 -4.470311054E+02  4.470311054E+02  0.000000000E+00  0.00000E+00  9.000E+00
      25     1     1     2     0     0  9.840640412E+01 -1.032948186E+02 -7.609013822E+01  2.043730634E+02  1.250000000E+02  0.00000E+00  9.000E+00
      25     1     1     2     0     0 -1.123591660E+02  9.172646887E+01  6.670107667E+00  1.915928433E+02  1.250000000E+02  0.00000E+00  9.000E+00
      21     1     1     2   502   511  1.395276189E+01  1.156834973E+01 -2.139549731E+02  2.147213003E+02  2.697398305E-06  0.00000E+00  9.000E+00
#rwgt            1           1   3.9879590145973164E-002           1       38892           0
</event>
<event>
      5   9999  3.79277E-02  3.48486E+01 -1.00000E+00  1.48654E-01
      21    -1     0     0   512   501  0.000000000E+00  0.000000000E+00  8.004269497E+02  8.004269497E+02  0.000000000E+00  0.00000E+00  9.000E+00
      21    -1     0     0   501   502  0.000000000E+00  0.000000000E+00 -1.560623343E+02  1.560623343E+02  0.000000000E+00  0.00000E+00  9.000E+00
      25     1     1     2     0     0 -2.412878499E+02  3.258388234E+01  2.052020524E+02  3.420737028E+02  1.250000000E+02  0.00000E+00  9.000E+00
      25     1     1     2     0     0  2.703968731E+02 -5.174350613E+01  1.778328404E+02  3.507725453E+02  1.250000000E+02  0.00000E+00  9.000E+00
      21     1     1     2   512   502 -2.910902322E+01  1.915962379E+01  2.613297227E+02  2.636430359E+02  5.394796609E-06  0.00000E+00  9.000E+00
#rwgt            1           1   3.8218541347475814E-002           1       38977           0
</event>
<event>
      5   9999  3.79277E-02  2.17466E+01 -1.00000E+00  1.63424E-01
      21    -1     0     0   502   501  0.000000000E+00  0.000000000E+00  6.630554583E+02  6.630554583E+02  0.000000000E+00  0.00000E+00  9.000E+00
      21    -1     0     0   501   511  0.000000000E+00  0.000000000E+00 -7.675235948E+01  7.675235948E+01  0.000000000E+00  0.00000E+00  9.000E+00
      25     1     1     2     0     0  1.646209372E+02 -2.398128823E+01  2.272458920E+02  3.081247322E+02  1.250000000E+02  0.00000E+00  9.000E+00
      25     1     1     2     0     0 -1.723419304E+02  3.651494269E+00  3.461378470E+02  4.063883408E+02  1.250000000E+02  0.00000E+00  9.000E+00
      21     1     1     2   502   511  7.720993179E+00  2.032979396E+01  1.291935983E+01  2.529474484E+01  3.769728732E-07  0.00000E+00  9.000E+00
#rwgt            1           1   4.0999884114596222E-002           1       39173           0
</event>
<event>
      5   9999  3.79277E-02  8.50068E+00 -1.00000E+00  2.04282E-01
      21    -1     0     0   502   501  0.000000000E+00  0.000000000E+00  1.857633983E+03  1.857633983E+03  0.000000000E+00  0.00000E+00  9.000E+00
      21    -1     0     0   512   502  0.000000000E+00  0.000000000E+00 -8.089710741E+01  8.089710741E+01  0.000000000E+00  0.00000E+00  9.000E+00
      25     1     1     2     0     0  9.735964519E+01  1.998955743E+02  1.679310127E+02  3.053898593E+02  1.250000000E+02  0.00000E+00  9.000E+00
      25     1     1     2     0     0 -9.627926564E+01 -1.914638286E+02  1.604581754E+03  1.623648884E+03  1.250000000E+02  0.00000E+00  9.000E+00
      21     1     1     2   512   501 -1.080379547E+00 -8.431745715E+00  4.224109502E+00  9.492347279E+00  1.685873940E-07  0.00000E+00  9.000E+00
#rwgt            1           1   3.6070636872746899E-002           1       39353           0
</event>
<event>
      5   9999  3.79277E-02  3.08086E+01 -1.00000E+00  1.52242E-01
      21    -1     0     0   502   511  0.000000000E+00  0.000000000E+00  1.058150385E+03  1.058150385E+03  0.000000000E+00  0.00000E+00  9.000E+00
      21    -1     0     0   501   502  0.000000000E+00  0.000000000E+00 -2.228967952E+02  2.228967952E+02  0.000000000E+00  0.00000E+00  9.000E+00
      25     1     1     2     0     0 -1.147890086E+02  9.418156269E+01 -1.004739171E+02  2.185559225E+02  1.250000000E+02  0.00000E+00  9.000E+00
      25     1     1     2     0     0  8.720369745E+01 -8.046226239E+01  5.454857676E+01  1.807739133E+02  1.250000000E+02  0.00000E+00  9.000E+00
      21     1     1     2   501   511  2.758531111E+01 -1.371930030E+01  8.811789301E+02  8.817173444E+02  1.078959322E-05  0.00000E+00  9.000E+00
#rwgt            1           1   3.0360371301804922E-002           1       39753           0
</event>
<event>
      5   9999  3.79277E-02  1.51336E+02 -1.00000E+00  1.16241E-01
      21    -1     0     0   512   501  0.000000000E+00  0.000000000E+00  2.599842237E+02  2.599842237E+02  0.000000000E+00  0.00000E+00  9.000E+00
      21    -1     0     0   501   502  0.000000000E+00  0.000000000E+00 -8.158113507E+02  8.158113507E+02  0.000000000E+00  0.00000E+00  9.000E+00
      25     1     1     2     0     0  1.537310817E+02  7.916510136E+01 -1.884409653E+02  2.846670970E+02  1.250000000E+02  0.00000E+00  9.000E+00
      25     1     1     2     0     0 -5.575245871E+01  3.617231176E+01 -5.419283653E+02  5.601143864E+02  1.250000000E+02  0.00000E+00  9.000E+00
      21     1     1     2   512   502 -9.797862297E+01 -1.153374131E+02  1.745422035E+02  2.310140910E+02  1.907348633E-06  0.00000E+00  9.000E+00
#rwgt            1           1   4.1042590169672169E-002           1       40004           0
</event>
<event>
      5   9999  3.79277E-02  4.41544E+01 -1.00000E+00  1.42228E-01
      21    -1     0     0   502   501  0.000000000E+00  0.000000000E+00  1.026952301E+03  1.026952301E+03  0.000000000E+00  0.00000E+00  9.000E+00
      -3    -1     0     0     0   502  0.000000000E+00  0.000000000E+00 -4.752759228E+01  4.752759228E+01  0.000000000E+00  0.00000E+00  9.000E+00
      25     1     1     2     0     0 -9.329558770E+01  1.311393035E+01  1.380496138E+02  2.087073015E+02  1.250000000E+02  0.00000E+00  9.000E+00
      25     1     1     2     0     0  8.238777949E+01 -5.589983094E+01  6.464799722E+02  6.659383544E+02  1.250000000E+02  0.00000E+00  9.000E+00
      -3     1     1     2     0   501  1.090780822E+01  4.278590060E+01  1.948951228E+02  1.998342375E+02  3.814697266E-06  0.00000E+00  9.000E+00
#rwgt            1           1   3.1143245376702496E-002           1       40082           0
</event>
<event>
      5   9999 -3.79277E-02  1.23447E+02 -1.00000E+00  1.19849E-01
      21    -1     0     0   502   501  0.000000000E+00  0.000000000E+00  2.166147280E+02  2.166147280E+02  0.000000000E+00  0.00000E+00  9.000E+00
      -1    -1     0     0     0   502  0.000000000E+00  0.000000000E+00 -7.570452945E+02  7.570452945E+02  0.000000000E+00  0.00000E+00  9.000E+00
      25     1     1     2     0     0 -4.974560447E+01  3.353810530E+01  5.743924245E+01  1.500789667E+02  1.250000000E+02  0.00000E+00  9.000E+00
      25     1     1     2     0     0  1.722108744E+02 -4.907434416E+01 -5.462533599E+00  2.184484282E+02  1.250000000E+02  0.00000E+00  9.000E+00
      -1     1     1     2     0   501 -1.224652699E+02  1.553623886E+01 -5.924072754E+02  6.051326276E+02  1.321449896E-05  0.00000E+00  9.000E+00
#rwgt            1           1  -7.6823639144752862E-002           1       40165           0
</event>
<event>
      5   9999  3.79277E-02  8.89244E+00 -1.00000E+00  2.01841E-01
      21    -1     0     0   502   511  0.000000000E+00  0.000000000E+00  2.136435507E+02  2.136435507E+02  0.000000000E+00  0.00000E+00  9.000E+00
      21    -1     0     0   501   502  0.000000000E+00  0.000000000E+00 -2.694528545E+02  2.694528545E+02  0.000000000E+00  0.00000E+00  9.000E+00
      25     1     1     2     0     0 -1.814108497E+02  1.486063910E+01  1.517538288E+01  2.213278727E+02  1.250000000E+02  0.00000E+00  9.000E+00
      25     1     1     2     0     0  1.877542187E+02 -2.109258225E+01 -8.762718404E+01  2.428992940E+02  1.250000000E+02  0.00000E+00  9.000E+00
      21     1     1     2   501   511 -6.343368945E+00  6.231943153E+00  1.664249732E+01  1.886923851E+01  2.384185791E-07  0.00000E+00  9.000E+00
#rwgt            1           1   4.7361744188466184E-002           1       40268           0
</event>
<event>
      5   9999 -3.79277E-02  4.19844E+01 -1.00000E+00  1.43548E-01
      21    -1     0     0   502   501  0.000000000E+00  0.000000000E+00  2.012971234E+02  2.012971234E+02  0.000000000E+00  0.00000E+00  9.000E+00
      21    -1     0     0   501   512  0.000000000E+00  0.000000000E+00 -3.986152056E+02  3.986152056E+02  0.000000000E+00  0.00000E+00  9.000E+00
      25     1     1     2     0     0 -8.381217129E+01 -1.070516259E+02 -4.746091386E+01  1.906884081E+02  1.250000000E+02  0.00000E+00  9.000E+00
      25     1     1     2     0     0  5.802780706E+01  1.401855780E+02  5.176030407E+01  2.032814594E+02  1.250000000E+02  0.00000E+00  9.000E+00
      21     1     1     2   502   512  2.578436423E+01 -3.313395210E+01 -2.016174724E+02  2.059424614E+02  0.000000000E+00  0.00000E+00  9.000E+00
#rwgt            1           1 -0.15723218346119566                1       40614           0
</event>
<event>
      5   9999  3.79277E-02  1.60810E+02 -1.00000E+00  1.15208E-01
      21    -1     0     0   502   501  0.000000000E+00  0.000000000E+00  1.557717351E+03  1.557717351E+03  0.000000000E+00  0.00000E+00  9.000E+00
      21    -1     0     0   511   502  0.000000000E+00  0.000000000E+00 -8.699113086E+01  8.699113086E+01  0.000000000E+00  0.00000E+00  9.000E+00
      25     1     1     2     0     0 -2.065583882E+01 -4.398528829E+01  1.191387495E+03  1.198912229E+03  1.250000000E+02  0.00000E+00  9.000E+00
      25     1     1     2     0     0 -1.311366474E+02 -9.106875157E+00  1.093998762E+02  2.118326896E+02  1.250000000E+02  0.00000E+00  9.000E+00
      21     1     1     2   511   501  1.517924862E+02  5.309216344E+01  1.699388493E+02  2.339635638E+02  3.303624740E-06  0.00000E+00  9.000E+00
#rwgt            2          11   2.3924825923746355E-003           1       40813           0
</event>
<event>
      5   9999  3.79277E-02  2.58546E+01 -1.00000E+00  1.57665E-01
      21    -1     0     0   502   512  0.000000000E+00  0.000000000E+00  2.612724468E+03  2.612724468E+03  0.000000000E+00  0.00000E+00  9.000E+00
      21    -1     0     0   501   502  0.000000000E+00  0.000000000E+00 -6.121306304E+02  6.121306304E+02  0.000000000E+00  0.00000E+00  9.000E+00
      25     1     1     2     0     0  7.354004793E+01  8.239730446E+01 -8.904137572E+01  1.890788751E+02  1.250000000E+02  0.00000E+00  9.000E+00
      25     1     1     2     0     0 -9.774382424E+01 -7.330671871E+01 -4.568566701E+02  4.891530918E+02  1.250000000E+02  0.00000E+00  9.000E+00
      21     1     1     2   501   512  2.420377630E+01 -9.090585752E+00  2.546491883E+03  2.546623131E+03  3.051757812E-05  0.00000E+00  9.000E+00
#rwgt            1           1   4.4456936811011816E-002           1       40863           0
</event>
<event>
      5   9999  3.79277E-02  9.86700E+01 -1.00000E+00  1.24090E-01
      21    -1     0     0   502   501  0.000000000E+00  0.000000000E+00  9.795513163E+02  9.795513163E+02  0.000000000E+00  0.00000E+00  9.000E+00
      21    -1     0     0   511   502  0.000000000E+00  0.000000000E+00 -1.728617171E+02  1.728617171E+02  0.000000000E+00  0.00000E+00  9.000E+00
      25     1     1     2     0     0  2.916624713E+02  9.169202923E+01  6.286521694E+02  7.101429261E+02  1.250000000E+02  0.00000E+00  9.000E+00
      25     1     1     2     0     0 -2.780493249E+02  6.034395553E+00  1.191770178E+02  3.273774619E+02  1.250000000E+02  0.00000E+00  9.000E+00
      21     1     1     2   511   501 -1.361314645E+01 -9.772642479E+01  5.886041198E+01  1.148926454E+02  1.784161275E-06  0.00000E+00  9.000E+00
#rwgt            1           1   4.6094758388343732E-002           1       41062           0
</event>
<event>
      5   9999  3.79277E-02  4.67983E+01 -1.00000E+00  1.40735E-01
      21    -1     0     0   502   501  0.000000000E+00  0.000000000E+00  7.467656429E+02  7.467656429E+02  0.000000000E+00  0.00000E+00  9.000E+00
       1    -1     0     0   501     0  0.000000000E+00  0.000000000E+00 -9.768912771E+01  9.768912771E+01  0.000000000E+00  0.00000E+00  9.000E+00
      25     1     1     2     0     0 -1.823219070E+02 -8.072140531E+01  2.944876968E+02  3.769684690E+02  1.250000000E+02  0.00000E+00  9.000E+00
      25     1     1     2     0     0  1.369832943E+02  6.912430998E+01  3.688268619E+02  4.185700027E+02  1.250000000E+02  0.00000E+00  9.000E+00
       1     1     1     2   502     0  4.533861271E+01  1.159709532E+01 -1.423804342E+01  4.891629895E+01  4.460403188E-07  0.00000E+00  9.000E+00
#rwgt            1           1   3.2606145451648895E-002           1       41140           0
</event>
<event>
      5   9999  3.79277E-02  3.88652E+01 -1.00000E+00  1.45620E-01
      21    -1     0     0   502   501  0.000000000E+00  0.000000000E+00  1.893705991E+02  1.893705991E+02  0.000000000E+00  0.00000E+00  9.000E+00
      21    -1     0     0   511   502  0.000000000E+00  0.000000000E+00 -2.697089119E+02  2.697089119E+02  0.000000000E+00  0.00000E+00  9.000E+00
      25     1     1     2     0     0 -7.601739233E+01 -9.985514882E+01  5.872524464E+01  1.866101526E+02  1.250000000E+02  0.00000E+00  9.000E+00
      25     1     1     2     0     0  6.157604965E+01  1.359377052E+02 -1.238882463E+02  2.307465431E+02  1.250000000E+02  0.00000E+00  9.000E+00
      21     1     1     2   511   501  1.444134268E+01 -3.608255640E+01 -1.517531111E+01  4.172281536E+01  7.725644944E-07  0.00000E+00  9.000E+00
#rwgt            1           1   2.7392033231287315E-002           1       41304           0
</event>
<event>
      5   9999  3.79277E-02  4.26778E+00 -1.00000E+00  2.57011E-01
      21    -1     0     0   502   501  0.000000000E+00  0.000000000E+00  2.066949737E+02  2.066949737E+02  0.000000000E+00  0.00000E+00  9.000E+00
      21    -1     0     0   512   502  0.000000000E+00  0.000000000E+00 -4.077345861E+02  4.077345861E+02  0.000000000E+00  0.00000E+00  9.000E+00
      25     1     1     2     0     0 -1.849010942E+02  1.159458074E+01  9.152811216E+01  2.415061992E+02  1.250000000E+02  0.00000E+00  9.000E+00
      25     1     1     2     0     0  1.846705180E+02 -7.333032937E+00 -2.714505668E+02  3.513792592E+02  1.250000000E+02  0.00000E+00  9.000E+00
      21     1     1     2   512   501  2.305762109E-01 -4.261547808E+00 -2.111715775E+01  2.154410143E+01  2.384185791E-07  0.00000E+00  9.000E+00
#rwgt            1           1   4.0784530373077672E-002           1       41466           0
</event>
<event>
      5   9999  3.79277E-02  1.67305E+01 -1.00000E+00  1.73030E-01
      21    -1     0     0   511   501  0.000000000E+00  0.000000000E+00  4.512575728E+02  4.512575728E+02  0.000000000E+00  0.00000E+00  9.000E+00
      21    -1     0     0   501   502  0.000000000E+00  0.000000000E+00 -3.704257860E+02  3.704257860E+02  0.000000000E+00  0.00000E+00  9.000E+00
      25     1     1     2     0     0 -5.275773271E+01  2.649757364E+02  2.906237194E+02  4.160320487E+02  1.250000000E+02  0.00000E+00  9.000E+00
      25     1     1     2     0     0  6.941652588E+01 -2.665226100E+02 -2.295957479E+02  3.797264320E+02  1.250000000E+02  0.00000E+00  9.000E+00
      21     1     1     2   511   502 -1.665879317E+01  1.546873609E+00  1.980381524E+01  2.592487812E+01  0.000000000E+00  0.00000E+00  9.000E+00
#rwgt            1           1   4.1982020402734604E-002           1       41894           0
</event>
<event>
      5   9999  3.79277E-02  6.53161E+01 -1.00000E+00  1.32762E-01
      21    -1     0     0   502   501  0.000000000E+00  0.000000000E+00  2.122291779E+02  2.122291779E+02  0.000000000E+00  0.00000E+00  9.000E+00
      -4    -1     0     0     0   502  0.000000000E+00  0.000000000E+00 -1.001971099E+03  1.001971099E+03  0.000000000E+00  0.00000E+00  9.000E+00
      25     1     1     2     0     0  2.324890911E+01  1.397404333E+02  6.169582261E+00  1.890263585E+02  1.250000000E+02  0.00000E+00  9.000E+00
      25     1     1     2     0     0  3.428574286E+01 -1.706589894E+02  1.199006835E+01  2.146363543E+02  1.250000000E+02  0.00000E+00  9.000E+00
      -4     1     1     2     0   501 -5.753465197E+01  3.091855610E+01 -8.079015720E+02  8.105375644E+02  0.000000000E+00  0.00000E+00  9.000E+00
#rwgt            1           1   8.5945501214392248E-002           1       42150           0
</event>
<event>
      5   9999  3.79277E-02  1.34690E+02 -1.00000E+00  1.18277E-01
      21    -1     0     0   502   511  0.000000000E+00  0.000000000E+00  1.029452437E+03  1.029452437E+03  0.000000000E+00  0.00000E+00  9.000E+00
      21    -1     0     0   501   502  0.000000000E+00  0.000000000E+00 -2.519324066E+02  2.519324066E+02  0.000000000E+00  0.00000E+00  9.000E+00
      25     1     1     2     0     0 -4.843787495E+02 -2.990144139E+00  3.404545554E+02  6.051165328E+02  1.250000000E+02  0.00000E+00  9.000E+00
      25     1     1     2     0     0  3.503209064E+02 -1.004124418E+01  2.605894403E+02  4.542658038E+02  1.250000000E+02  0.00000E+00  9.000E+00
      21     1     1     2   501   511  1.340578431E+02  1.303138832E+01  1.764760347E+02  2.220025071E+02  2.697398305E-06  0.00000E+00  9.000E+00
#rwgt            1           1   6.9540449427631754E-002           1       42271           0
</event>
<event>
      5   9999  3.79277E-02  3.66941E+01 -1.00000E+00  1.47203E-01
      21    -1     0     0   512   501  0.000000000E+00  0.000000000E+00  1.150723796E+03  1.150723796E+03  0.000000000E+00  0.00000E+00  9.000E+00
      21    -1     0     0   501   502  0.000000000E+00  0.000000000E+00 -5.853487416E+01  5.853487416E+01  0.000000000E+00  0.00000E+00  9.000E+00
      25     1     1     2     0     0  1.541274057E+02  1.114522858E+02  2.850648957E+02  3.647791989E+02  1.250000000E+02  0.00000E+00  9.000E+00
      25     1     1     2     0     0 -1.182378475E+02 -1.190941549E+02  7.236114786E+02  7.532610293E+02  1.250000000E+02  0.00000E+00  9.000E+00
      21     1     1     2   512   502 -3.588955821E+01  7.641869132E+00  8.351254762E+01  9.121844201E+01  1.348699152E-06  0.00000E+00  9.000E+00
#rwgt            1           1   3.6276255826081780E-002           1       42349           0
</event>
<event>
      5   9999  3.79277E-02  3.00382E+01 -1.00000E+00  1.53001E-01
      21    -1     0     0   502   501  0.000000000E+00  0.000000000E+00  2.810412319E+02  2.810412319E+02  0.000000000E+00  0.00000E+00  9.000E+00
      21    -1     0     0   501   511  0.000000000E+00  0.000000000E+00 -1.437232023E+02  1.437232023E+02  0.000000000E+00  0.00000E+00  9.000E+00
      25     1     1     2     0     0  9.839349382E+01 -8.051879202E+01  4.007144182E+01  1.827437439E+02  1.250000000E+02  0.00000E+00  9.000E+00
      25     1     1     2     0     0 -9.167214419E+01  1.097953847E+02  9.358782431E+01  2.117604528E+02  1.250000000E+02  0.00000E+00  9.000E+00
      21     1     1     2   502   511 -6.721349630E+00 -2.927659272E+01  3.658763478E+00  3.026023748E+01  4.539354507E-07  0.00000E+00  9.000E+00
#rwgt            1           1   3.9328964122163197E-002           1       42487           0
</event>
<event>
      5   9999 -3.79277E-02  4.39413E+01 -1.00000E+00  1.42354E-01
      21    -1     0     0   502   501  0.000000000E+00  0.000000000E+00  1.043758018E+02  1.043758018E+02  0.000000000E+00  0.00000E+00  9.000E+00
      21    -1     0     0   512   502  0.000000000E+00  0.000000000E+00 -8.224880850E+02  8.224880850E+02  0.000000000E+00  0.00000E+00  9.000E+00
      25     1     1     2     0     0  1.075456223E+02 -1.368131681E+02 -3.862583541E+02  4.417062599E+02  1.250000000E+02  0.00000E+00  9.000E+00
      25     1     1     2     0     0 -1.358276376E+02  1.031833835E+02 -7.470380102E+01  2.242802168E+02  1.250000000E+02  0.00000E+00  9.000E+00
      21     1     1     2   512   501  2.828201526E+01  3.362978465E+01 -2.571501280E+02  2.608774102E+02  3.814697266E-06  0.00000E+00  9.000E+00
#rwgt            1           1 -0.15949372656580491                1       42609           0
</event>
<event>
      5   9999  3.79277E-02  5.71954E+01 -1.00000E+00  1.35824E-01
      21    -1     0     0   511   501  0.000000000E+00  0.000000000E+00  4.442800481E+02  4.442800481E+02  0.000000000E+00  0.00000E+00  9.000E+00
      21    -1     0     0   501   502  0.000000000E+00  0.000000000E+00 -7.457854074E+02  7.457854074E+02  0.000000000E+00  0.00000E+00  9.000E+00
      25     1     1     2     0     0  2.719855191E+02  8.701054981E+01 -6.021754042E+02  6.780760841E+02  1.250000000E+02  0.00000E+00  9.000E+00
      25     1     1     2     0     0 -2.975134074E+02 -1.381929467E+02  2.243521193E+02  4.166178002E+02  1.250000000E+02  0.00000E+00  9.000E+00
      21     1     1     2   511   502  2.552788821E+01  5.118239687E+01  7.631792555E+01  9.537157116E+01  1.651812370E-06  0.00000E+00  9.000E+00
#rwgt            1           1  0.10385907412121384                1       42705           0
</event>
<event>
      5   9999  3.79277E-02  3.65717E+01 -1.00000E+00  1.47296E-01
      21    -1     0     0   512   501  0.000000000E+00  0.000000000E+00  1.082099340E+03  1.082099340E+03  0.000000000E+00  0.00000E+00  9.000E+00
      21    -1     0     0   501   502  0.000000000E+00  0.000000000E+00 -7.739775677E+01  7.739775677E+01  0.000000000E+00  0.00000E+00  9.000E+00
      25     1     1     2     0     0 -8.985864484E+01  6.223703780E+01  5.520377667E+02  5.764709193E+02  1.250000000E+02  0.00000E+00  9.000E+00
      25     1     1     2     0     0  1.212062185E+02 -8.107376873E+01  7.916350695E+01  2.077396549E+02  1.250000000E+02  0.00000E+00  9.000E+00
      21     1     1     2   512   502 -3.134757362E+01  1.883673094E+01  3.735003092E+02  3.752865222E+02  7.629394531E-06  0.00000E+00  9.000E+00
#rwgt            1           1   2.6665615039338144E-002           1       42995           0
</event>
<event>
      5   9999  3.79277E-02  5.49703E+01 -1.00000E+00  1.36767E-01
      21    -1     0     0   502   501  0.000000000E+00  0.000000000E+00  3.156127356E+03  3.156127356E+03  0.000000000E+00  0.00000E+00  9.000E+00
      21    -1     0     0   511   502  0.000000000E+00  0.000000000E+00 -2.848404923E+01  2.848404923E+01  0.000000000E+00  0.00000E+00  9.000E+00
      25     1     1     2     0     0 -2.586832716E+00  9.258450618E+01  4.327722926E+02  4.598863335E+02  1.250000000E+02  0.00000E+00  9.000E+00
      25     1     1     2     0     0  5.677943608E+01 -8.337038678E+01  2.646892425E+03  2.651761497E+03  1.250000000E+02  0.00000E+00  9.000E+00
      21     1     1     2   511   501 -5.419260337E+01 -9.214119398E+00  4.797858893E+01  7.296357483E+01  6.743495762E-07  0.00000E+00  9.000E+00
#rwgt            1           1   3.1933765351148551E-002           1       43090           0
</event>
<event>
      5   9999  3.79277E-02  5.05933E+00 -1.00000E+00  2.37625E-01
      21    -1     0     0   502   512  0.000000000E+00  0.000000000E+00  1.062264754E+02  1.062264754E+02  0.000000000E+00  0.00000E+00  9.000E+00
      21    -1     0     0   501   502  0.000000000E+00  0.000000000E+00 -1.135600964E+03  1.135600964E+03  0.000000000E+00  0.00000E+00  9.000E+00
      25     1     1     2     0     0 -1.164083116E+02 -4.795014159E+01 -1.825696093E+02  2.545717450E+02  1.250000000E+02  0.00000E+00  9.000E+00
      25     1     1     2     0     0  1.172189428E+02  4.295617577E+01 -9.084170537E+02  9.254361442E+02  1.250000000E+02  0.00000E+00  9.000E+00
      21     1     1     2   501   512 -8.106311974E-01  4.993965815E+00  6.161217411E+01  6.181955044E+01  1.784161275E-06  0.00000E+00  9.000E+00
#rwgt            1           1   4.1475698057559199E-002           1       43222           0
</event>
<event>
      5   9999  3.79277E-02  4.96824E+01 -1.00000E+00  1.39234E-01
      21    -1     0     0   502   511  0.000000000E+00  0.000000000E+00  4.604881167E+02  4.604881167E+02  0.000000000E+00  0.00000E+00  9.000E+00
      21    -1     0     0   501   502  0.000000000E+00  0.000000000E+00 -1.285367119E+02  1.285367119E+02  0.000000000E+00  0.00000E+00  9.000E+00
      25     1     1     2     0     0 -2.107523506E+01  1.404166965E+02  2.598578082E+02  3.214219884E+02  1.250000000E+02  0.00000E+00  9.000E+00
      25     1     1     2     0     0  5.960314743E+01 -1.090489436E+02 -4.482713324E+00  1.763215869E+02  1.250000000E+02  0.00000E+00  9.000E+00
      21     1     1     2   501   511 -3.852791237E+01 -3.136775293E+01  7.657630997E+01  9.128125330E+01  0.000000000E+00  0.00000E+00  9.000E+00
#rwgt            1           1   4.3923097851959164E-002           1       43704           0
</event>
<event>
      5   9999  3.79277E-02  1.17396E+02 -1.00000E+00  1.20774E-01
      21    -1     0     0   502   501  0.000000000E+00  0.000000000E+00  1.071437627E+03  1.071437627E+03  0.000000000E+00  0.00000E+00  9.000E+00
      21    -1     0     0   512   502  0.000000000E+00  0.000000000E+00 -9.204216125E+01  9.204216125E+01  0.000000000E+00  0.00000E+00  9.000E+00
      25     1     1     2     0     0 -1.196430056E+02 -5.021346812E+01  3.459755215E+02  3.900767907E+02  1.250000000E+02  0.00000E+00  9.000E+00
      25     1     1     2     0     0  7.482995389E+01  1.587195361E+02  6.186386445E+02  6.550802895E+02  1.250000000E+02  0.00000E+00  9.000E+00
      21     1     1     2   512   501  4.481305168E+01 -1.085060680E+02  1.478129952E+01  1.183227079E+02  7.725644944E-07  0.00000E+00  9.000E+00
#rwgt            1           1   5.4038595595555218E-002           1       43956           0
</event>
<event>
      5   9999  3.79277E-02  9.36887E+01 -1.00000E+00  1.25115E-01
      21    -1     0     0   502   501  0.000000000E+00  0.000000000E+00  8.038058287E+02  8.038058287E+02  0.000000000E+00  0.00000E+00  9.000E+00
      21    -1     0     0   511   502  0.000000000E+00  0.000000000E+00 -1.768416761E+02  1.768416761E+02  0.000000000E+00  0.00000E+00  9.000E+00
      25     1     1     2     0     0 -8.896274098E-01  1.173414768E+02  6.854590449E+02  7.065754849E+02  1.250000000E+02  0.00000E+00  9.000E+00
      25     1     1     2     0     0  8.777909632E+01 -8.230172461E+01 -4.643348670E+01  1.796101676E+02  1.250000000E+02  0.00000E+00  9.000E+00
      21     1     1     2   511   501 -8.688946891E+01 -3.503975220E+01 -1.206140559E+01  9.446185234E+01  1.914784718E-06  0.00000E+00  9.000E+00
#rwgt            2          11   2.6072440635999550E-003           1       44053           0
</event>
<event>
      5   9999  3.79277E-02  8.18622E+01 -1.00000E+00  1.27868E-01
      21    -1     0     0   502   501  0.000000000E+00  0.000000000E+00  5.506129093E+02  5.506129093E+02  0.000000000E+00  0.00000E+00  9.000E+00
      21    -1     0     0   501   512  0.000000000E+00  0.000000000E+00 -5.173062061E+02  5.173062061E+02  0.000000000E+00  0.00000E+00  9.000E+00
      25     1     1     2     0     0 -4.347467030E+01 -6.769358631E+00 -3.266689022E+02  3.525243862E+02  1.250000000E+02  0.00000E+00  9.000E+00
      25     1     1     2     0     0  9.839517933E+01  6.747481997E+01  5.132889379E+02  5.415948637E+02  1.250000000E+02  0.00000E+00  9.000E+00
      21     1     1     2   502   512 -5.492050903E+01 -6.070546134E+01 -1.533133324E+02  1.737998655E+02  0.000000000E+00  0.00000E+00  9.000E+00
#rwgt            1           1   4.4178671987594231E-002           1       44133           0
</event>
<event>
      5   9999  3.79277E-02  2.08937E+01 -1.00000E+00  1.64818E-01
      21    -1     0     0   502   501  0.000000000E+00  0.000000000E+00  3.346252935E+02  3.346252935E+02  0.000000000E+00  0.00000E+00  9.000E+00
      21    -1     0     0   501   511  0.000000000E+00  0.000000000E+00 -3.019159632E+02  3.019159632E+02  0.000000000E+00  0.00000E+00  9.000E+00
      25     1     1     2     0     0 -8.377948366E+01  6.303707933E+01  2.749963102E+02  3.197509122E+02  1.250000000E+02  0.00000E+00  9.000E+00
      25     1     1     2     0     0  8.631850545E+01 -4.229824499E+01 -1.352828297E+02  2.077654204E+02  1.250000000E+02  0.00000E+00  9.000E+00
      21     1     1     2   502   511 -2.539021794E+00 -2.073883434E+01 -1.070041503E+02  1.090249240E+02  0.000000000E+00  0.00000E+00  9.000E+00
#rwgt            1           1   3.3948664439121375E-002           1       44259           0
</event>
<event>
      5   9999  3.79277E-02  4.60998E+01 -1.00000E+00  1.41118E-01
      21    -1     0     0   502   501  0.000000000E+00  0.000000000E+00  2.067286462E+02  2.067286462E+02  0.000000000E+00  0.00000E+00  9.000E+00
      21    -1     0     0   512   502  0.000000000E+00  0.000000000E+00 -2.227696082E+02  2.227696082E+02  0.000000000E+00  0.00000E+00  9.000E+00
      25     1     1     2     0     0  9.307776600E+01  8.147021491E+00  9.227471500E+01  1.812993864E+02  1.250000000E+02  0.00000E+00  9.000E+00
      25     1     1     2     0     0 -1.204878799E+02  2.891884934E+01 -9.598339101E+01  2.004780297E+02  1.250000000E+02  0.00000E+00  9.000E+00
      21     1     1     2   512   501  2.741011390E+01 -3.706587083E+01 -1.233228597E+01  4.772083823E+01  8.920806376E-07  0.00000E+00  9.000E+00
#rwgt            1           1   4.4997840365999284E-002           1       44394           0
</event>
<event>
      5   9999  3.79277E-02  3.12165E+01 -1.00000E+00  1.51850E-01
      21    -1     0     0   502   501  0.000000000E+00  0.000000000E+00  4.212737475E+01  4.212737475E+01  0.000000000E+00  0.00000E+00  9.000E+00
       1    -1     0     0   501     0  0.000000000E+00  0.000000000E+00 -1.382573173E+03  1.382573173E+03  0.000000000E+00  0.00000E+00  9.000E+00
      25     1     1     2     0     0  6.232563486E+01  9.560165628E+00 -9.860073118E+01  1.712395565E+02  1.250000000E+02  0.00000E+00  9.000E+00
      25     1     1     2     0     0 -3.541978724E+01 -2.538886715E+01 -8.358844651E+02  8.463019525E+02  1.250000000E+02  0.00000E+00  9.000E+00
       1     1     1     2   502     0 -2.690584762E+01  1.582870152E+01 -4.059606018E+02  4.071590386E+02  5.394796609E-06  0.00000E+00  9.000E+00
#rwgt            1           1   4.2989167701246944E-002           1       44432           0
</event>
<event>
      5   9999  3.79277E-02  8.52013E+00 -1.00000E+00  2.04157E-01
      21    -1     0     0   502   511  0.000000000E+00  0.000000000E+00  1.109706793E+03  1.109706793E+03  0.000000000E+00  0.00000E+00  9.000E+00
      21    -1     0     0   501   502  0.000000000E+00  0.000000000E+00 -2.781397592E+02  2.781397592E+02  0.000000000E+00  0.00000E+00  9.000E+00
      25     1     1     2     0     0 -4.423256041E+01 -1.540641160E+02  2.302264822E+02  3.071180625E+02  1.250000000E+02  0.00000E+00  9.000E+00
      25     1     1     2     0     0  5.275265857E+01  1.540391254E+02 -1.957194296E+02  2.836229720E+02  1.250000000E+02  0.00000E+00  9.000E+00
      21     1     1     2   501   511 -8.520098157E+00  2.499061779E-02  7.970599814E+02  7.971055179E+02  1.078959322E-05  0.00000E+00  9.000E+00
#rwgt            1           1   3.9769767076492907E-002           1       44577           0
</event>
<event>
      5   9999  3.79277E-02  6.85752E+01 -1.00000E+00  1.31675E-01
      21    -1     0     0   512   501  0.000000000E+00  0.000000000E+00  4.460714602E+02  4.460714602E+02  0.000000000E+00  0.00000E+00  9.000E+00
      21    -1     0     0   501   502  0.000000000E+00  0.000000000E+00 -1.140853896E+02  1.140853896E+02  0.000000000E+00  0.00000E+00  9.000E+00
      25     1     1     2     0     0 -5.567982526E+01  1.677188726E+02  1.634033134E+02  2.712111834E+02  1.250000000E+02  0.00000E+00  9.000E+00
      25     1     1     2     0     0  2.874395292E+01 -1.046552952E+02  1.100184007E+02  1.987661796E+02  1.250000000E+02  0.00000E+00  9.000E+00
      21     1     1     2   512   502  2.693587234E+01 -6.306357733E+01  5.856435644E+01  9.017948686E+01  1.348699152E-06  0.00000E+00  9.000E+00
#rwgt            2          11   2.6405120691799368E-003           1       44974           0
</event>
<event>
      5   9999  3.79277E-02  1.51292E+01 -1.00000E+00  1.77033E-01
      21    -1     0     0   511   501  0.000000000E+00  0.000000000E+00  1.582459714E+02  1.582459714E+02  0.000000000E+00  0.00000E+00  9.000E+00
      21    -1     0     0   501   502  0.000000000E+00  0.000000000E+00 -6.100462636E+02  6.100462636E+02  0.000000000E+00  0.00000E+00  9.000E+00
      25     1     1     2     0     0  5.241894321E+01  1.169383049E+02 -1.166652139E+02  2.136775254E+02  1.250000000E+02  0.00000E+00  9.000E+00
      25     1     1     2     0     0 -5.677165100E+01 -1.314278368E+02 -4.239070865E+02  4.645627133E+02  1.250000000E+02  0.00000E+00  9.000E+00
      21     1     1     2   511   502  4.352707787E+00  1.448953196E+01  8.877200812E+01  9.005199624E+01  1.348699152E-06  0.00000E+00  9.000E+00
#rwgt            1           1   3.8929999262786452E-002           1       45054           0
</event>
<event>
      5   9999  3.79277E-02  7.67533E+00 -1.00000E+00  2.10051E-01
      21    -1     0     0   502   512  0.000000000E+00  0.000000000E+00  6.097320667E+01  6.097320667E+01  0.000000000E+00  0.00000E+00  9.000E+00
      21    -1     0     0   501   502  0.000000000E+00  0.000000000E+00 -6.409747329E+02  6.409747329E+02  0.000000000E+00  0.00000E+00  9.000E+00
      25     1     1     2     0     0 -1.018090175E+02  5.704304329E+01 -1.260983107E+02  2.124729837E+02  1.250000000E+02  0.00000E+00  9.000E+00
      25     1     1     2     0     0  9.814409985E+01 -6.378685665E+01 -4.485194208E+02  4.800996754E+02  1.250000000E+02  0.00000E+00  9.000E+00
      21     1     1     2   501   512  3.664917657E+00  6.743813366E+00 -5.383794757E+00  9.375280590E+00  1.032382731E-07  0.00000E+00  9.000E+00
#rwgt            1           1   3.5870845144648167E-002           1       45232           0
</event>
<event>
      5   9999  3.79277E-02  1.25824E+01 -1.00000E+00  1.84890E-01
      21    -1     0     0   502   501  0.000000000E+00  0.000000000E+00  8.720902015E+02  8.720902015E+02  0.000000000E+00  0.00000E+00  9.000E+00
      21    -1     0     0   501   511  0.000000000E+00  0.000000000E+00 -4.357029972E+01  4.357029972E+01  0.000000000E+00  0.00000E+00  9.000E+00
      25     1     1     2     0     0 -1.180477817E+02 -7.181437582E+01  3.482690196E+02  3.949796113E+02  1.250000000E+02  0.00000E+00  9.000E+00
      25     1     1     2     0     0  1.195570047E+02  5.932285594E+01  4.704278838E+02  5.047182109E+02  1.250000000E+02  0.00000E+00  9.000E+00
      21     1     1     2   502   511 -1.509222979E+00  1.249151988E+01  9.822998436E+00  1.596267901E+01  3.576278687E-07  0.00000E+00  9.000E+00
#rwgt            1           1   3.0076426074336991E-002           1       45470           0
</event>
<event>
      5   9999  3.79277E-02  8.69156E+01 -1.00000E+00  1.26631E-01
      -2    -1     0     0     0   501  0.000000000E+00  0.000000000E+00  2.084740902E+03  2.084740902E+03  0.000000000E+00  0.00000E+00  9.000E+00
      21    -1     0     0   501   502  0.000000000E+00  0.000000000E+00 -7.327646780E+01  7.327646780E+01  0.000000000E+00  0.00000E+00  9.000E+00
      25     1     1     2     0     0  9.874343389E+01 -7.175308254E+01  5.727373629E+01  1.838587813E+02  1.250000000E+02  0.00000E+00  9.000E+00
      25     1     1     2     0     0 -3.742925342E+01  1.333557473E+02  1.117760664E+03  1.133224870E+03  1.250000000E+02  0.00000E+00  9.000E+00
      -2     1     1     2     0   502 -6.131418047E+01 -6.160266473E+01  8.364300335E+02  8.409337180E+02  1.078959322E-05  0.00000E+00  9.000E+00
#rwgt            1           1   3.0328625923992495E-002           1       45628           0
</event>
<event>
      5   9999  3.79277E-02  8.35256E+00 -1.00000E+00  2.05251E-01
      21    -1     0     0   502   511  0.000000000E+00  0.000000000E+00  1.497988525E+02  1.497988525E+02  0.000000000E+00  0.00000E+00  9.000E+00
      21    -1     0     0   501   502  0.000000000E+00  0.000000000E+00 -3.568707354E+02  3.568707354E+02  0.000000000E+00  0.00000E+00  9.000E+00
      25     1     1     2     0     0  7.026301677E+01  7.509292405E+01  3.646557309E+01  1.659234064E+02  1.250000000E+02  0.00000E+00  9.000E+00
      25     1     1     2     0     0 -7.854822386E+01 -7.615148602E+01 -2.677722307E+02  3.151124241E+02  1.250000000E+02  0.00000E+00  9.000E+00
      21     1     1     2   501   511  8.285207091E+00  1.058561975E+00  2.423477476E+01  2.563375738E+01  6.743495762E-07  0.00000E+00  9.000E+00
#rwgt            1           1   4.0769765497284109E-002           1       45754           0
</event>
<event>
      5   9999  3.79277E-02  7.36433E+00 -1.00000E+00  2.12486E-01
      21    -1     0     0   502   512  0.000000000E+00  0.000000000E+00  7.174927321E+02  7.174927321E+02  0.000000000E+00  0.00000E+00  9.000E+00
      21    -1     0     0   501   502  0.000000000E+00  0.000000000E+00 -1.124797415E+02  1.124797415E+02  0.000000000E+00  0.00000E+00  9.000E+00
      25     1     1     2     0     0 -2.258443489E+01 -1.551574319E+02  1.208164148E+01  2.008851697E+02  1.250000000E+02  0.00000E+00  9.000E+00
      25     1     1     2     0     0  1.531103638E+01  1.540037606E+02  5.368533742E+02  5.725278434E+02  1.250000000E+02  0.00000E+00  9.000E+00
      21     1     1     2   501   512  7.273398508E+00  1.153671278E+00  5.607797501E+01  5.655946044E+01  9.536743164E-07  0.00000E+00  9.000E+00
#rwgt            1           1   5.4393827189556328E-002           1       45980           0
</event>
<event>
      5   9999 -3.79277E-02  2.13740E+01 -1.00000E+00  1.64023E-01
      21    -1     0     0   502   501  0.000000000E+00  0.000000000E+00  3.202787147E+02  3.202787147E+02  0.000000000E+00  0.00000E+00  9.000E+00
       1    -1     0     0   501     0  0.000000000E+00  0.000000000E+00 -5.248439669E+02  5.248439669E+02  0.000000000E+00  0.00000E+00  9.000E+00
      25     1     1     2     0     0 -1.857587758E+00 -2.857866682E+02  6.285288552E+00  3.119967551E+02  1.250000000E+02  0.00000E+00  9.000E+00
      25     1     1     2     0     0  1.848462453E+01  2.992175714E+02 -3.648920161E+00  3.248248005E+02  1.250000000E+02  0.00000E+00  9.000E+00
       1     1     1     2   502     0 -1.662703677E+01 -1.343090320E+01 -2.072016206E+02  2.083011260E+02  2.697398305E-06  0.00000E+00  9.000E+00
#rwgt            1           1 -0.19196968834741657                1       46321           0
</event>
<event>
      5   9999  3.79277E-02  2.49420E+01 -1.00000E+00  1.58826E-01
      21    -1     0     0   502   511  0.000000000E+00  0.000000000E+00  1.140311662E+03  1.140311662E+03  0.000000000E+00  0.00000E+00  9.000E+00
      21    -1     0     0   501   502  0.000000000E+00  0.000000000E+00 -9.533672758E+01  9.533672758E+01  0.000000000E+00  0.00000E+00  9.000E+00
      25     1     1     2     0     0 -6.304383925E+01 -2.844924265E+01 -1.821665351E+01  1.440164280E+02  1.250000000E+02  0.00000E+00  9.000E+00
      25     1     1     2     0     0  8.796142520E+01  2.955356446E+01  4.194605439E+02  4.474178957E+02  1.250000000E+02  0.00000E+00  9.000E+00
      21     1     1     2   501   511 -2.491758595E+01 -1.104321809E+00  6.437310441E+02  6.442140659E+02  1.078959322E-05  0.00000E+00  9.000E+00
#rwgt            1           1   4.5973855666195086E-002           1       46554           0
</event>
<event>
      5   9999  3.79277E-02  1.30067E+02 -1.00000E+00  1.18902E-01
      21    -1     0     0   502   501  0.000000000E+00  0.000000000E+00  1.236688008E+02  1.236688008E+02  0.000000000E+00  0.00000E+00  9.000E+00
       1    -1     0     0   501     0  0.000000000E+00  0.000000000E+00 -1.242962061E+03  1.242962061E+03  0.000000000E+00  0.00000E+00  9.000E+00
      25     1     1     2     0     0  2.728755048E+02  4.101751328E+01 -5.844614745E+02  6.583036478E+02  1.250000000E+02  0.00000E+00  9.000E+00
      25     1     1     2     0     0 -2.439710043E+02  8.579727319E+01 -2.024907542E+02  3.514406473E+02  1.250000000E+02  0.00000E+00  9.000E+00
       1     1     1     2   502     0 -2.890450045E+01 -1.268147865E+02 -3.323410314E+02  3.568865665E+02  0.000000000E+00  0.00000E+00  9.000E+00
#rwgt            1           1   2.6806634801227101E-002           1       46641           0
</event>
<event>
      5   9999  3.79277E-02  2.54381E+01 -1.00000E+00  1.58188E-01
      21    -1     0     0   502   501  0.000000000E+00  0.000000000E+00  1.006782687E+03  1.006782687E+03  0.000000000E+00  0.00000E+00  9.000E+00
      21    -1     0     0   511   502  0.000000000E+00  0.000000000E+00 -4.210273350E+01  4.210273350E+01  0.000000000E+00  0.00000E+00  9.000E+00
      25     1     1     2     0     0 -1.070288855E+02 -6.234690290E+01  7.222539746E+02  7.433828908E+02  1.250000000E+02  0.00000E+00  9.000E+00
      25     1     1     2     0     0  8.198605497E+01  5.787999875E+01  2.135186184E+02  2.669962694E+02  1.250000000E+02  0.00000E+00  9.000E+00
      21     1     1     2   511   501  2.504283050E+01  4.466904148E+00  2.890736086E+01  3.850626058E+01  4.768371582E-07  0.00000E+00  9.000E+00
#rwgt            1           1   3.9123268819320309E-002           1       46754           0
</event>
<event>
      5   9999  3.79277E-02  9.97077E+01 -1.00000E+00  1.23885E-01
       2    -1     0     0   502     0  0.000000000E+00  0.000000000E+00  3.424689008E+03  3.424689008E+03  0.000000000E+00  0.00000E+00  9.000E+00
      21    -1     0     0   501   502  0.000000000E+00  0.000000000E+00 -1.719350215E+02  1.719350215E+02  0.000000000E+00  0.00000E+00  9.000E+00
      25     1     1     2     0     0 -4.517471984E+00  6.174548278E+01 -6.464992744E+01  1.537450009E+02  1.250000000E+02  0.00000E+00  9.000E+00
      25     1     1     2     0     0  1.029154232E+02 -4.563742635E+01  5.217691474E+01  1.761300356E+02  1.250000000E+02  0.00000E+00  9.000E+00
       2     1     1     2   501     0 -9.839795123E+01 -1.610805644E+01  3.265226999E+03  3.266748992E+03  0.000000000E+00  0.00000E+00  9.000E+00
#rwgt            1           1   6.2125836173462942E-002           1       47065           0
</event>
<event>
      5   9999  3.79277E-02  3.88946E+01 -1.00000E+00  1.45599E-01
      21    -1     0     0   502   501  0.000000000E+00  0.000000000E+00  4.958034687E+02  4.958034687E+02  0.000000000E+00  0.00000E+00  9.000E+00
      21    -1     0     0   501   511  0.000000000E+00  0.000000000E+00 -1.754308235E+02  1.754308235E+02  0.000000000E+00  0.00000E+00  9.000E+00
      25     1     1     2     0     0  5.466480911E+01  6.208105650E+00  3.973753693E+02  4.201892027E+02  1.250000000E+02  0.00000E+00  9.000E+00
      25     1     1     2     0     0 -8.960122187E+01 -2.330297139E+01  9.868046216E+00  1.558646393E+02  1.250000000E+02  0.00000E+00  9.000E+00
      21     1     1     2   502   511  3.493641276E+01  1.709486574E+01 -8.687077036E+01  9.518045027E+01  9.536743164E-07  0.00000E+00  9.000E+00
#rwgt            1           1   3.8650549446837400E-002           1       47239           0
</event>
<event>
      5   9999  3.79277E-02  3.12468E+01 -1.00000E+00  1.51822E-01
      21    -1     0     0   502   501  0.000000000E+00  0.000000000E+00  7.060827710E+02  7.060827710E+02  0.000000000E+00  0.00000E+00  9.000E+00
       2    -1     0     0   501     0  0.000000000E+00  0.000000000E+00 -2.800107710E+03  2.800107710E+03  0.000000000E+00  0.00000E+00  9.000E+00
      25     1     1     2     0     0  4.906766544E+01 -1.720567771E+02  4.115255227E+02  4.658212384E+02  1.250000000E+02  0.00000E+00  9.000E+00
      25     1     1     2     0     0 -7.969281462E+01  1.658551175E+02  2.210421065E+02  3.135976364E+02  1.250000000E+02  0.00000E+00  9.000E+00
       2     1     1     2   502     0  3.062514918E+01  6.201659565E+00 -2.726592568E+03  2.726771606E+03  4.315837288E-05  0.00000E+00  9.000E+00
#rwgt            1           1   4.8486143193858293E-002           1       47472           0
</event>
<event>
      5   9999  3.79277E-02  1.16455E+01 -1.00000E+00  1.88408E-01
      21    -1     0     0   502   501  0.000000000E+00  0.000000000E+00  7.017796648E+02  7.017796648E+02  0.000000000E+00  0.00000E+00  9.000E+00
      21    -1     0     0   511   502  0.000000000E+00  0.000000000E+00 -5.114351405E+01  5.114351405E+01  0.000000000E+00  0.00000E+00  9.000E+00
      25     1     1     2     0     0 -5.559852301E+01 -1.473304483E+01  1.289751485E+02  1.885943989E+02  1.250000000E+02  0.00000E+00  9.000E+00
      25     1     1     2     0     0  6.552582589E+01  8.644751974E+00  5.309354707E+02  5.494413887E+02  1.250000000E+02  0.00000E+00  9.000E+00
      21     1     1     2   511   501 -9.927302880E+00  6.088292852E+00 -9.274468450E+00  1.488739122E+01  5.196212463E-07  0.00000E+00  9.000E+00
#rwgt            1           1   3.8699282530064917E-002           1       47607           0
</event>
<event>
      5   9999  3.79277E-02  5.47950E+01 -1.00000E+00  1.36844E-01
      21    -1     0     0   512   501  0.000000000E+00  0.000000000E+00  5.969209656E+01  5.969209656E+01  0.000000000E+00  0.00000E+00  9.000E+00
      21    -1     0     0   501   502  0.000000000E+00  0.000000000E+00 -1.266764029E+03  1.266764029E+03  0.000000000E+00  0.00000E+00  9.000E+00
      25     1     1     2     0     0  1.325765857E+02  8.494219204E+01 -9.938943074E+02  1.014022989E+03  1.250000000E+02  0.00000E+00  9.000E+00
      25     1     1     2     0     0 -7.857517977E+01 -7.565001737E+01 -1.215114149E+02  2.056380508E+02  1.250000000E+02  0.00000E+00  9.000E+00
      21     1     1     2   512   502 -5.400140595E+01 -9.292174674E+00 -9.166621058E+01  1.067950866E+02  1.907348633E-06  0.00000E+00  9.000E+00
#rwgt            1           1   3.8174052939861605E-002           1       47867           0
</event>
<event>
      5   9999  3.79277E-02  1.63983E+01 -1.00000E+00  1.73813E-01
      21    -1     0     0   502   501  0.000000000E+00  0.000000000E+00  5.253319015E+01  5.253319015E+01  0.000000000E+00  0.00000E+00  9.000E+00
      21    -1     0     0   501   511  0.000000000E+00  0.000000000E+00 -1.039072000E+03  1.039072000E+03  0.000000000E+00  0.00000E+00  9.000E+00
      25     1     1     2     0     0  8.783766180E+01 -1.280351159E+02 -2.286158681E+02  3.033128103E+02  1.250000000E+02  0.00000E+00  9.000E+00
      25     1     1     2     0     0 -1.000099466E+02  1.170469106E+02 -7.231202713E+02  7.498199087E+02  1.250000000E+02  0.00000E+00  9.000E+00
      21     1     1     2   502   511  1.217228482E+01  1.098820526E+01 -3.480267092E+01  3.847247166E+01  6.743495762E-07  0.00000E+00  9.000E+00
#rwgt            1           1   2.3799103839987183E-002           1       47943           0
</event>
<event>
      5   9999 -3.79277E-02  9.94518E+01 -1.00000E+00  1.23935E-01
      21    -1     0     0   502   501  0.000000000E+00  0.000000000E+00  3.458220251E+02  3.458220251E+02  0.000000000E+00  0.00000E+00  9.000E+00
      21    -1     0     0   501   512  0.000000000E+00  0.000000000E+00 -2.436227183E+02  2.436227183E+02  0.000000000E+00  0.00000E+00  9.000E+00
      25     1     1     2     0     0  2.030901430E+02  2.312592750E+01  8.843952779E+01  2.553957024E+02  1.250000000E+02  0.00000E+00  9.000E+00
      25     1     1     2     0     0 -1.717579435E+02  7.126129077E+01  4.747688255E+01  2.290371522E+02  1.250000000E+02  0.00000E+00  9.000E+00
      21     1     1     2   502   512 -3.133219951E+01 -9.438721827E+01 -3.371710356E+01  1.050118887E+02  2.185142372E-06  0.00000E+00  9.000E+00
#rwgt            1           1 -0.12516247360111513                1       48227           0
</event>
<event>
      5   9999  3.79277E-02  6.31954E+00 -1.00000E+00  2.22028E-01
      21    -1     0     0   502   511  0.000000000E+00  0.000000000E+00  1.374747150E+03  1.374747150E+03  0.000000000E+00  0.00000E+00  9.000E+00
      21    -1     0     0   501   502  0.000000000E+00  0.000000000E+00 -6.272187964E+01  6.272187964E+01  0.000000000E+00  0.00000E+00  9.000E+00
      25     1     1     2     0     0 -7.221866660E+00 -2.495308609E+02  4.578927421E+02  5.362914965E+02  1.250000000E+02  0.00000E+00  9.000E+00
      25     1     1     2     0     0  1.074412278E+00  2.509955604E+02  8.244189801E+02  8.707993916E+02  1.250000000E+02  0.00000E+00  9.000E+00
      21     1     1     2   501   511  6.147454382E+00 -1.464699522E+00  2.971354773E+01  3.037814113E+01  0.000000000E+00  0.00000E+00  9.000E+00
#rwgt            1           1   3.5243703475755006E-002           1       48453           0
</event>
<event>
      5   9999  3.79277E-02  8.57432E+01 -1.00000E+00  1.26909E-01
      21    -1     0     0   502   512  0.000000000E+00  0.000000000E+00  1.979135992E+03  1.979135992E+03  0.000000000E+00  0.00000E+00  9.000E+00
      21    -1     0     0   501   502  0.000000000E+00  0.000000000E+00 -2.753239954E+01  2.753239954E+01  0.000000000E+00  0.00000E+00  9.000E+00
      25     1     1     2     0     0  1.647860237E+02  3.090599898E+01  7.268550395E+02  7.563417632E+02  1.250000000E+02  0.00000E+00  9.000E+00
      25     1     1     2     0     0 -1.043377029E+02  2.990439554E+01  7.764411666E+02  7.938932638E+02  1.250000000E+02  0.00000E+00  9.000E+00
      21     1     1     2   501   512 -6.044832075E+01 -6.081039452E+01  4.483073862E+02  4.564333644E+02  9.344061824E-06  0.00000E+00  9.000E+00
#rwgt            1           1   6.7963639235541884E-002           1       48797           0
</event>
<event>
      5   9999  3.79277E-02  1.10237E+01 -1.00000E+00  1.90988E-01
      21    -1     0     0   502   501  0.000000000E+00  0.000000000E+00  3.887750278E+02  3.887750278E+02  0.000000000E+00  0.00000E+00  9.000E+00
      21    -1     0     0   501   511  0.000000000E+00  0.000000000E+00 -8.463868037E+01  8.463868037E+01  0.000000000E+00  0.00000E+00  9.000E+00
      25     1     1     2     0     0 -1.285482338E+01 -8.858010497E+01  1.490414586E+02  2.141262195E+02  1.250000000E+02  0.00000E+00  9.000E+00
      25     1     1     2     0     0  2.372615743E+01  9.040685587E+01  1.762539710E+02  2.354289541E+02  1.250000000E+02  0.00000E+00  9.000E+00
      21     1     1     2   502   511 -1.087133405E+01 -1.826750907E+00 -2.115908208E+01  2.385853468E+01  2.384185791E-07  0.00000E+00  9.000E+00
#rwgt            1           1  0.15329462899967888                1       48866           0
</event>
<event>
      5   9999  3.79277E-02  5.17008E+01 -1.00000E+00  1.38252E-01
      21    -1     0     0   502   512  0.000000000E+00  0.000000000E+00  3.425313631E+03  3.425313631E+03  0.000000000E+00  0.00000E+00  9.000E+00
      21    -1     0     0   501   502  0.000000000E+00  0.000000000E+00 -3.655357830E+01  3.655357830E+01  0.000000000E+00  0.00000E+00  9.000E+00
      25     1     1     2     0     0 -7.686343661E+01  1.749200640E+02  2.355160490E+03  2.366201799E+03  1.250000000E+02  0.00000E+00  9.000E+00
      25     1     1     2     0     0  1.244469332E+02 -1.547016597E+02  4.298797576E+02  4.897358969E+02  1.250000000E+02  0.00000E+00  9.000E+00
      21     1     1     2   501   512 -4.758349657E+01 -2.021840427E+01  6.037198050E+02  6.059295140E+02  7.629394531E-06  0.00000E+00  9.000E+00
#rwgt            1           1   6.2099381204071540E-002           1       49057           0
</event>
<event>
      5   9999  3.79277E-02  4.91131E+01 -1.00000E+00  1.39520E-01
      21    -1     0     0   502   501  0.000000000E+00  0.000000000E+00  1.387857954E+03  1.387857954E+03  0.000000000E+00  0.00000E+00  9.000E+00
      21    -1     0     0   501   511  0.000000000E+00  0.000000000E+00 -4.641234303E+01  4.641234303E+01  0.000000000E+00  0.00000E+00  9.000E+00
      25     1     1     2     0     0 -8.860846755E+01  8.848728739E+01  1.111639457E+03  1.125632597E+03  1.250000000E+02  0.00000E+00  9.000E+00
      25     1     1     2     0     0  5.459371366E+01 -5.305996496E+01  1.233761664E+02  1.914223390E+02  1.250000000E+02  0.00000E+00  9.000E+00
      21     1     1     2   502   511  3.401475389E+01 -3.542732243E+01  1.064299880E+02  1.172153617E+02  3.015782986E-06  0.00000E+00  9.000E+00
#rwgt            1           1   3.7346313640094879E-002           1       49187           0
</event>
<event>
      5   9999  3.79277E-02  2.36318E+01 -1.00000E+00  1.60604E-01
      21    -1     0     0   502   501  0.000000000E+00  0.000000000E+00  3.831155751E+01  3.831155751E+01  0.000000000E+00  0.00000E+00  9.000E+00
      21    -1     0     0   501   512  0.000000000E+00  0.000000000E+00 -1.198020568E+03  1.198020568E+03  0.000000000E+00  0.00000E+00  9.000E+00
      25     1     1     2     0     0 -7.590010626E+01 -7.681171586E+01 -6.778312812E+02  6.976683393E+02  1.250000000E+02  0.00000E+00  9.000E+00
      25     1     1     2     0     0  5.552843601E+01  6.483444937E+01 -1.771065043E+02  2.329777390E+02  1.250000000E+02  0.00000E+00  9.000E+00
      21     1     1     2   502   512  2.037167025E+01  1.197726648E+01 -3.047712253E+02  3.056860475E+02  3.814697266E-06  0.00000E+00  9.000E+00
#rwgt            1           1   3.3031134196597818E-002           1       49303           0
</event>
<event>
      5   9999  3.79277E-02  1.45528E+01 -1.00000E+00  1.78631E-01
      21    -1     0     0   502   501  0.000000000E+00  0.000000000E+00  9.494917157E+02  9.494917157E+02  0.000000000E+00  0.00000E+00  9.000E+00
      21    -1     0     0   511   502  0.000000000E+00  0.000000000E+00 -6.069073199E+01  6.069073199E+01  0.000000000E+00  0.00000E+00  9.000E+00
      25     1     1     2     0     0  1.049664821E+02 -1.700344006E+02  3.777035796E+02  4.452130431E+02  1.250000000E+02  0.00000E+00  9.000E+00
      25     1     1     2     0     0 -9.266613358E+01  1.622572158E+02  4.922651423E+02  5.411694621E+02  1.250000000E+02  0.00000E+00  9.000E+00
      21     1     1     2   511   501 -1.230034847E+01  7.777184769E+00  1.883226182E+01  2.379994245E+01  0.000000000E+00  0.00000E+00  9.000E+00
#rwgt            1           1   8.8227385951125822E-002           1       49488           0
</event>
<event>
      5   9999  3.79277E-02  1.46450E+02 -1.00000E+00  1.16807E-01
      21    -1     0     0   502   512  0.000000000E+00  0.000000000E+00  2.465072757E+02  2.465072757E+02  0.000000000E+00  0.00000E+00  9.000E+00
      21    -1     0     0   501   502  0.000000000E+00  0.000000000E+00 -3.181459196E+02  3.181459196E+02  0.000000000E+00  0.00000E+00  9.000E+00
      25     1     1     2     0     0 -1.582737928E+02  7.941443354E+01  2.614573664E+01  2.183250908E+02  1.250000000E+02  0.00000E+00  9.000E+00
      25     1     1     2     0     0  1.201469224E+01 -8.688082101E+01 -1.250395954E+02  1.973639539E+02  1.250000000E+02  0.00000E+00  9.000E+00
      21     1     1     2   501   512  1.462591005E+02  7.466387467E+00  2.725521477E+01  1.489641506E+02  2.996875069E-06  0.00000E+00  9.000E+00
#rwgt            1           1   3.6035101362804543E-002           1       49655           0
</event>
<event>
      5   9999  3.79277E-02  2.52525E+01 -1.00000E+00  1.58425E-01
      21    -1     0     0   502   501  0.000000000E+00  0.000000000E+00  1.777687412E+02  1.777687412E+02  0.000000000E+00  0.00000E+00  9.000E+00
      21    -1     0     0   511   502  0.000000000E+00  0.000000000E+00 -5.855588726E+02  5.855588726E+02  0.000000000E+00  0.00000E+00  9.000E+00
      25     1     1     2     0     0 -8.125867538E+01 -1.407919078E+02 -2.437267364E+02  3.185169629E+02  1.250000000E+02  0.00000E+00  9.000E+00
      25     1     1     2     0     0  6.498994457E+01  1.601055127E+02  5.824167565E+01  2.210759166E+02  1.250000000E+02  0.00000E+00  9.000E+00
      21     1     1     2   511   501  1.626873081E+01 -1.931360497E+01 -2.223050706E+02  2.237347344E+02  2.697398305E-06  0.00000E+00  9.000E+00
#rwgt            1           1   3.4767903275053684E-002           1       49750           0
</event>
<event>
      5   9999  3.79277E-02  6.54265E+01 -1.00000E+00  1.32724E-01
      21    -1     0     0   512   501  0.000000000E+00  0.000000000E+00  4.596910832E+02  4.596910832E+02  0.000000000E+00  0.00000E+00  9.000E+00
      21    -1     0     0   501   502  0.000000000E+00  0.000000000E+00 -2.096320087E+02  2.096320087E+02  0.000000000E+00  0.00000E+00  9.000E+00
      25     1     1     2     0     0  2.515435308E+01 -8.051527585E+01  2.550634857E+02  2.963069909E+02  1.250000000E+02  0.00000E+00  9.000E+00
      25     1     1     2     0     0  9.870330997E+00  1.357773746E+02 -1.340623391E+02  2.283213299E+02  1.250000000E+02  0.00000E+00  9.000E+00
      21     1     1     2   512   502 -3.502468408E+01 -5.526209879E+01  1.290579279E+02  1.446947712E+02  2.697398305E-06  0.00000E+00  9.000E+00
#rwgt            1           1   3.4670713413999292E-002           1       50053           0
</event>
<event>
      5   9999  3.79277E-02  6.08194E+01 -1.00000E+00  1.34389E-01
      21    -1     0     0   502   501  0.000000000E+00  0.000000000E+00  4.761156926E+02  4.761156926E+02  0.000000000E+00  0.00000E+00  9.000E+00
      21    -1     0     0   501   511  0.000000000E+00  0.000000000E+00 -1.116940419E+02  1.116940419E+02  0.000000000E+00  0.00000E+00  9.000E+00
      25     1     1     2     0     0  1.599895958E+02 -8.482762178E+00  7.688351977E+01  2.172664347E+02  1.250000000E+02  0.00000E+00  9.000E+00
      25     1     1     2     0     0 -1.007680480E+02 -5.366733826E+00  2.554819827E+02  3.017930497E+02  1.250000000E+02  0.00000E+00  9.000E+00
      21     1     1     2   502   511 -5.922154778E+01  1.384949600E+01  3.205614817E+01  6.875025016E+01  1.066240300E-06  0.00000E+00  9.000E+00
#rwgt            2          11   2.8918822477067311E-003           1       50146           0
</event>
<event>
      5   9999  3.79277E-02  1.03332E+02 -1.00000E+00  1.23191E-01
      21    -1     0     0   502   501  0.000000000E+00  0.000000000E+00  1.713021564E+02  1.713021564E+02  0.000000000E+00  0.00000E+00  9.000E+00
      21    -1     0     0   501   512  0.000000000E+00  0.000000000E+00 -9.271180511E+02  9.271180511E+02  0.000000000E+00  0.00000E+00  9.000E+00
      25     1     1     2     0     0  2.768207335E+02 -6.265996050E+01 -2.474842910E+02  3.967738190E+02  1.250000000E+02  0.00000E+00  9.000E+00
      25     1     1     2     0     0 -1.918587451E+02  3.846340878E+00 -5.344670383E+01  2.351725378E+02  1.250000000E+02  0.00000E+00  9.000E+00
      21     1     1     2   502   512 -8.496198843E+01  5.881361962E+01 -4.548848998E+02  4.664738507E+02  7.629394531E-06  0.00000E+00  9.000E+00
#rwgt            1           1  0.16730929122605609                1       50436           0
</event>
<event>
      5   9999  3.79277E-02  7.16595E+01 -1.00000E+00  1.30707E-01
      21    -1     0     0   511   501  0.000000000E+00  0.000000000E+00  1.495995307E+03  1.495995307E+03  0.000000000E+00  0.00000E+00  9.000E+00
      21    -1     0     0   501   502  0.000000000E+00  0.000000000E+00 -5.858134809E+01  5.858134809E+01  0.000000000E+00  0.00000E+00  9.000E+00
      25     1     1     2     0     0 -2.057532873E+02  9.182828492E+01  5.856457006E+02  6.398224252E+02  1.250000000E+02  0.00000E+00  9.000E+00
      25     1     1     2     0     0  1.356119968E+02 -7.715564120E+01  3.140686254E+02  3.723005615E+02  1.250000000E+02  0.00000E+00  9.000E+00
      21     1     1     2   511   502  7.014129053E+01 -1.467264372E+01  5.376996325E+02  5.424536679E+02  7.629394531E-06  0.00000E+00  9.000E+00
#rwgt            1           1   3.2957225253894384E-002           1       50693           0
</event>
<event>
      5   9999  3.79277E-02  9.27145E+00 -1.00000E+00  1.99633E-01
      21    -1     0     0   502   501  0.000000000E+00  0.000000000E+00  3.438392460E+02  3.438392460E+02  0.000000000E+00  0.00000E+00  9.000E+00
      21    -1     0     0   501   512  0.000000000E+00  0.000000000E+00 -2.266465335E+02  2.266465335E+02  0.000000000E+00  0.00000E+00  9.000E+00
      25     1     1     2     0     0 -1.189203116E+02  2.147489715E+02  7.003415495E+01  2.842339602E+02  1.250000000E+02  0.00000E+00  9.000E+00
      25     1     1     2     0     0  1.096984063E+02 -2.137917836E+02  5.197710443E+01  2.758029849E+02  1.250000000E+02  0.00000E+00  9.000E+00
      21     1     1     2   502   512  9.221905281E+00 -9.571879698E-01 -4.818546866E+00  1.044883437E+01  1.576990671E-07  0.00000E+00  9.000E+00
#rwgt            1           1   3.9764508730786137E-002           1       50825           0
</event>
<event>
      5   9999  3.79277E-02  1.73311E+01 -1.00000E+00  1.71670E-01
      21    -1     0     0   502   501  0.000000000E+00  0.000000000E+00  5.682993064E+01  5.682993064E+01  0.000000000E+00  0.00000E+00  9.000E+00
      21    -1     0     0   501   511  0.000000000E+00  0.000000000E+00 -1.412209104E+03  1.412209104E+03  0.000000000E+00  0.00000E+00  9.000E+00
      25     1     1     2     0     0  1.611129175E+02  1.662419150E+02 -7.408849814E+02  7.862119957E+02  1.250000000E+02  0.00000E+00  9.000E+00
      25     1     1     2     0     0 -1.712416977E+02 -1.803051504E+02 -5.552030030E+02  6.210547809E+02  1.250000000E+02  0.00000E+00  9.000E+00
      21     1     1     2   502   511  1.012878024E+01  1.406323541E+01 -5.929118869E+01  6.177225782E+01  9.536743164E-07  0.00000E+00  9.000E+00
#rwgt            1           1   3.8274719495147477E-002           1       51218           0
</event>
<event>
      5   9999  3.79277E-02  2.73869E+01 -1.00000E+00  1.55841E-01
      21    -1     0     0   502   501  0.000000000E+00  0.000000000E+00  1.674478867E+03  1.674478867E+03  0.000000000E+00  0.00000E+00  9.000E+00
      21    -1     0     0   501   512  0.000000000E+00  0.000000000E+00 -1.001412684E+02  1.001412684E+02  0.000000000E+00  0.00000E+00  9.000E+00
      25     1     1     2     0     0  3.561385757E+00  1.271716728E+02  1.327810293E+03  1.339735232E+03  1.250000000E+02  0.00000E+00  9.000E+00
      25     1     1     2     0     0  2.347304819E+01 -1.315511625E+02  3.132405832E+02  3.627690109E+02  1.250000000E+02  0.00000E+00  9.000E+00
      21     1     1     2   502   512 -2.703443395E+01  4.379489701E+00 -6.671327753E+01  7.211589248E+01  3.814697266E-06  0.00000E+00  9.000E+00
#rwgt            1           1   3.7084635406172808E-002           1       51501           0
</event>
<event>
      5   9999  3.79277E-02  2.29506E+01 -1.00000E+00  1.61584E-01
      21    -1     0     0   502   501  0.000000000E+00  0.000000000E+00  5.156264303E+02  5.156264303E+02  0.000000000E+00  0.00000E+00  9.000E+00
      21    -1     0     0   501   511  0.000000000E+00  0.000000000E+00 -1.288067882E+02  1.288067882E+02  0.000000000E+00  0.00000E+00  9.000E+00
      25     1     1     2     0     0  3.115897268E+01 -8.491582717E+01  4.920028965E+00  1.543722319E+02  1.250000000E+02  0.00000E+00  9.000E+00
      25     1     1     2     0     0 -3.975250404E+01  1.061968075E+02  4.160146250E+02  4.489445308E+02  1.250000000E+02  0.00000E+00  9.000E+00
      21     1     1     2   502   511  8.593531364E+00 -2.128098029E+01 -3.411501189E+01  4.111645583E+01  6.743495762E-07  0.00000E+00  9.000E+00
#rwgt            1           1   4.0441696595679130E-002           1       51625           0
</event>
<event>
      5   9999  3.79277E-02  1.43040E+01 -1.00000E+00  1.79350E-01
      21    -1     0     0   502   501  0.000000000E+00  0.000000000E+00  6.604568397E+01  6.604568397E+01  0.000000000E+00  0.00000E+00  9.000E+00
      21    -1     0     0   501   512  0.000000000E+00  0.000000000E+00 -4.983002995E+02  4.983002995E+02  0.000000000E+00  0.00000E+00  9.000E+00
      25     1     1     2     0     0 -4.474032288E+01  3.642021169E+01 -4.428517290E+01  1.446177888E+02  1.250000000E+02  0.00000E+00  9.000E+00
      25     1     1     2     0     0  5.894057396E+01 -3.814028028E+01 -3.260377111E+02  3.561660586E+02  1.250000000E+02  0.00000E+00  9.000E+00
      21     1     1     2   502   512 -1.420025107E+01  1.720068591E+00 -6.193173154E+01  6.356213604E+01  0.000000000E+00  0.00000E+00  9.000E+00
#rwgt            1           1   3.9610936084700378E-002           1       51826           0
</event>
<event>
      5   9999  3.79277E-02  4.75041E+01 -1.00000E+00  1.40356E-01
      21    -1     0     0   502   501  0.000000000E+00  0.000000000E+00  2.853066787E+02  2.853066787E+02  0.000000000E+00  0.00000E+00  9.000E+00
       2    -1     0     0   501     0  0.000000000E+00  0.000000000E+00 -2.884271244E+02  2.884271244E+02  0.000000000E+00  0.00000E+00  9.000E+00
      25     1     1     2     0     0  1.395490090E+02  1.251347313E+02  1.979883839E+01  2.261628194E+02  1.250000000E+02  0.00000E+00  9.000E+00
      25     1     1     2     0     0 -1.555437955E+02 -8.040438101E+01  8.370214727E+01  2.308458062E+02  1.250000000E+02  0.00000E+00  9.000E+00
       2     1     1     2   502     0  1.599478653E+01 -4.473035032E+01 -1.066214313E+02  1.167251774E+02  1.907348633E-06  0.00000E+00  9.000E+00
#rwgt            1           1   2.7395018918277957E-002           1       52050           0
</event>
<event>
      5   9999  3.79277E-02  6.02496E+01 -1.00000E+00  1.34607E-01
      21    -1     0     0   511   501  0.000000000E+00  0.000000000E+00  5.027938162E+02  5.027938162E+02  0.000000000E+00  0.00000E+00  9.000E+00
      21    -1     0     0   501   502  0.000000000E+00  0.000000000E+00 -3.169614476E+02  3.169614476E+02  0.000000000E+00  0.00000E+00  9.000E+00
      25     1     1     2     0     0  9.803516521E+01 -3.113872072E+02  1.067111142E+02  3.654930209E+02  1.250000000E+02  0.00000E+00  9.000E+00
      25     1     1     2     0     0 -1.549956522E+02  3.310218379E+02  5.920403625E+01  3.908058690E+02  1.250000000E+02  0.00000E+00  9.000E+00
      21     1     1     2   511   502  5.696048703E+01 -1.963463070E+01  1.991721813E+01  6.345637386E+01  1.039242493E-06  0.00000E+00  9.000E+00
#rwgt            2          11   5.8270103576499527E-003           1       52159           0
</event>
<event>
      5   9999  3.79277E-02  1.90569E+01 -1.00000E+00  1.68119E-01
      21    -1     0     0   502   501  0.000000000E+00  0.000000000E+00  1.163048186E+02  1.163048186E+02  0.000000000E+00  0.00000E+00  9.000E+00
       2    -1     0     0   501     0  0.000000000E+00  0.000000000E+00 -4.821586799E+02  4.821586799E+02  0.000000000E+00  0.00000E+00  9.000E+00
      25     1     1     2     0     0 -1.145778706E+02 -6.538627473E+01 -2.760430530E+02  3.304969295E+02  1.250000000E+02  0.00000E+00  9.000E+00
      25     1     1     2     0     0  1.293781757E+02  5.338142835E+01 -1.219764478E+01  1.880480571E+02  1.250000000E+02  0.00000E+00  9.000E+00
       2     1     1     2   502     0 -1.480030513E+01  1.200484637E+01 -7.761316362E+01  7.991851184E+01  9.536743164E-07  0.00000E+00  9.000E+00
#rwgt            1           1   3.6889658192784371E-002           1       52209           0
</event>
<event>
      5   9999  3.79277E-02  3.01149E+01 -1.00000E+00  1.52925E-01
      21    -1     0     0   502   501  0.000000000E+00  0.000000000E+00  3.923344052E+02  3.923344052E+02  0.000000000E+00  0.00000E+00  9.000E+00
      21    -1     0     0   501   511  0.000000000E+00  0.000000000E+00 -1.904997564E+02  1.904997564E+02  0.000000000E+00  0.00000E+00  9.000E+00
      25     1     1     2     0     0 -1.902441527E+02 -7.564804798E+01  1.303947010E+01  2.402300826E+02  1.250000000E+02  0.00000E+00  9.000E+00
      25     1     1     2     0     0  1.785602313E+02  4.789205260E+01  2.094725535E+02  3.060737747E+02  1.250000000E+02  0.00000E+00  9.000E+00
      21     1     1     2   502   511  1.168392138E+01  2.775599538E+01 -2.067737479E+01  3.653030422E+01  4.768371582E-07  0.00000E+00  9.000E+00
#rwgt            1           1   4.0704631749044984E-002           1       52360           0
</event>
<event>
      5   9999 -4.35948E-02  3.11713E+01 -1.00000E+00  1.51893E-01
      21    -1     0     0   502   512  0.000000000E+00  0.000000000E+00  8.026278116E+02  8.026278116E+02  0.000000000E+00  0.00000E+00  9.000E+00
      21    -1     0     0   501   502  0.000000000E+00  0.000000000E+00 -1.220009500E+03  1.220009500E+03  0.000000000E+00  0.00000E+00  9.000E+00
      25     1     1     2     0     0  1.656711471E+02 -2.649979882E+02 -1.022633768E+03  1.076603774E+03  1.250000000E+02  0.00000E+00  9.000E+00
      25     1     1     2     0     0 -1.749587991E+02  2.352424654E+02 -2.063095629E+01  3.193747568E+02  1.250000000E+02  0.00000E+00  9.000E+00
      21     1     1     2   501   512  9.287651958E+00  2.975552279E+01  6.258830364E+02  6.266587803E+02  7.629394531E-06  0.00000E+00  9.000E+00
#rwgt            1           1 -0.81194871982818240                1       52488           0
</event>
<event>
      5   9999  3.79277E-02  1.42986E+01 -1.00000E+00  1.79366E-01
      21    -1     0     0   511   501  0.000000000E+00  0.000000000E+00  9.284312155E+01  9.284312155E+01  0.000000000E+00  0.00000E+00  9.000E+00
      21    -1     0     0   501   502  0.000000000E+00  0.000000000E+00 -6.697279001E+02  6.697279001E+02  0.000000000E+00  0.00000E+00  9.000E+00
      25     1     1     2     0     0 -7.019139374E+00 -2.060678849E+02 -2.866328833E+02  3.745619459E+02  1.250000000E+02  0.00000E+00  9.000E+00
      25     1     1     2     0     0 -7.455645985E-01  1.940612609E+02 -2.934464870E+02  3.733579644E+02  1.250000000E+02  0.00000E+00  9.000E+00
      21     1     1     2   511   502  7.764703972E+00  1.200662408E+01  3.194591709E+00  1.465111142E+01  2.763753681E-07  0.00000E+00  9.000E+00
#rwgt            1           1   3.8178334077875249E-002           1       52665           0
</event>
<event>
      5   9999  3.79277E-02  9.55094E+01 -1.00000E+00  1.24732E-01
      21    -1     0     0   512   501  0.000000000E+00  0.000000000E+00  3.413581161E+02  3.413581161E+02  0.000000000E+00  0.00000E+00  9.000E+00
      21    -1     0     0   501   502  0.000000000E+00  0.000000000E+00 -1.698890064E+02  1.698890064E+02  0.000000000E+00  0.00000E+00  9.000E+00
      25     1     1     2     0     0  3.457978110E+01  6.953310470E+01 -4.362817462E+01  1.534895160E+02  1.250000000E+02  0.00000E+00  9.000E+00
      25     1     1     2     0     0  5.086461521E+01 -1.122097979E+02  8.144163445E+01  1.934838175E+02  1.250000000E+02  0.00000E+00  9.000E+00
      21     1     1     2   512   502 -8.544439631E+01  4.267669319E+01  1.336556499E+02  1.642737890E+02  1.907348633E-06  0.00000E+00  9.000E+00
#rwgt            1           1   4.0239297364469302E-002           1       53055           0
</event>
<event>
      5   9999 -3.79277E-02  2.40860E+01 -1.00000E+00  1.59972E-01
      21    -1     0     0   502   501  0.000000000E+00  0.000000000E+00  1.274731493E+03  1.274731493E+03  0.000000000E+00  0.00000E+00  9.000E+00
      21    -1     0     0   511   502  0.000000000E+00  0.000000000E+00 -3.614832519E+02  3.614832519E+02  0.000000000E+00  0.00000E+00  9.000E+00
      25     1     1     2     0     0  3.080147915E+01 -1.528838127E+02  1.399606983E+02  2.440003860E+02  1.250000000E+02  0.00000E+00  9.000E+00
      25     1     1     2     0     0 -1.199477471E+01  1.378358198E+02  1.074238629E+03  1.090300977E+03  1.250000000E+02  0.00000E+00  9.000E+00
      21     1     1     2   511   501 -1.880670444E+01  1.504799288E+01 -3.009510861E+02  3.019133823E+02  7.629394531E-06  0.00000E+00  9.000E+00
#rwgt            1           1  -3.7341266407428013E-002           1       53126           0
</event>
<event>
      5   9999  3.79277E-02  3.92236E+01 -1.00000E+00  1.45370E-01
      21    -1     0     0   502   512  0.000000000E+00  0.000000000E+00  1.949974055E+02  1.949974055E+02  0.000000000E+00  0.00000E+00  9.000E+00
      21    -1     0     0   501   502  0.000000000E+00  0.000000000E+00 -6.732079684E+02  6.732079684E+02  0.000000000E+00  0.00000E+00  9.000E+00
      25     1     1     2     0     0 -1.764943163E+02 -1.332634549E+01 -5.402934878E+02  5.821253200E+02  1.250000000E+02  0.00000E+00  9.000E+00
      25     1     1     2     0     0  1.920763026E+02 -2.266942290E+01  7.886489830E+01  2.434170926E+02  1.250000000E+02  0.00000E+00  9.000E+00
      21     1     1     2   501   512 -1.558198636E+01  3.599576840E+01 -1.678197339E+01  4.266296136E+01  1.066240300E-06  0.00000E+00  9.000E+00
#rwgt            1           1   9.9560169994644312E-003           1       53293           0
</event>
<event>
      5   9999  3.79277E-02  1.39064E+01 -1.00000E+00  1.80538E-01
      21    -1     0     0   502   501  0.000000000E+00  0.000000000E+00  4.247667328E+02  4.247667328E+02  0.000000000E+00  0.00000E+00  9.000E+00
      21    -1     0     0   501   511  0.000000000E+00  0.000000000E+00 -1.140696447E+02  1.140696447E+02  0.000000000E+00  0.00000E+00  9.000E+00
      25     1     1     2     0     0 -1.259474215E+02 -1.477030631E+01  3.078706728E+02  3.556547007E+02  1.250000000E+02  0.00000E+00  9.000E+00
      25     1     1     2     0     0  1.120463051E+02  1.438587807E+01  7.104286253E+00  1.686321407E+02  1.250000000E+02  0.00000E+00  9.000E+00
      21     1     1     2   502   511  1.390111641E+01  3.844282471E-01 -4.277870902E+00  1.454953614E+01  2.598106231E-07  0.00000E+00  9.000E+00
#rwgt            1           1   5.1864586689919008E-002           1       53414           0
</event>
<event>
      5   9999  3.79277E-02  3.98003E+01 -1.00000E+00  1.44975E-01
      21    -1     0     0   512   501  0.000000000E+00  0.000000000E+00  7.647551506E+01  7.647551506E+01  0.000000000E+00  0.00000E+00  9.000E+00
      21    -1     0     0   501   502  0.000000000E+00  0.000000000E+00 -2.197500932E+03  2.197500932E+03  0.000000000E+00  0.00000E+00  9.000E+00
      25     1     1     2     0     0  4.024983045E+01 -2.912162440E+02 -1.565663405E+03  1.597921727E+03  1.250000000E+02  0.00000E+00  9.000E+00
      25     1     1     2     0     0 -6.078725438E+01  2.571240029E+02 -5.640804833E+02  6.353106600E+02  1.250000000E+02  0.00000E+00  9.000E+00
      21     1     1     2   512   502  2.053742392E+01  3.409224106E+01  8.718470903E+00  4.074405989E+01  7.996802250E-07  0.00000E+00  9.000E+00
#rwgt            1           1   2.8701707177979568E-002           1       53656           0
</event>
<event>
      5   9999  3.79277E-02  3.09593E+01 -1.00000E+00  1.52096E-01
      21    -1     0     0   502   511  0.000000000E+00  0.000000000E+00  1.278717988E+03  1.278717988E+03  0.000000000E+00  0.00000E+00  9.000E+00
      21    -1     0     0   501   502  0.000000000E+00  0.000000000E+00 -6.127473983E+01  6.127473983E+01  0.000000000E+00  0.00000E+00  9.000E+00
      25     1     1     2     0     0  7.303782519E+01  1.620331857E+02  1.937353595E+02  2.911145250E+02  1.250000000E+02  0.00000E+00  9.000E+00
      25     1     1     2     0     0 -5.057293943E+01 -1.407304048E+02  9.294655565E+02  9.496809411E+02  1.250000000E+02  0.00000E+00  9.000E+00
      21     1     1     2   501   511 -2.246488576E+01 -2.130278090E+01  9.424233213E+01  9.919726171E+01  1.348699152E-06  0.00000E+00  9.000E+00
#rwgt            1           1   2.7149699465301651E-002           1       53826           0
</event>
<event>
      5   9999  3.79277E-02  2.87111E+01 -1.00000E+00  1.54376E-01
      21    -1     0     0   502   501  0.000000000E+00  0.000000000E+00  9.193613320E+02  9.193613320E+02  0.000000000E+00  0.00000E+00  9.000E+00
      21    -1     0     0   512   502  0.000000000E+00  0.000000000E+00 -1.851983162E+02  1.851983162E+02  0.000000000E+00  0.00000E+00  9.000E+00
      25     1     1     2     0     0  1.828459387E+02  1.274782977E+02  7.448636314E+02  7.874834494E+02  1.250000000E+02  0.00000E+00  9.000E+00
      25     1     1     2     0     0 -2.009739200E+02 -1.497427079E+02 -3.119555950E+01  2.818005643E+02  1.250000000E+02  0.00000E+00  9.000E+00
      21     1     1     2   512   501  1.812798131E+01  2.226441021E+01  2.049494388E+01  3.527563455E+01  0.000000000E+00  0.00000E+00  9.000E+00
#rwgt            1           1   3.8118924408164771E-002           1       54212           0
</event>
<event>
      5   9999  3.79277E-02  1.08226E+01 -1.00000E+00  1.91871E-01
      21    -1     0     0   502   501  0.000000000E+00  0.000000000E+00  1.447290116E+03  1.447290116E+03  0.000000000E+00  0.00000E+00  9.000E+00
      21    -1     0     0   501   511  0.000000000E+00  0.000000000E+00 -3.276139911E+01  3.276139911E+01  0.000000000E+00  0.00000E+00  9.000E+00
      25     1     1     2     0     0 -9.456067039E+01  1.925289313E+01  6.761736673E+02  6.943689384E+02  1.250000000E+02  0.00000E+00  9.000E+00
      25     1     1     2     0     0  1.011416391E+02 -1.066110020E+01  7.515412171E+02  7.686237644E+02  1.250000000E+02  0.00000E+00  9.000E+00
      21     1     1     2   502   511 -6.580968702E+00 -8.591792933E+00 -1.318616765E+01  1.705881215E+01  8.920806376E-07  0.00000E+00  9.000E+00
#rwgt            1           1   6.2667136660544950E-002           1       54395           0
</event>
<event>
      5   9999 -4.36121E-02  2.93039E+01 -1.00000E+00  1.53751E-01
      21    -1     0     0   502   501  0.000000000E+00  0.000000000E+00  1.634662184E+03  1.634662184E+03  0.000000000E+00  0.00000E+00  9.000E+00
      21    -1     0     0   501   512  0.000000000E+00  0.000000000E+00 -5.079452503E+01  5.079452503E+01  0.000000000E+00  0.00000E+00  9.000E+00
      25     1     1     2     0     0  2.108617127E+02 -5.916437757E+01  7.781994360E+02  8.180357252E+02  1.250000000E+02  0.00000E+00  9.000E+00
      25     1     1     2     0     0 -2.401000773E+02  5.720553410E+01  7.827887242E+02  8.302431614E+02  1.250000000E+02  0.00000E+00  9.000E+00
      21     1     1     2   502   512  2.923836466E+01  1.958843474E+00  2.287949924E+01  3.717782298E+01  9.536743164E-07  0.00000E+00  9.000E+00
#rwgt            1           1 -0.46867074246054419                1       54693           0
</event>
<event>
      5   9999  3.79277E-02  3.17168E+01 -1.00000E+00  1.51380E-01
      21    -1     0     0   502   511  0.000000000E+00  0.000000000E+00  2.138681897E+02  2.138681897E+02  0.000000000E+00  0.00000E+00  9.000E+00
      21    -1     0     0   501   502  0.000000000E+00  0.000000000E+00 -4.153539119E+02  4.153539119E+02  0.000000000E+00  0.00000E+00  9.000E+00
      25     1     1     2     0     0 -6.756601017E+01  1.172176836E+02 -1.282792168E+01  1.846475201E+02  1.250000000E+02  0.00000E+00  9.000E+00
      25     1     1     2     0     0  4.559213867E+01 -1.400891664E+02 -2.843414319E+02  3.437712430E+02  1.250000000E+02  0.00000E+00  9.000E+00
      21     1     1     2   501   511  2.197387150E+01  2.287148278E+01  9.568363134E+01  1.008033385E+02  1.348699152E-06  0.00000E+00  9.000E+00
#rwgt            1           1   3.5423610740270672E-002           1       54977           0
</event>
<event>
      5   9999  3.79277E-02  2.88655E+01 -1.00000E+00  1.54212E-01
      21    -1     0     0   502   501  0.000000000E+00  0.000000000E+00  1.545011851E+02  1.545011851E+02  0.000000000E+00  0.00000E+00  9.000E+00
       2    -1     0     0   501     0  0.000000000E+00  0.000000000E+00 -9.550580058E+02  9.550580058E+02  0.000000000E+00  0.00000E+00  9.000E+00
      25     1     1     2     0     0 -3.124480031E+01  3.110239512E+02 -2.096629807E+02  3.966052209E+02  1.250000000E+02  0.00000E+00  9.000E+00
      25     1     1     2     0     0  5.983727974E+01 -3.070633068E+02 -4.141411729E+02  5.338597995E+02  1.250000000E+02  0.00000E+00  9.000E+00
       2     1     1     2   502     0 -2.859247942E+01 -3.960644424E+00 -1.767526671E+02  1.790941705E+02  3.814697266E-06  0.00000E+00  9.000E+00
#rwgt            1           1   3.4642690377054738E-002           1       55149           0
</event>
<event>
      5   9999  3.79277E-02  1.44537E+01 -1.00000E+00  1.78915E-01
      21    -1     0     0   502   501  0.000000000E+00  0.000000000E+00  9.680917160E+02  9.680917160E+02  0.000000000E+00  0.00000E+00  9.000E+00
      21    -1     0     0   511   502  0.000000000E+00  0.000000000E+00 -9.282573143E+01  9.282573143E+01  0.000000000E+00  0.00000E+00  9.000E+00
      25     1     1     2     0     0 -7.070071097E+01  9.022688819E+01  6.625181867E+01  1.820818095E+02  1.250000000E+02  0.00000E+00  9.000E+00
      25     1     1     2     0     0  8.241300876E+01 -9.869636072E+01  8.323159646E+02  8.514151400E+02  1.250000000E+02  0.00000E+00  9.000E+00
      21     1     1     2   511   501 -1.171229779E+01  8.469472530E+00 -2.330179870E+01  2.742049794E+01  4.768371582E-07  0.00000E+00  9.000E+00
#rwgt            1           1   3.8228191569707672E-002           1       55333           0
</event>
<event>
      5   9999  3.79277E-02  4.32114E+01 -1.00000E+00  1.42790E-01
      21    -1     0     0   502   501  0.000000000E+00  0.000000000E+00  1.807422700E+03  1.807422700E+03  0.000000000E+00  0.00000E+00  9.000E+00
      21    -1     0     0   512   502  0.000000000E+00  0.000000000E+00 -1.577721201E+02  1.577721201E+02  0.000000000E+00  0.00000E+00  9.000E+00
      25     1     1     2     0     0  7.614667391E+01 -6.699593973E+01  1.061422093E+02  1.928158201E+02  1.250000000E+02  0.00000E+00  9.000E+00
      25     1     1     2     0     0 -5.480780110E+01  2.942099807E+01  1.650809645E+03  1.656703647E+03  1.250000000E+02  0.00000E+00  9.000E+00
      21     1     1     2   512   501 -2.133887281E+01  3.757494167E+01 -1.073012745E+02  1.156753528E+02  2.336015456E-06  0.00000E+00  9.000E+00
#rwgt            1           1   4.6232462102616875E-002           1       55547           0
</event>
<event>
      5   9999  3.79277E-02  6.56756E+01 -1.00000E+00  1.32639E-01
      21    -1     0     0   502   501  0.000000000E+00  0.000000000E+00  1.587014920E+02  1.587014920E+02  0.000000000E+00  0.00000E+00  9.000E+00
      21    -1     0     0   501   511  0.000000000E+00  0.000000000E+00 -3.039712073E+02  3.039712073E+02  0.000000000E+00  0.00000E+00  9.000E+00
      25     1     1     2     0     0 -1.418104385E+02 -3.633503449E+01  6.634160173E+00  1.926121680E+02  1.250000000E+02  0.00000E+00  9.000E+00
      25     1     1     2     0     0  9.545810986E+01 -1.019184212E+01 -1.078089572E+02  1.909552189E+02  1.250000000E+02  0.00000E+00  9.000E+00
      21     1     1     2   502   511  4.635232861E+01  4.652687660E+01 -4.409491827E+01  7.910531228E+01  9.536743164E-07  0.00000E+00  9.000E+00
#rwgt            1           1   3.7083415310770987E-002           1       55898           0
</event>
<event>
      5   9999  3.79277E-02  1.25179E+01 -1.00000E+00  1.85119E-01
      21    -1     0     0   512   501  0.000000000E+00  0.000000000E+00  2.134097228E+02  2.134097228E+02  0.000000000E+00  0.00000E+00  9.000E+00
      21    -1     0     0   501   502  0.000000000E+00  0.000000000E+00 -2.879417108E+02  2.879417108E+02  0.000000000E+00  0.00000E+00  9.000E+00
      25     1     1     2     0     0  8.206860502E+01 -3.929605383E+01  9.984793414E+01  1.840490308E+02  1.250000000E+02  0.00000E+00  9.000E+00
      25     1     1     2     0     0 -6.972119337E+01  3.723732237E+01 -2.227290365E+02  2.673590969E+02  1.250000000E+02  0.00000E+00  9.000E+00
      21     1     1     2   512   502 -1.234741165E+01  2.058731462E+00  4.834911434E+01  4.994330593E+01  9.536743164E-07  0.00000E+00  9.000E+00
#rwgt            1           1   3.2345804384360251E-002           1       56013           0
</event>
<event>
      5   9999  3.79277E-02  3.24261E+01 -1.00000E+00  1.50730E-01
      21    -1     0     0   502   511  0.000000000E+00  0.000000000E+00  8.308253898E+01  8.308253898E+01  0.000000000E+00  0.00000E+00  9.000E+00
      21    -1     0     0   501   502  0.000000000E+00  0.000000000E+00 -6.567589169E+02  6.567589169E+02  0.000000000E+00  0.00000E+00  9.000E+00
      25     1     1     2     0     0  1.087630292E+02 -9.023732552E+01 -2.637385255E+02  3.242763964E+02  1.250000000E+02  0.00000E+00  9.000E+00
      25     1     1     2     0     0 -9.989277108E+01  1.214266149E+02 -3.231979983E+02  3.805324357E+02  1.250000000E+02  0.00000E+00  9.000E+00
      21     1     1     2   501   511 -8.870258158E+00 -3.118928942E+01  1.326014591E+01  3.503262371E+01  3.371747881E-07  0.00000E+00  9.000E+00
#rwgt            1           1   3.7664408626224007E-002           1       56382           0
</event>
<event>
      5   9999  3.79277E-02  2.21063E+01 -1.00000E+00  1.62859E-01
      21    -1     0     0   502   501  0.000000000E+00  0.000000000E+00  1.487632316E+02  1.487632316E+02  0.000000000E+00  0.00000E+00  9.000E+00
      21    -1     0     0   512   502  0.000000000E+00  0.000000000E+00 -2.839500630E+02  2.839500630E+02  0.000000000E+00  0.00000E+00  9.000E+00
      25     1     1     2     0     0 -3.468524397E+01 -1.243084086E+02 -1.389741176E+01  1.802048408E+02  1.250000000E+02  0.00000E+00  9.000E+00
      25     1     1     2     0     0  5.469728243E+01  1.337002205E+02 -8.297147319E+01  2.082709942E+02  1.250000000E+02  0.00000E+00  9.000E+00
      21     1     1     2   512   501 -2.001203846E+01 -9.391811972E+00 -3.831794639E+01  4.423745959E+01  6.743495762E-07  0.00000E+00  9.000E+00
#rwgt            1           1   4.6197344407203939E-002           1       56508           0
</event>
<event>
      5   9999  3.79277E-02  2.82551E+01 -1.00000E+00  1.54870E-01
      21    -1     0     0   502   501  0.000000000E+00  0.000000000E+00  4.362344729E+02  4.362344729E+02  0.000000000E+00  0.00000E+00  9.000E+00
      21    -1     0     0   501   511  0.000000000E+00  0.000000000E+00 -6.680375046E+02  6.680375046E+02  0.000000000E+00  0.00000E+00  9.000E+00
      25     1     1     2     0     0  8.052139009E+01 -1.012883506E+02  2.093317778E+02  2.760214075E+02  1.250000000E+02  0.00000E+00  9.000E+00
      25     1     1     2     0     0 -6.808616435E+01  7.591683615E+01  1.595552302E+02  2.268963712E+02  1.250000000E+02  0.00000E+00  9.000E+00
      21     1     1     2   502   511 -1.243522574E+01  2.537151444E+01 -6.006900396E+02  6.013541987E+02  7.629394531E-06  0.00000E+00  9.000E+00
#rwgt            2          11   4.3473027412188753E-003           1       56770           0
</event>
<event>
      5   9999  3.79277E-02  1.15887E+02 -1.00000E+00  1.21015E-01
      -1    -1     0     0     0   501  0.000000000E+00  0.000000000E+00  8.329001760E+02  8.329001760E+02  0.000000000E+00  0.00000E+00  9.000E+00
      21    -1     0     0   501   502  0.000000000E+00  0.000000000E+00 -4.153813577E+02  4.153813577E+02  0.000000000E+00  0.00000E+00  9.000E+00
      25     1     1     2     0     0 -1.649626093E+02 -7.648015798E+01 -1.931078033E+01  2.214944317E+02  1.250000000E+02  0.00000E+00  9.000E+00
      25     1     1     2     0     0  1.601373273E+02 -3.930599703E+01 -2.532575400E+02  3.270371639E+02  1.250000000E+02  0.00000E+00  9.000E+00
      -1     1     1     2     0   502  4.825282027E+00  1.157861550E+02  6.900871386E+02  6.997499381E+02  7.629394531E-06  0.00000E+00  9.000E+00
#rwgt            1           1   3.7582004095829971E-002           1       56820           0
</event>
<event>
      5   9999  3.79277E-02  1.08786E+02 -1.00000E+00  1.22205E-01
      21    -1     0     0   502   501  0.000000000E+00  0.000000000E+00  9.940963209E+02  9.940963209E+02  0.000000000E+00  0.00000E+00  9.000E+00
       2    -1     0     0   501     0  0.000000000E+00  0.000000000E+00 -5.502573889E+01  5.502573889E+01  0.000000000E+00  0.00000E+00  9.000E+00
      25     1     1     2     0     0 -1.005168108E+02  1.225500074E+02  5.183005851E+02  5.562217454E+02  1.250000000E+02  0.00000E+00  9.000E+00
      25     1     1     2     0     0  9.054889072E+00 -6.365039260E+01  1.775193594E+02  2.264320791E+02  1.250000000E+02  0.00000E+00  9.000E+00
       2     1     1     2   502     0  9.146192173E+01 -5.889961477E+01  2.432506375E+02  2.664682352E+02  0.000000000E+00  0.00000E+00  9.000E+00
#rwgt            1           1   4.8096732362172948E-002           1       56904           0
</event>
<event>
      5   9999  3.79277E-02  1.30228E+02 -1.00000E+00  1.18879E-01
      21    -1     0     0   511   501  0.000000000E+00  0.000000000E+00  1.982285735E+03  1.982285735E+03  0.000000000E+00  0.00000E+00  9.000E+00
      21    -1     0     0   501   502  0.000000000E+00  0.000000000E+00 -9.381909530E+01  9.381909530E+01  0.000000000E+00  0.00000E+00  9.000E+00
      25     1     1     2     0     0 -1.796893208E+02 -1.051239754E+02  1.108873487E+02  2.669462611E+02  1.250000000E+02  0.00000E+00  9.000E+00
      25     1     1     2     0     0  5.635380472E+01  1.469306654E+02  1.229724090E+03  1.246038005E+03  1.250000000E+02  0.00000E+00  9.000E+00
      21     1     1     2   511   502  1.233355161E+02 -4.180669005E+01  5.478552012E+02  5.631205647E+02  7.629394531E-06  0.00000E+00  9.000E+00
#rwgt            1           1   4.0792414360422302E-002           1       56991           0
</event>
<event>
      5   9999  3.79277E-02  6.18443E+01 -1.00000E+00  1.34005E-01
      21    -1     0     0   512   501  0.000000000E+00  0.000000000E+00  2.620437976E+02  2.620437976E+02  0.000000000E+00  0.00000E+00  9.000E+00
      21    -1     0     0   501   502  0.000000000E+00  0.000000000E+00 -2.243770188E+02  2.243770188E+02  0.000000000E+00  0.00000E+00  9.000E+00
      25     1     1     2     0     0  5.146530637E+01 -8.101050134E+01  1.019000130E+02  1.876699010E+02  1.250000000E+02  0.00000E+00  9.000E+00
      25     1     1     2     0     0 -1.034199725E+02  4.746302491E+01 -1.263938095E+02  2.110659246E+02  1.250000000E+02  0.00000E+00  9.000E+00
      21     1     1     2   512   502  5.195466612E+01  3.354747644E+01  6.216057516E+01  8.768499080E+01  9.536743164E-07  0.00000E+00  9.000E+00
#rwgt            1           1   4.4655013146463689E-002           1       57213           0
</event>
<event>
      5   9999  3.79277E-02  2.59998E+02 -1.00000E+00  1.07652E-01
      21    -1     0     0   502   501  0.000000000E+00  0.000000000E+00  5.058660121E+02  5.058660121E+02  0.000000000E+00  0.00000E+00  9.000E+00
      21    -1     0     0   511   502  0.000000000E+00  0.000000000E+00 -3.602137529E+02  3.602137529E+02  0.000000000E+00  0.00000E+00  9.000E+00
      25     1     1     2     0     0  1.454548012E+02  3.108709808E+02  1.875954851E+02  4.106274856E+02  1.250000000E+02  0.00000E+00  9.000E+00
      25     1     1     2     0     0  3.739949850E+01 -1.260375778E+02  3.404790355E+01  1.845764157E+02  1.250000000E+02  0.00000E+00  9.000E+00
      21     1     1     2   511   501 -1.828542997E+02 -1.848334030E+02 -7.599112951E+01  2.708758637E+02  7.387129490E-06  0.00000E+00  9.000E+00
#rwgt            2          11   1.4256933604838084E-003           1       57331           0
</event>
<event>
      5   9999  3.79277E-02  3.64013E+01 -1.00000E+00  1.47426E-01
       2    -1     0     0   502     0  0.000000000E+00  0.000000000E+00  6.948573000E+02  6.948573000E+02  0.000000000E+00  0.00000E+00  9.000E+00
      21    -1     0     0   501   502  0.000000000E+00  0.000000000E+00 -5.362376822E+02  5.362376822E+02  0.000000000E+00  0.00000E+00  9.000E+00
      25     1     1     2     0     0 -6.787080998E+00 -2.653550788E+02 -3.994841826E+02  4.956530989E+02  1.250000000E+02  0.00000E+00  9.000E+00
      25     1     1     2     0     0  2.641353949E+01  2.346980222E+02  1.151137674E+02  2.909587877E+02  1.250000000E+02  0.00000E+00  9.000E+00
       2     1     1     2   501     0 -1.962645849E+01  3.065705659E+01  4.429900330E+02  4.444830956E+02  0.000000000E+00  0.00000E+00  9.000E+00
#rwgt            1           1   4.5909521685640269E-002           1       57351           0
</event>
<event>
      5   9999  3.79277E-02  3.21211E+01 -1.00000E+00  1.51007E-01
      21    -1     0     0   502   511  0.000000000E+00  0.000000000E+00  1.213619565E+02  1.213619565E+02  0.000000000E+00  0.00000E+00  9.000E+00
      21    -1     0     0   501   502  0.000000000E+00  0.000000000E+00 -1.007243037E+03  1.007243037E+03  0.000000000E+00  0.00000E+00  9.000E+00
      25     1     1     2     0     0  5.591455303E+01 -1.731682624E+02 -6.666626087E+02  7.022661306E+02  1.250000000E+02  0.00000E+00  9.000E+00
      25     1     1     2     0     0 -8.783412114E+01  1.767607054E+02 -2.756899862E+02  3.613712057E+02  1.250000000E+02  0.00000E+00  9.000E+00
      21     1     1     2   501   511  3.191956811E+01 -3.592443026E+00  5.647151464E+01  6.496765688E+01  2.336015456E-06  0.00000E+00  9.000E+00
#rwgt            1           1   1.2638259277554549E-002           1       57628           0
</event>
<event>
      5   9999  3.79277E-02  1.94331E+01 -1.00000E+00  1.67406E-01
      21    -1     0     0   502   501  0.000000000E+00  0.000000000E+00  8.512151042E+02  8.512151042E+02  0.000000000E+00  0.00000E+00  9.000E+00
      21    -1     0     0   512   502  0.000000000E+00  0.000000000E+00 -1.208454849E+03  1.208454849E+03  0.000000000E+00  0.00000E+00  9.000E+00
      25     1     1     2     0     0  2.766029902E+02 -6.081354875E+01  3.776688482E+02  4.883300736E+02  1.250000000E+02  0.00000E+00  9.000E+00
      25     1     1     2     0     0 -2.954446256E+02  6.557149883E+01  3.540266264E+02  4.822312728E+02  1.250000000E+02  0.00000E+00  9.000E+00
      21     1     1     2   512   501  1.884163540E+01 -4.757950078E+00 -1.088935220E+03  1.089108607E+03  1.525878906E-05  0.00000E+00  9.000E+00
#rwgt            1           1   3.0044228511381540E-002           1       57780           0
</event>
<event>
      5   9999  3.79277E-02  2.25817E+01 -1.00000E+00  1.62133E-01
      21    -1     0     0   502   501  0.000000000E+00  0.000000000E+00  1.894972599E+03  1.894972599E+03  0.000000000E+00  0.00000E+00  9.000E+00
      21    -1     0     0   501   511  0.000000000E+00  0.000000000E+00 -4.711207332E+01  4.711207332E+01  0.000000000E+00  0.00000E+00  9.000E+00
      25     1     1     2     0     0 -2.344163440E+02  1.580101636E+01  1.033586562E+03  1.067298869E+03  1.250000000E+02  0.00000E+00  9.000E+00
      25     1     1     2     0     0  2.399961785E+02 -3.768247852E+01  8.054778940E+02  8.505514520E+02  1.250000000E+02  0.00000E+00  9.000E+00
      21     1     1     2   502   511 -5.579834484E+00  2.188146216E+01  8.796069586E+00  2.423435123E+01  4.616955931E-07  0.00000E+00  9.000E+00
#rwgt            1           1   2.3825475790861934E-002           1       57961           0
</event>
<event>
      5   9999  3.79277E-02  6.70724E+01 -1.00000E+00  1.32167E-01
      21    -1     0     0   502   501  0.000000000E+00  0.000000000E+00  2.464535945E+02  2.464535945E+02  0.000000000E+00  0.00000E+00  9.000E+00
      -1    -1     0     0     0   502  0.000000000E+00  0.000000000E+00 -1.442781091E+03  1.442781091E+03  0.000000000E+00  0.00000E+00  9.000E+00
      25     1     1     2     0     0 -1.464428591E+02 -4.904162321E+01 -1.026150694E+02  2.236189712E+02  1.250000000E+02  0.00000E+00  9.000E+00
      25     1     1     2     0     0  1.285948707E+02  1.136957370E+02  1.241081021E+02  2.459495525E+02  1.250000000E+02  0.00000E+00  9.000E+00
      -1     1     1     2     0   501  1.784798842E+01 -6.465411379E+01 -1.217820530E+03  1.219666162E+03  2.642899792E-05  0.00000E+00  9.000E+00
#rwgt            1           1   2.8288437267071625E-002           1       58088           0
</event>
<event>
      5   9999  3.79277E-02  1.46131E+02 -1.00000E+00  1.16845E-01
       1    -1     0     0   502     0  0.000000000E+00  0.000000000E+00  2.491493803E+02  2.491493803E+02  0.000000000E+00  0.00000E+00  9.000E+00
      21    -1     0     0   501   502  0.000000000E+00  0.000000000E+00 -8.076022095E+02  8.076022095E+02  0.000000000E+00  0.00000E+00  9.000E+00
      25     1     1     2     0     0 -1.673846834E+02  1.213615951E+02 -2.898388476E+02  3.773298644E+02  1.250000000E+02  0.00000E+00  9.000E+00
      25     1     1     2     0     0  3.465290584E+01 -1.824886177E+02 -4.156532347E+02  4.721181325E+02  1.250000000E+02  0.00000E+00  9.000E+00
       1     1     1     2   501     0  1.327317776E+02  6.112702256E+01  1.470392532E+02  2.073035929E+02  0.000000000E+00  0.00000E+00  9.000E+00
#rwgt            1           1   3.7159185765568668E-002           1       58154           0
</event>
<event>
      5   9999 -3.79277E-02  3.00985E+01 -1.00000E+00  1.52941E-01
      21    -1     0     0   502   501  0.000000000E+00  0.000000000E+00  1.565634603E+03  1.565634603E+03  0.000000000E+00  0.00000E+00  9.000E+00
      21    -1     0     0   501   511  0.000000000E+00  0.000000000E+00 -3.171552657E+02  3.171552657E+02  0.000000000E+00  0.00000E+00  9.000E+00
      25     1     1     2     0     0 -1.061194626E+02 -4.951950687E+01  1.258009423E+02  2.125191732E+02  1.250000000E+02  0.00000E+00  9.000E+00
      25     1     1     2     0     0  1.004625304E+02  7.908164375E+01  1.389902591E+03  1.401356785E+03  1.250000000E+02  0.00000E+00  9.000E+00
      21     1     1     2   502   511  5.656932127E+00 -2.956213687E+01 -2.672241955E+02  2.689139109E+02  3.814697266E-06  0.00000E+00  9.000E+00
#rwgt            1           1  -9.2761235116542440E-002           1       58239           0
</event>
<event>
      5   9999  3.79277E-02  1.66558E+01 -1.00000E+00  1.73204E-01
      21    -1     0     0   502   501  0.000000000E+00  0.000000000E+00  3.378769791E+02  3.378769791E+02  0.000000000E+00  0.00000E+00  9.000E+00
      21    -1     0     0   512   502  0.000000000E+00  0.000000000E+00 -1.401471566E+02  1.401471566E+02  0.000000000E+00  0.00000E+00  9.000E+00
      25     1     1     2     0     0 -1.117354955E+02 -6.395293802E+01 -8.843030142E+00  1.796607871E+02  1.250000000E+02  0.00000E+00  9.000E+00
      25     1     1     2     0     0  1.223113386E+02  7.682027695E+01  2.070480287E+02  2.817007360E+02  1.250000000E+02  0.00000E+00  9.000E+00
      21     1     1     2   512   501 -1.057584305E+01 -1.286733894E+01 -4.751759711E-01  1.666261263E+01  2.353723198E-07  0.00000E+00  9.000E+00
#rwgt            1           1   2.4045090983301119E-002           1       58330           0
</event>
<event>
      5   9999  3.79277E-02  1.81546E+02 -1.00000E+00  1.13200E-01
       1    -1     0     0   502     0  0.000000000E+00  0.000000000E+00  1.667706606E+03  1.667706606E+03  0.000000000E+00  0.00000E+00  9.000E+00
      21    -1     0     0   501   502  0.000000000E+00  0.000000000E+00 -7.025738132E+01  7.025738132E+01  0.000000000E+00  0.00000E+00  9.000E+00
      25     1     1     2     0     0 -1.785557026E+02 -3.913014825E+01  5.175122251E+02  5.629007111E+02  1.250000000E+02  0.00000E+00  9.000E+00
      25     1     1     2     0     0  1.077750147E+02 -1.280492735E+02  2.513651008E+02  3.268355613E+02  1.250000000E+02  0.00000E+00  9.000E+00
       1     1     1     2   501     0  7.078068783E+01  1.671794218E+02  8.285718986E+02  8.482277147E+02  1.078959322E-05  0.00000E+00  9.000E+00
#rwgt            1           1   2.2094806193082777E-002           1       58494           0
</event>
<event>
      5   9999  3.79277E-02  1.04307E+02 -1.00000E+00  1.23010E-01
      21    -1     0     0   502   501  0.000000000E+00  0.000000000E+00  1.078914807E+03  1.078914807E+03  0.000000000E+00  0.00000E+00  9.000E+00
      21    -1     0     0   501   511  0.000000000E+00  0.000000000E+00 -6.717340533E+01  6.717340533E+01  0.000000000E+00  0.00000E+00  9.000E+00
      25     1     1     2     0     0  2.862723329E+01 -2.201218514E+02  4.980719925E+02  5.594406650E+02  1.250000000E+02  0.00000E+00  9.000E+00
      25     1     1     2     0     0 -4.996616178E+01  1.180208651E+02  3.199623249E+02  3.666421025E+02  1.250000000E+02  0.00000E+00  9.000E+00
      21     1     1     2   502   511  2.133892849E+01  1.021009863E+02  1.937070840E+02  2.200054446E+02  0.000000000E+00  0.00000E+00  9.000E+00
#rwgt            1           1   3.7716798656404753E-002           1       58606           0
</event>
<event>
      5   9999  3.79277E-02  1.35909E+01 -1.00000E+00  1.81517E-01
      21    -1     0     0   512   501  0.000000000E+00  0.000000000E+00  2.177104703E+01  2.177104703E+01  0.000000000E+00  0.00000E+00  9.000E+00
      21    -1     0     0   501   502  0.000000000E+00  0.000000000E+00 -1.769955374E+03  1.769955374E+03  0.000000000E+00  0.00000E+00  9.000E+00
      25     1     1     2     0     0 -6.930127205E+01 -3.288242302E-01 -1.388037202E+03  1.395376311E+03  1.250000000E+02  0.00000E+00  9.000E+00
      25     1     1     2     0     0  7.642133873E+01 -1.124777643E+01 -3.493414792E+02  3.789870744E+02  1.250000000E+02  0.00000E+00  9.000E+00
      21     1     1     2   512   502 -7.120066677E+00  1.157660066E+01 -1.080564561E+01  1.736303572E+01  5.960464478E-07  0.00000E+00  9.000E+00
#rwgt            1           1  0.14132892566676683                1       58662           0
</event>
<event>
      5   9999  3.79277E-02  7.77398E+01 -1.00000E+00  1.28955E-01
      21    -1     0     0   511   501  0.000000000E+00  0.000000000E+00  4.200319783E+01  4.200319783E+01  0.000000000E+00  0.00000E+00  9.000E+00
      21    -1     0     0   501   502  0.000000000E+00  0.000000000E+00 -1.301849878E+03  1.301849878E+03  0.000000000E+00  0.00000E+00  9.000E+00
      25     1     1     2     0     0  3.676831106E+01 -1.134545109E+02 -5.072696452E+02  5.358836886E+02  1.250000000E+02  0.00000E+00  9.000E+00
      25     1     1     2     0     0  3.963179794E+01  1.278243895E+02 -6.699216006E+02  6.944996075E+02  1.250000000E+02  0.00000E+00  9.000E+00
      21     1     1     2   511   502 -7.640010899E+01 -1.436987855E+01 -8.265543428E+01  1.134697796E+02  2.697398305E-06  0.00000E+00  9.000E+00
#rwgt            1           1   3.9236032034422400E-002           1       58838           0
</event>
<event>
      5   9999 -3.79277E-02  4.47149E+01 -1.00000E+00  1.41901E-01
      21    -1     0     0   512   501  0.000000000E+00  0.000000000E+00  6.385433592E+02  6.385433592E+02  0.000000000E+00  0.00000E+00  9.000E+00
      21    -1     0     0   501   502  0.000000000E+00  0.000000000E+00 -1.514808539E+02  1.514808539E+02  0.000000000E+00  0.00000E+00  9.000E+00
      25     1     1     2     0     0  1.681725608E+02 -1.254899227E+02  2.760019901E+02  3.685536996E+02  1.250000000E+02  0.00000E+00  9.000E+00
      25     1     1     2     0     0 -1.234581833E+02  1.252686984E+02  1.054875021E+01  2.160334371E+02  1.250000000E+02  0.00000E+00  9.000E+00
      21     1     1     2   512   502 -4.471437754E+01  2.212242820E-01  2.005117649E+02  2.054370764E+02  2.697398305E-06  0.00000E+00  9.000E+00
#rwgt            1           1 -0.14345578176508203                1       59057           0
</event>
<event>
      5   9999  3.79277E-02  2.30944E+01 -1.00000E+00  1.61374E-01
      21    -1     0     0   502   501  0.000000000E+00  0.000000000E+00  2.112176682E+02  2.112176682E+02  0.000000000E+00  0.00000E+00  9.000E+00
      21    -1     0     0   501   511  0.000000000E+00  0.000000000E+00 -6.895837788E+02  6.895837788E+02  0.000000000E+00  0.00000E+00  9.000E+00
      25     1     1     2     0     0  1.029161998E+02  5.050092926E+01  1.588073124E+02  2.323507059E+02  1.250000000E+02  0.00000E+00  9.000E+00
      25     1     1     2     0     0 -1.163211994E+02 -3.169510103E+01 -6.005271590E+02  6.251344411E+02  1.250000000E+02  0.00000E+00  9.000E+00
      21     1     1     2   502   511  1.340499953E+01 -1.880582823E+01 -3.664626392E+01  4.331630002E+01  6.743495762E-07  0.00000E+00  9.000E+00
#rwgt            1           1   3.5322698634681633E-002           1       59133           0
</event>
<event>
      5   9999  3.79277E-02  2.99087E+01 -1.00000E+00  1.53132E-01
      21    -1     0     0   502   501  0.000000000E+00  0.000000000E+00  2.166098040E+02  2.166098040E+02  0.000000000E+00  0.00000E+00  9.000E+00
      21    -1     0     0   512   502  0.000000000E+00  0.000000000E+00 -2.719289296E+02  2.719289296E+02  0.000000000E+00  0.00000E+00  9.000E+00
      25     1     1     2     0     0  8.648444676E+01 -3.562762622E+01 -9.257757135E+01  1.815061817E+02  1.250000000E+02  0.00000E+00  9.000E+00
      25     1     1     2     0     0 -1.000269270E+02  6.229465869E+01  1.262235587E+02  2.131745702E+02  1.250000000E+02  0.00000E+00  9.000E+00
      21     1     1     2   512   501  1.354248024E+01 -2.666703247E+01 -8.896511296E+01  9.385798163E+01  9.536743164E-07  0.00000E+00  9.000E+00
#rwgt            1           1   3.7524038941236043E-002           1       59344           0
</event>
<event>
      5   9999  3.79277E-02  2.10065E+01 -1.00000E+00  1.64629E-01
      21    -1     0     0   502   501  0.000000000E+00  0.000000000E+00  1.578945683E+03  1.578945683E+03  0.000000000E+00  0.00000E+00  9.000E+00
      21    -1     0     0   511   502  0.000000000E+00  0.000000000E+00 -2.971115219E+01  2.971115219E+01  0.000000000E+00  0.00000E+00  9.000E+00
      25     1     1     2     0     0  2.614257557E+00  1.510560569E+02  8.232523873E+02  8.462826123E+02  1.250000000E+02  0.00000E+00  9.000E+00
      25     1     1     2     0     0  7.200714306E+00 -1.696285845E+02  6.772235114E+02  7.092830122E+02  1.250000000E+02  0.00000E+00  9.000E+00
      21     1     1     2   511   501 -9.814971863E+00  1.857252760E+01  4.875863223E+01  5.309121087E+01  9.536743164E-07  0.00000E+00  9.000E+00
#rwgt            1           1   4.0647769774415032E-002           1       59613           0
</event>
<event>
      5   9999  3.79277E-02  7.13442E+01 -1.00000E+00  1.30804E-01
      -2    -1     0     0     0   501  0.000000000E+00  0.000000000E+00  3.524991144E+02  3.524991144E+02  0.000000000E+00  0.00000E+00  9.000E+00
      21    -1     0     0   501   502  0.000000000E+00  0.000000000E+00 -5.602252798E+02  5.602252798E+02  0.000000000E+00  0.00000E+00  9.000E+00
      25     1     1     2     0     0  1.353232763E+01  2.125129090E+02 -2.383913357E+02  3.432204675E+02  1.250000000E+02  0.00000E+00  9.000E+00
      25     1     1     2     0     0  5.744052868E+01 -2.197826677E+02 -2.003825453E+02  3.276919282E+02  1.250000000E+02  0.00000E+00  9.000E+00
      -2     1     1     2     0   502 -7.097285631E+01  7.269758697E+00  2.310477156E+02  2.418119984E+02  2.697398305E-06  0.00000E+00  9.000E+00
#rwgt            1           1   3.3464166349486762E-002           1       59760           0
</event>
<event>
      5   9999  3.79277E-02  1.58788E+02 -1.00000E+00  1.15422E-01
      21    -1     0     0   502   501  0.000000000E+00  0.000000000E+00  4.344827265E+02  4.344827265E+02  0.000000000E+00  0.00000E+00  9.000E+00
      21    -1     0     0   511   502  0.000000000E+00  0.000000000E+00 -2.240128601E+02  2.240128601E+02  0.000000000E+00  0.00000E+00  9.000E+00
      25     1     1     2     0     0 -6.893680831E+01  6.416231377E+01 -2.761723980E+01  1.589238748E+02  1.250000000E+02  0.00000E+00  9.000E+00
      25     1     1     2     0     0  1.259105825E+02  8.405211458E+01  2.737084297E+02  3.368375532E+02  1.250000000E+02  0.00000E+00  9.000E+00
      21     1     1     2   511   501 -5.697377418E+01 -1.482144284E+02 -3.562132349E+01  1.627341587E+02  3.536319011E-06  0.00000E+00  9.000E+00
#rwgt            1           1   4.2386943802854037E-002           1       59895           0
</event>
<event>
      5   9999 -3.79277E-02  2.19709E+01 -1.00000E+00  1.63070E-01
      21    -1     0     0   512   501  0.000000000E+00  0.000000000E+00  1.474647184E+03  1.474647184E+03  0.000000000E+00  0.00000E+00  9.000E+00
      21    -1     0     0   501   502  0.000000000E+00  0.000000000E+00 -5.249768643E+01  5.249768643E+01  0.000000000E+00  0.00000E+00  9.000E+00
      25     1     1     2     0     0 -1.197896952E+02  2.063451000E+02  5.629521661E+02  6.240737238E+02  1.250000000E+02  0.00000E+00  9.000E+00
      25     1     1     2     0     0  1.085202161E+02 -1.874846169E+02  7.212015199E+02  7.633372460E+02  1.250000000E+02  0.00000E+00  9.000E+00
      21     1     1     2   512   502  1.126947908E+01 -1.886048305E+01  1.379958111E+02  1.397339002E+02  0.000000000E+00  0.00000E+00  9.000E+00
#rwgt            1           1  -2.9285515828186819E-002           1       59925           0
</event>
<event>
      5   9999  3.79277E-02  1.42785E+02 -1.00000E+00  1.17248E-01
      21    -1     0     0   502   501  0.000000000E+00  0.000000000E+00  5.066224221E+02  5.066224221E+02  0.000000000E+00  0.00000E+00  9.000E+00
       2    -1     0     0   501     0  0.000000000E+00  0.000000000E+00 -3.778591574E+02  3.778591574E+02  0.000000000E+00  0.00000E+00  9.000E+00
      25     1     1     2     0     0 -2.139215406E+01  8.723365444E+01 -3.110433068E+01  1.570344361E+02  1.250000000E+02  0.00000E+00  9.000E+00
      25     1     1     2     0     0  9.161919498E+01  3.708706849E+01  4.097501525E+02  4.396472620E+02  1.250000000E+02  0.00000E+00  9.000E+00
       2     1     1     2   502     0 -7.022704093E+01 -1.243207229E+02 -2.498825571E+02  2.877998814E+02  3.814697266E-06  0.00000E+00  9.000E+00
#rwgt            1           1   5.3777633939631107E-002           1       60127           0
</event>
<event>
      5   9999  3.79277E-02  1.82734E+01 -1.00000E+00  1.69671E-01
      21    -1     0     0   502   501  0.000000000E+00  0.000000000E+00  2.087727327E+02  2.087727327E+02  0.000000000E+00  0.00000E+00  9.000E+00
       2    -1     0     0   501     0  0.000000000E+00  0.000000000E+00 -1.350193913E+03  1.350193913E+03  0.000000000E+00  0.00000E+00  9.000E+00
      25     1     1     2     0     0 -1.705004959E+02  4.738578975E+01 -7.419062939E+01  2.290089117E+02  1.250000000E+02  0.00000E+00  9.000E+00
      25     1     1     2     0     0  1.856971301E+02 -5.753375898E+01  2.956690204E+01  2.330080669E+02  1.250000000E+02  0.00000E+00  9.000E+00
       2     1     1     2   502     0 -1.519663427E+01  1.014796923E+01 -1.096797453E+03  1.096949667E+03  0.000000000E+00  0.00000E+00  9.000E+00
#rwgt            1           1   3.2600316647611247E-002           1       60210           0
</event>
<event>
      5   9999  3.79277E-02  1.71703E+02 -1.00000E+00  1.14114E-01
      21    -1     0     0   511   501  0.000000000E+00  0.000000000E+00  2.222795598E+02  2.222795598E+02  0.000000000E+00  0.00000E+00  9.000E+00
      21    -1     0     0   501   502  0.000000000E+00  0.000000000E+00 -4.820634770E+02  4.820634770E+02  0.000000000E+00  0.00000E+00  9.000E+00
      25     1     1     2     0     0  1.113618451E+02  3.985546032E+01  6.757568088E+01  1.848821000E+02  1.250000000E+02  0.00000E+00  9.000E+00
      25     1     1     2     0     0 -9.671572366E+01  1.312213592E+02 -2.682475865E+02  3.378679387E+02  1.250000000E+02  0.00000E+00  9.000E+00
      21     1     1     2   511   502 -1.464612139E+01 -1.710768195E+02 -5.911201156E+01  1.815929981E+02  2.611744678E-06  0.00000E+00  9.000E+00
#rwgt            1           1   3.0459602527301288E-002           1       60411           0
</event>
<event>
      5   9999  3.79277E-02  2.02224E+01 -1.00000E+00  1.65974E-01
      21    -1     0     0   512   501  0.000000000E+00  0.000000000E+00  6.078551824E+02  6.078551824E+02  0.000000000E+00  0.00000E+00  9.000E+00
      21    -1     0     0   501   502  0.000000000E+00  0.000000000E+00 -6.810828810E+01  6.810828810E+01  0.000000000E+00  0.00000E+00  9.000E+00
      25     1     1     2     0     0  4.641503454E+01  3.126373391E+00  4.443172990E+02  4.639040761E+02  1.250000000E+02  0.00000E+00  9.000E+00
      25     1     1     2     0     0 -4.717871884E+01 -2.333437402E+01  2.389097393E+01  1.377174759E+02  1.250000000E+02  0.00000E+00  9.000E+00
      21     1     1     2   512   502  7.636842970E-01  2.020800063E+01  7.153862136E+01  7.434191852E+01  0.000000000E+00  0.00000E+00  9.000E+00
#rwgt            1           1   4.8902868543029519E-002           1       60501           0
</event>
<event>
      5   9999  3.79277E-02  5.22346E+01 -1.00000E+00  1.38001E-01
      21    -1     0     0   511   501  0.000000000E+00  0.000000000E+00  3.435677721E+02  3.435677721E+02  0.000000000E+00  0.00000E+00  9.000E+00
      21    -1     0     0   501   502  0.000000000E+00  0.000000000E+00 -1.874149818E+02  1.874149818E+02  0.000000000E+00  0.00000E+00  9.000E+00
      25     1     1     2     0     0 -3.990580291E+00  1.923910251E+02  1.709573487E+01  2.301032278E+02  1.250000000E+02  0.00000E+00  9.000E+00
      25     1     1     2     0     0  3.396593770E+01 -1.496133103E+02  6.123649963E+01  2.071538955E+02  1.250000000E+02  0.00000E+00  9.000E+00
      21     1     1     2   511   502 -2.997535741E+01 -4.277771484E+01  7.782055574E+01  9.372563061E+01  1.348699152E-06  0.00000E+00  9.000E+00
#rwgt            1           1   4.7759571102071789E-002           1       60717           0
</event>
<event>
      5   9999  3.79277E-02  4.64417E+01 -1.00000E+00  1.40930E-01
      21    -1     0     0   512   501  0.000000000E+00  0.000000000E+00  6.040741497E+01  6.040741497E+01  0.000000000E+00  0.00000E+00  9.000E+00
      21    -1     0     0   501   502  0.000000000E+00  0.000000000E+00 -1.143518228E+03  1.143518228E+03  0.000000000E+00  0.00000E+00  9.000E+00
      25     1     1     2     0     0 -1.265542960E+02  1.209833269E+02 -7.923327830E+02  8.210171705E+02  1.250000000E+02  0.00000E+00  9.000E+00
      25     1     1     2     0     0  8.084346982E+01 -1.291904004E+02 -1.992392892E+02  2.802625921E+02  1.250000000E+02  0.00000E+00  9.000E+00
      21     1     1     2   512   502  4.571082614E+01  8.207073505E+00 -9.153874074E+01  1.026458803E+02  1.907348633E-06  0.00000E+00  9.000E+00
#rwgt            1           1   4.0922041172417489E-002           1       60838           0
</event>
<event>
      5   9999  3.79277E-02  1.53041E+01 -1.00000E+00  1.76566E-01
      21    -1     0     0   502   511  0.000000000E+00  0.000000000E+00  3.313421551E+02  3.313421551E+02  0.000000000E+00  0.00000E+00  9.000E+00
      21    -1     0     0   501   502  0.000000000E+00  0.000000000E+00 -1.265893189E+02  1.265893189E+02  0.000000000E+00  0.00000E+00  9.000E+00
      25     1     1     2     0     0  4.336774487E+01 -2.604268118E+01 -6.206717241E+01  1.484463419E+02  1.250000000E+02  0.00000E+00  9.000E+00
      25     1     1     2     0     0 -5.807912568E+01  3.026072439E+01  2.337172547E+02  2.730158447E+02  1.250000000E+02  0.00000E+00  9.000E+00
      21     1     1     2   501   511  1.471138080E+01 -4.218043213E+00  3.310275383E+01  3.646928742E+01  4.768371582E-07  0.00000E+00  9.000E+00
#rwgt            1           1   4.5147671657142729E-002           1       60943           0
</event>
<event>
      5   9999  3.79277E-02  1.22598E+02 -1.00000E+00  1.19975E-01
      21    -1     0     0   502   501  0.000000000E+00  0.000000000E+00  6.842856517E+02  6.842856517E+02  0.000000000E+00  0.00000E+00  9.000E+00
      21    -1     0     0   512   502  0.000000000E+00  0.000000000E+00 -2.724387302E+02  2.724387302E+02  0.000000000E+00  0.00000E+00  9.000E+00
      25     1     1     2     0     0 -2.914076620E+02  2.122104455E+02  1.839830792E+02  4.235876203E+02  1.250000000E+02  0.00000E+00  9.000E+00
      25     1     1     2     0     0  1.752457561E+02 -1.730112479E+02  2.858950157E+02  3.974983357E+02  1.250000000E+02  0.00000E+00  9.000E+00
      21     1     1     2   512   501  1.161619060E+02 -3.919919760E+01 -5.803117333E+01  1.356384258E+02  3.504023184E-06  0.00000E+00  9.000E+00
#rwgt            1           1   3.9141937038539319E-002           1       61129           0
</event>
<event>
      5   9999  3.79277E-02  3.84181E+01 -1.00000E+00  1.45935E-01
      21    -1     0     0   502   501  0.000000000E+00  0.000000000E+00  1.254338134E+02  1.254338134E+02  0.000000000E+00  0.00000E+00  9.000E+00
       1    -1     0     0   501     0  0.000000000E+00  0.000000000E+00 -1.089976138E+03  1.089976138E+03  0.000000000E+00  0.00000E+00  9.000E+00
      25     1     1     2     0     0 -5.662217322E+01 -2.092404731E+02 -1.353424036E+02  2.844823585E+02  1.250000000E+02  0.00000E+00  9.000E+00
      25     1     1     2     0     0  7.028402587E+01  1.733336411E+02 -2.013778615E+02  3.019311818E+02  1.250000000E+02  0.00000E+00  9.000E+00
       1     1     1     2   502     0 -1.366185265E+01  3.590683203E+01 -6.278220592E+02  6.289964108E+02  0.000000000E+00  0.00000E+00  9.000E+00
#rwgt            1           1   5.8273543211267750E-002           1       61176           0
</event>
<event>
      5   9999  3.79277E-02  1.44637E+01 -1.00000E+00  1.78886E-01
      21    -1     0     0   502   511  0.000000000E+00  0.000000000E+00  6.641378216E+01  6.641378216E+01  0.000000000E+00  0.00000E+00  9.000E+00
      21    -1     0     0   501   502  0.000000000E+00  0.000000000E+00 -1.709403733E+03  1.709403733E+03  0.000000000E+00  0.00000E+00  9.000E+00
      25     1     1     2     0     0  1.384970219E+02 -4.974559790E+01 -4.703970930E+02  5.084825215E+02  1.250000000E+02  0.00000E+00  9.000E+00
      25     1     1     2     0     0 -1.510951270E+02  4.264028997E+01 -1.210364706E+03  1.226888607E+03  1.250000000E+02  0.00000E+00  9.000E+00
      21     1     1     2   501   511  1.259810517E+01  7.105307927E+00  3.777184847E+01  4.044638663E+01  0.000000000E+00  0.00000E+00  9.000E+00
#rwgt            1           1   2.4861474017012684E-002           1       61303           0
</event>
<event>
      5   9999  3.79277E-02  7.79577E+01 -1.00000E+00  1.28895E-01
      21    -1     0     0   512   501  0.000000000E+00  0.000000000E+00  4.342843884E+02  4.342843884E+02  0.000000000E+00  0.00000E+00  9.000E+00
      21    -1     0     0   501   502  0.000000000E+00  0.000000000E+00 -3.361222026E+02  3.361222026E+02  0.000000000E+00  0.00000E+00  9.000E+00
      25     1     1     2     0     0 -4.647034697E+01 -1.285173896E+02 -2.435350799E+02  3.059584085E+02  1.250000000E+02  0.00000E+00  9.000E+00
      25     1     1     2     0     0 -1.798002386E+01  1.723757417E+02  1.606776251E+02  2.673555251E+02  1.250000000E+02  0.00000E+00  9.000E+00
      21     1     1     2   512   502  6.445037083E+01 -4.385835208E+01  1.810196406E+02  1.970926575E+02  3.814697266E-06  0.00000E+00  9.000E+00
#rwgt            1           1   4.2743172429629980E-002           1       61497           0
</event>
<event>
      5   9999  3.79277E-02  6.12501E+01 -1.00000E+00  1.34227E-01
      21    -1     0     0   502   511  0.000000000E+00  0.000000000E+00  3.009950747E+02  3.009950747E+02  0.000000000E+00  0.00000E+00  9.000E+00
      21    -1     0     0   501   502  0.000000000E+00  0.000000000E+00 -4.665139140E+02  4.665139140E+02  0.000000000E+00  0.00000E+00  9.000E+00
      25     1     1     2     0     0  1.417097934E+02 -5.932169132E+00 -2.813897755E+02  3.390015662E+02  1.250000000E+02  0.00000E+00  9.000E+00
      25     1     1     2     0     0 -1.962336609E+02 -2.197335228E+01 -6.083448042E+01  2.414877055E+02  1.250000000E+02  0.00000E+00  9.000E+00
      21     1     1     2   501   511  5.452386757E+01  2.790552141E+01  1.767054166E+02  1.870197169E+02  2.697398305E-06  0.00000E+00  9.000E+00
#rwgt            1           1   4.2880326396013746E-002           1       61821           0
</event>
<event>
      5   9999  3.79277E-02  1.30414E+02 -1.00000E+00  1.18854E-01
      21    -1     0     0   502   501  0.000000000E+00  0.000000000E+00  3.528971244E+03  3.528971244E+03  0.000000000E+00  0.00000E+00  9.000E+00
      21    -1     0     0   512   502  0.000000000E+00  0.000000000E+00 -2.424640183E+01  2.424640183E+01  0.000000000E+00  0.00000E+00  9.000E+00
      25     1     1     2     0     0  4.769144162E+01 -1.250057488E+02  1.047849412E+03  1.063726610E+03  1.250000000E+02  0.00000E+00  9.000E+00
      25     1     1     2     0     0 -1.702429214E+02  1.696025914E+02  1.707658688E+03  1.729008643E+03  1.250000000E+02  0.00000E+00  9.000E+00
      21     1     1     2   512   501  1.225514798E+02 -4.459684263E+01  7.492167427E+02  7.604823937E+02  1.868812365E-05  0.00000E+00  9.000E+00
#rwgt            1           1   4.9141882896848864E-002           1       61945           0
</event>
<event>
      5   9999  3.79277E-02  2.30548E+02 -1.00000E+00  1.09446E-01
       1    -1     0     0   502     0  0.000000000E+00  0.000000000E+00  2.019123810E+03  2.019123810E+03  0.000000000E+00  0.00000E+00  9.000E+00
      21    -1     0     0   501   502  0.000000000E+00  0.000000000E+00 -1.291442310E+02  1.291442310E+02  0.000000000E+00  0.00000E+00  9.000E+00
      25     1     1     2     0     0 -1.946650770E+02  3.575971055E+02  9.089720217E+02  1.003805419E+03  1.250000000E+02  0.00000E+00  9.000E+00
      25     1     1     2     0     0  1.095374415E+02 -1.433411027E+02  1.139842611E+02  2.473106035E+02  1.250000000E+02  0.00000E+00  9.000E+00
       1     1     1     2   501     0  8.512763549E+01 -2.142560028E+02  8.670232957E+02  8.971520186E+02  1.078959322E-05  0.00000E+00  9.000E+00
#rwgt            1           1  0.17981107647265032                1       62007           0
</event>
<event>
      5   9999  3.79277E-02  1.31196E+01 -1.00000E+00  1.83045E-01
      21    -1     0     0   511   501  0.000000000E+00  0.000000000E+00  3.513000190E+01  3.513000190E+01  0.000000000E+00  0.00000E+00  9.000E+00
      21    -1     0     0   501   502  0.000000000E+00  0.000000000E+00 -1.206449510E+03  1.206449510E+03  0.000000000E+00  0.00000E+00  9.000E+00
      25     1     1     2     0     0  1.125231215E+02 -6.339369560E+01 -7.896771461E+02  8.098735757E+02  1.250000000E+02  0.00000E+00  9.000E+00
      25     1     1     2     0     0 -1.248368905E+02  5.886642904E+01 -3.697782332E+02  4.140174483E+02  1.250000000E+02  0.00000E+00  9.000E+00
      21     1     1     2   511   502  1.231376899E+01  4.527266553E+00 -1.186412830E+01  1.768848748E+01  1.685873940E-07  0.00000E+00  9.000E+00
#rwgt            1           1   4.4222647406044584E-002           1       62114           0
</event>
<event>
      5   9999  3.79277E-02  5.57229E+01 -1.00000E+00  1.36442E-01
      21    -1     0     0   502   501  0.000000000E+00  0.000000000E+00  1.877696140E+02  1.877696140E+02  0.000000000E+00  0.00000E+00  9.000E+00
       2    -1     0     0   501     0  0.000000000E+00  0.000000000E+00 -1.298601144E+03  1.298601144E+03  0.000000000E+00  0.00000E+00  9.000E+00
      25     1     1     2     0     0  3.110950614E+02 -1.538273685E+02 -2.723864806E+02  4.585437726E+02  1.250000000E+02  0.00000E+00  9.000E+00
      25     1     1     2     0     0 -3.025677897E+02  9.876081842E+01 -2.193990410E+02  4.062781139E+02  1.250000000E+02  0.00000E+00  9.000E+00
       2     1     1     2   502     0 -8.527271692E+00  5.506655004E+01 -6.190460084E+02  6.215488716E+02  1.078959322E-05  0.00000E+00  9.000E+00
#rwgt            1           1   3.0083663188254041E-002           1       62367           0
</event>
<event>
      5   9999  3.79277E-02  5.81324E+01 -1.00000E+00  1.35441E-01
      21    -1     0     0   511   501  0.000000000E+00  0.000000000E+00  5.091302761E+02  5.091302761E+02  0.000000000E+00  0.00000E+00  9.000E+00
      21    -1     0     0   501   502  0.000000000E+00  0.000000000E+00 -3.604277003E+02  3.604277003E+02  0.000000000E+00  0.00000E+00  9.000E+00
      25     1     1     2     0     0 -3.443891909E+02  1.441489435E+02  1.000513425E+02  4.062242039E+02  1.250000000E+02  0.00000E+00  9.000E+00
      25     1     1     2     0     0  2.888808789E+02 -1.268802886E+02 -5.566777656E+01  3.439108477E+02  1.250000000E+02  0.00000E+00  9.000E+00
      21     1     1     2   511   502  5.550831199E+01 -1.726865491E+01  1.043190100E+02  1.194229249E+02  1.348699152E-06  0.00000E+00  9.000E+00
#rwgt            1           1   3.2427600633644763E-002           1       62631           0
</event>
<event>
      5   9999  3.79277E-02  7.51232E+01 -1.00000E+00  1.29686E-01
      21    -1     0     0   502   501  0.000000000E+00  0.000000000E+00  1.699195459E+03  1.699195459E+03  0.000000000E+00  0.00000E+00  9.000E+00
      21    -1     0     0   501   512  0.000000000E+00  0.000000000E+00 -7.882161100E+01  7.882161100E+01  0.000000000E+00  0.00000E+00  9.000E+00
      25     1     1     2     0     0 -7.671670660E+01  2.119428912E+02  6.799674634E+02  7.271767278E+02  1.250000000E+02  0.00000E+00  9.000E+00
      25     1     1     2     0     0  8.757333268E+01 -2.862774554E+02  9.161551553E+02  9.718997575E+02  1.250000000E+02  0.00000E+00  9.000E+00
      21     1     1     2   502   512 -1.085662608E+01  7.433456413E+01  2.425122902E+01  7.894058439E+01  1.846782373E-06  0.00000E+00  9.000E+00
#rwgt            1           1   1.8288221549621113E-002           1       62944           0
</event>
<event>
      5   9999  3.79277E-02  4.67868E+00 -1.00000E+00  2.48400E-01
      21    -1     0     0   511   501  0.000000000E+00  0.000000000E+00  1.556051138E+02  1.556051138E+02  0.000000000E+00  0.00000E+00  9.000E+00
      21    -1     0     0   501   502  0.000000000E+00  0.000000000E+00 -4.520014772E+02  4.520014772E+02  0.000000000E+00  0.00000E+00  9.000E+00
      25     1     1     2     0     0  9.028261902E+00  2.799843118E+01 -3.926608300E+02  4.131258272E+02  1.250000000E+02  0.00000E+00  9.000E+00
      25     1     1     2     0     0 -7.218100031E+00 -3.231274779E+01  3.626552122E+01  1.342996749E+02  1.250000000E+02  0.00000E+00  9.000E+00
      21     1     1     2   511   502 -1.810161871E+00  4.314316606E+00  5.999894547E+01  6.018108898E+01  6.743495762E-07  0.00000E+00  9.000E+00
#rwgt            1           1   5.0462661799504434E-002           1       63061           0
</event>
<event>
      5   9999  3.79277E-02  1.10297E+02 -1.00000E+00  1.21943E-01
      21    -1     0     0   502   512  0.000000000E+00  0.000000000E+00  7.665313798E+01  7.665313798E+01  0.000000000E+00  0.00000E+00  9.000E+00
      21    -1     0     0   501   502  0.000000000E+00  0.000000000E+00 -1.759838585E+03  1.759838585E+03  0.000000000E+00  0.00000E+00  9.000E+00
      25     1     1     2     0     0 -2.109021682E+02 -1.090966742E+02 -1.190097159E+03  1.219974613E+03  1.250000000E+02  0.00000E+00  9.000E+00
      25     1     1     2     0     0  1.312379594E+02  1.853790102E+02 -3.306225909E+02  4.201488748E+02  1.250000000E+02  0.00000E+00  9.000E+00
      21     1     1     2   501   512  7.966420874E+01 -7.628233594E+01 -1.624656964E+02  1.963682343E+02  0.000000000E+00  0.00000E+00  9.000E+00
#rwgt            1           1   4.1331962488976498E-002           1       63534           0
</event>
<event>
      5   9999  3.79277E-02  7.67728E+01 -1.00000E+00  1.29221E-01
      21    -1     0     0   511   501  0.000000000E+00  0.000000000E+00  7.720826876E+01  7.720826876E+01  0.000000000E+00  0.00000E+00  9.000E+00
      21    -1     0     0   501   502  0.000000000E+00  0.000000000E+00 -5.527365668E+02  5.527365668E+02  0.000000000E+00  0.00000E+00  9.000E+00
      25     1     1     2     0     0 -8.281735050E+01  5.522953965E+01 -3.247877750E+02  3.619683887E+02  1.250000000E+02  0.00000E+00  9.000E+00
      25     1     1     2     0     0  7.009999245E+00 -6.736629724E+01 -7.773739550E+01  1.620353688E+02  1.250000000E+02  0.00000E+00  9.000E+00
      21     1     1     2   511   502  7.580735126E+01  1.213675759E+01 -7.300312745E+01  1.059410780E+02  2.336015456E-06  0.00000E+00  9.000E+00
#rwgt            1           1   2.1268316257025868E-002           1       63623           0
</event>
<event>
      5   9999  3.79277E-02  4.79195E+01 -1.00000E+00  1.40137E-01
      21    -1     0     0   502   501  0.000000000E+00  0.000000000E+00  1.190614088E+02  1.190614088E+02  0.000000000E+00  0.00000E+00  9.000E+00
      -3    -1     0     0     0   502  0.000000000E+00  0.000000000E+00 -9.439423668E+02  9.439423668E+02  0.000000000E+00  0.00000E+00  9.000E+00
      25     1     1     2     0     0  6.790863412E+01 -2.476555614E+01 -9.066782155E+01  1.705009361E+02  1.250000000E+02  0.00000E+00  9.000E+00
      25     1     1     2     0     0 -1.084036710E+02 -8.553514665E-01 -8.996362885E+00  1.657046229E+02  1.250000000E+02  0.00000E+00  9.000E+00
      -3     1     1     2     0   501  4.049503691E+01  2.562090761E+01 -7.252167736E+02  7.267982166E+02  1.078959322E-05  0.00000E+00  9.000E+00
#rwgt            1           1   4.6745844448268591E-002           1       63791           0
</event>
<event>
      5   9999  3.79277E-02  4.05179E+01 -1.00000E+00  1.44495E-01
      21    -1     0     0   511   501  0.000000000E+00  0.000000000E+00  5.347312243E+01  5.347312243E+01  0.000000000E+00  0.00000E+00  9.000E+00
      21    -1     0     0   501   502  0.000000000E+00  0.000000000E+00 -1.507132428E+03  1.507132428E+03  0.000000000E+00  0.00000E+00  9.000E+00
      25     1     1     2     0     0 -1.616696868E+02 -1.049496979E+02 -1.079076106E+03  1.103259611E+03  1.250000000E+02  0.00000E+00  9.000E+00
      25     1     1     2     0     0  1.332627484E+02  7.605772636E+01 -3.657704685E+02  4.158807202E+02  1.250000000E+02  0.00000E+00  9.000E+00
      21     1     1     2   511   502  2.840693845E+01  2.889197151E+01 -8.812731036E+00  4.146521914E+01  1.118282261E-06  0.00000E+00  9.000E+00
#rwgt            1           1   4.5185411832199006E-002           1       63891           0
</event>
<event>
      5   9999  3.79277E-02  3.58452E+01 -1.00000E+00  1.47857E-01
      21    -1     0     0   512   501  0.000000000E+00  0.000000000E+00  2.714038159E+02  2.714038159E+02  0.000000000E+00  0.00000E+00  9.000E+00
      21    -1     0     0   501   502  0.000000000E+00  0.000000000E+00 -7.803200754E+02  7.803200754E+02  0.000000000E+00  0.00000E+00  9.000E+00
      25     1     1     2     0     0 -2.763634221E+02  1.790046743E+02 -3.243807609E+01  3.536900384E+02  1.250000000E+02  0.00000E+00  9.000E+00
      25     1     1     2     0     0  2.524924912E+02 -1.522640906E+02 -5.384219753E+02  6.264663078E+02  1.250000000E+02  0.00000E+00  9.000E+00
      21     1     1     2   512   502  2.387093090E+01 -2.674058370E+01  6.194379188E+01  7.156754510E+01  1.168007728E-06  0.00000E+00  9.000E+00
#rwgt            1           1   4.5427211611431949E-002           1       64065           0
</event>
<event>
      5   9999  3.79277E-02  3.09189E+02 -1.00000E+00  1.05168E-01
      21    -1     0     0   502   511  0.000000000E+00  0.000000000E+00  1.461261947E+03  1.461261947E+03  0.000000000E+00  0.00000E+00  9.000E+00
      21    -1     0     0   501   502  0.000000000E+00  0.000000000E+00 -9.535534060E+02  9.535534060E+02  0.000000000E+00  0.00000E+00  9.000E+00
      25     1     1     2     0     0  4.495176835E+02 -7.506415683E+01  9.436509535E+02  1.055368607E+03  1.250000000E+02  0.00000E+00  9.000E+00
      25     1     1     2     0     0 -1.418131926E+02  4.480373670E+01 -8.334819328E+02  8.558244497E+02  1.250000000E+02  0.00000E+00  9.000E+00
      21     1     1     2   501   511 -3.077044909E+02  3.026042013E+01  3.975395201E+02  5.036222958E+02  0.000000000E+00  0.00000E+00  9.000E+00
#rwgt            2          11   4.4245169095247791E-004           1       64224           0
</event>
<event>
      5   9999  3.79277E-02  5.09971E+01 -1.00000E+00  1.38588E-01
      21    -1     0     0   512   501  0.000000000E+00  0.000000000E+00  1.239669571E+03  1.239669571E+03  0.000000000E+00  0.00000E+00  9.000E+00
      21    -1     0     0   501   502  0.000000000E+00  0.000000000E+00 -8.427715517E+01  8.427715517E+01  0.000000000E+00  0.00000E+00  9.000E+00
      25     1     1     2     0     0  8.494680022E+01 -2.825893291E+01  9.319280609E+00  1.540336819E+02  1.250000000E+02  0.00000E+00  9.000E+00
      25     1     1     2     0     0 -1.113950922E+02  7.186160583E+01  8.310767485E+02  8.508152085E+02  1.250000000E+02  0.00000E+00  9.000E+00
      21     1     1     2   512   502  2.644829198E+01 -4.360267292E+01  3.149963868E+02  3.190978360E+02  0.000000000E+00  0.00000E+00  9.000E+00
#rwgt            1           1   3.5541490102198918E-002           1       64424           0
</event>
<event>
      5   9999  3.79277E-02  1.28404E+02 -1.00000E+00  1.19134E-01
      21    -1     0     0   502   501  0.000000000E+00  0.000000000E+00  6.784651081E+02  6.784651081E+02  0.000000000E+00  0.00000E+00  9.000E+00
       2    -1     0     0   501     0  0.000000000E+00  0.000000000E+00 -9.170551996E+02  9.170551996E+02  0.000000000E+00  0.00000E+00  9.000E+00
      25     1     1     2     0     0  1.950314581E+02  9.979360905E+01  1.707865928E+02  3.046130239E+02  1.250000000E+02  0.00000E+00  9.000E+00
      25     1     1     2     0     0 -1.653067417E+02 -2.247096812E+02  3.819586823E+02  4.892220300E+02  1.250000000E+02  0.00000E+00  9.000E+00
       2     1     1     2   502     0 -2.972471636E+01  1.249160722E+02 -7.913353666E+02  8.016852538E+02  1.078959322E-05  0.00000E+00  9.000E+00
#rwgt            1           1   2.9197094248042357E-002           1       64585           0
</event>
<event>
      5   9999  3.79277E-02  6.40784E+01 -1.00000E+00  1.33195E-01
      21    -1     0     0   502   501  0.000000000E+00  0.000000000E+00  2.908355398E+02  2.908355398E+02  0.000000000E+00  0.00000E+00  9.000E+00
      21    -1     0     0   511   502  0.000000000E+00  0.000000000E+00 -2.788673946E+02  2.788673946E+02  0.000000000E+00  0.00000E+00  9.000E+00
      25     1     1     2     0     0  1.638682996E+01  1.576064103E+02  1.739337903E+02  2.664324908E+02  1.250000000E+02  0.00000E+00  9.000E+00
      25     1     1     2     0     0  4.233424254E+01 -1.319572745E+02 -1.467400858E+02  2.374080099E+02  1.250000000E+02  0.00000E+00  9.000E+00
      21     1     1     2   511   501 -5.872107250E+01 -2.564913580E+01 -1.522555926E+01  6.586243373E+01  1.359195024E-06  0.00000E+00  9.000E+00
#rwgt            1           1   3.2617585619768623E-002           1       64677           0
</event>
<event>
      5   9999  3.79277E-02  2.75909E+01 -1.00000E+00  1.55609E-01
       1    -1     0     0   502     0  0.000000000E+00  0.000000000E+00  8.408170719E+02  8.408170719E+02  0.000000000E+00  0.00000E+00  9.000E+00
      21    -1     0     0   501   502  0.000000000E+00  0.000000000E+00 -1.060692363E+03  1.060692363E+03  0.000000000E+00  0.00000E+00  9.000E+00
      25     1     1     2     0     0  2.520216178E+01  8.038660464E+01 -2.399790201E+02  2.833938695E+02  1.250000000E+02  0.00000E+00  9.000E+00
      25     1     1     2     0     0 -7.072355569E+00 -1.011848119E+02 -7.906608630E+02  8.068816422E+02  1.250000000E+02  0.00000E+00  9.000E+00
       1     1     1     2   501     0 -1.812980622E+01  2.079820727E+01  8.107645917E+02  8.112339234E+02  1.525878906E-05  0.00000E+00  9.000E+00
#rwgt            1           1   2.9200010411753748E-002           1       64773           0
</event>
<event>
      5   9999  3.79277E-02  1.72553E+01 -1.00000E+00  1.71838E-01
      21    -1     0     0   502   501  0.000000000E+00  0.000000000E+00  9.822436959E+02  9.822436959E+02  0.000000000E+00  0.00000E+00  9.000E+00
       2    -1     0     0   501     0  0.000000000E+00  0.000000000E+00 -7.330203953E+01  7.330203953E+01  0.000000000E+00  0.00000E+00  9.000E+00
      25     1     1     2     0     0 -7.749669183E+01  9.049897372E+01  7.781185637E+02  7.970503752E+02  1.250000000E+02  0.00000E+00  9.000E+00
      25     1     1     2     0     0  8.550636969E+01 -7.521533509E+01  1.545996629E+02  2.291173098E+02  1.250000000E+02  0.00000E+00  9.000E+00
       2     1     1     2   502     0 -8.009677867E+00 -1.528363864E+01 -2.377657025E+01  2.937805035E+01  1.261592536E-06  0.00000E+00  9.000E+00
#rwgt            1           1   1.3800024812668642E-002           1       64960           0
</event>
<event>
      5   9999  3.79277E-02  1.26636E+02 -1.00000E+00  1.19384E-01
      21    -1     0     0   502   501  0.000000000E+00  0.000000000E+00  6.279492833E+02  6.279492833E+02  0.000000000E+00  0.00000E+00  9.000E+00
      21    -1     0     0   501   511  0.000000000E+00  0.000000000E+00 -2.018818605E+02  2.018818605E+02  0.000000000E+00  0.00000E+00  9.000E+00
      25     1     1     2     0     0  4.564598716E+01 -3.958705417E+01 -1.792994450E+01  1.399899065E+02  1.250000000E+02  0.00000E+00  9.000E+00
      25     1     1     2     0     0  7.827370816E+01  1.349929146E+01  5.209937011E+02  5.416349701E+02  1.250000000E+02  0.00000E+00  9.000E+00
      21     1     1     2   502   511 -1.239196953E+02  2.608776271E+01 -7.699633377E+01  1.482062673E+02  1.907348633E-06  0.00000E+00  9.000E+00
#rwgt            1           1   5.1324295971504480E-002           1       65113           0
</event>
<event>
      5   9999  3.79277E-02  1.92491E+01 -1.00000E+00  1.67752E-01
      21    -1     0     0   512   501  0.000000000E+00  0.000000000E+00  3.848202089E+02  3.848202089E+02  0.000000000E+00  0.00000E+00  9.000E+00
      21    -1     0     0   501   502  0.000000000E+00  0.000000000E+00 -2.378022796E+02  2.378022796E+02  0.000000000E+00  0.00000E+00  9.000E+00
      25     1     1     2     0     0  8.874065512E+01 -1.572143512E+02 -1.223176899E+02  2.513520904E+02  1.250000000E+02  0.00000E+00  9.000E+00
      25     1     1     2     0     0 -7.513160551E+01  1.708275941E+02  2.049407439E+02  3.040600822E+02  1.250000000E+02  0.00000E+00  9.000E+00
      21     1     1     2   512   502 -1.360904961E+01 -1.361324282E+01  6.439487524E+01  6.721031594E+01  9.536743164E-07  0.00000E+00  9.000E+00
#rwgt            1           1   3.8343226024234137E-002           1       65167           0
</event>
<event>
      5   9999  3.79277E-02  1.14844E+02 -1.00000E+00  1.21183E-01
      21    -1     0     0   502   501  0.000000000E+00  0.000000000E+00  2.876030089E+02  2.876030089E+02  0.000000000E+00  0.00000E+00  9.000E+00
       4    -1     0     0   501     0  0.000000000E+00  0.000000000E+00 -4.235785734E+02  4.235785734E+02  0.000000000E+00  0.00000E+00  9.000E+00
      25     1     1     2     0     0 -1.281709132E+02 -1.366701578E+01  1.188678556E+02  2.153349423E+02  1.250000000E+02  0.00000E+00  9.000E+00
      25     1     1     2     0     0  1.627715912E+02 -9.584101195E+01 -1.153934890E+01  2.268000155E+02  1.250000000E+02  0.00000E+00  9.000E+00
       4     1     1     2   502     0 -3.460067801E+01  1.095080277E+02 -2.433040711E+02  2.690466244E+02  2.697398305E-06  0.00000E+00  9.000E+00
#rwgt            2          15   2.5702301245445380E-005           1       65557           0
</event>
<event>
      5   9999  3.79277E-02  5.91512E+01 -1.00000E+00  1.35035E-01
      21    -1     0     0   511   501  0.000000000E+00  0.000000000E+00  4.501636267E+02  4.501636267E+02  0.000000000E+00  0.00000E+00  9.000E+00
      21    -1     0     0   501   502  0.000000000E+00  0.000000000E+00 -1.740299082E+02  1.740299082E+02  0.000000000E+00  0.00000E+00  9.000E+00
      25     1     1     2     0     0  1.376379968E+02 -6.195888436E+01  9.804312294E+01  2.191359748E+02  1.250000000E+02  0.00000E+00  9.000E+00
      25     1     1     2     0     0 -1.947295522E+02  4.648556364E+01  2.070874168E+01  2.369269046E+02  1.250000000E+02  0.00000E+00  9.000E+00
      21     1     1     2   511   502  5.709155545E+01  1.547332072E+01  1.573818539E+02  1.681306555E+02  3.814697266E-06  0.00000E+00  9.000E+00
#rwgt            1           1   3.5609782472873545E-002           1       65576           0
</event>
<event>
      5   9999  3.79277E-02  1.10572E+01 -1.00000E+00  1.90844E-01
      21    -1     0     0   512   501  0.000000000E+00  0.000000000E+00  1.429644309E+02  1.429644309E+02  0.000000000E+00  0.00000E+00  9.000E+00
      21    -1     0     0   501   502  0.000000000E+00  0.000000000E+00 -3.328758735E+02  3.328758735E+02  0.000000000E+00  0.00000E+00  9.000E+00
      25     1     1     2     0     0  2.121242428E+01  4.645012457E+01  6.753856761E+01  1.509769490E+02  1.250000000E+02  0.00000E+00  9.000E+00
      25     1     1     2     0     0 -2.109053697E+01 -3.539361307E+01 -2.745688183E+02  3.044840794E+02  1.250000000E+02  0.00000E+00  9.000E+00
      21     1     1     2   512   502 -1.218873045E-01 -1.105651150E+01  1.711880810E+01  2.037927608E+01  2.384185791E-07  0.00000E+00  9.000E+00
#rwgt            1           1   3.3532545104043361E-002           1       65890           0
</event>
<event>
      5   9999  3.79277E-02  7.49198E+01 -1.00000E+00  1.29744E-01
      21    -1     0     0   502   501  0.000000000E+00  0.000000000E+00  1.921727539E+03  1.921727539E+03  0.000000000E+00  0.00000E+00  9.000E+00
      21    -1     0     0   511   502  0.000000000E+00  0.000000000E+00 -2.012613250E+02  2.012613250E+02  0.000000000E+00  0.00000E+00  9.000E+00
      25     1     1     2     0     0 -4.834069046E+01  3.074485674E+01  1.774421350E+03  1.779741048E+03  1.250000000E+02  0.00000E+00  9.000E+00
      25     1     1     2     0     0 -2.143474839E+01 -3.461831526E+00  1.068338024E+02  1.658610686E+02  1.250000000E+02  0.00000E+00  9.000E+00
      21     1     1     2   511   501  6.977543885E+01 -2.728302522E+01 -1.607889389E+02  1.773867475E+02  8.529922400E-06  0.00000E+00  9.000E+00
#rwgt            1           1   2.2338667764420828E-002           1       66173           0
</event>
<event>
      5   9999  3.79277E-02  3.74481E+01 -1.00000E+00  1.46638E-01
      21    -1     0     0   502   501  0.000000000E+00  0.000000000E+00  2.535426111E+02  2.535426111E+02  0.000000000E+00  0.00000E+00  9.000E+00
      21    -1     0     0   501   512  0.000000000E+00  0.000000000E+00 -1.949765645E+02  1.949765645E+02  0.000000000E+00  0.00000E+00  9.000E+00
      25     1     1     2     0     0  7.525793632E+01 -2.709122580E+01  1.599886128E+02  2.182178905E+02  1.250000000E+02  0.00000E+00  9.000E+00
      25     1     1     2     0     0 -1.101080100E+02  1.338604313E+01 -6.912227467E+01  1.808475847E+02  1.250000000E+02  0.00000E+00  9.000E+00
      21     1     1     2   502   512  3.485007369E+01  1.370518267E+01 -3.230029147E+01  4.945370054E+01  8.259061849E-07  0.00000E+00  9.000E+00
#rwgt            1           1   4.5581794757404800E-002           1       66245           0
</event>
<event>
      5   9999  3.79277E-02  1.28548E+01 -1.00000E+00  1.83940E-01
      21    -1     0     0   502   511  0.000000000E+00  0.000000000E+00  8.014776129E+02  8.014776129E+02  0.000000000E+00  0.00000E+00  9.000E+00
      21    -1     0     0   501   502  0.000000000E+00  0.000000000E+00 -3.645482510E+02  3.645482510E+02  0.000000000E+00  0.00000E+00  9.000E+00
      25     1     1     2     0     0 -8.886583993E+01 -9.190234539E+01 -2.121864996E+02  2.774730423E+02  1.250000000E+02  0.00000E+00  9.000E+00
      25     1     1     2     0     0  9.830790279E+01  8.317915099E+01 -5.236825859E+01  1.869509278E+02  1.250000000E+02  0.00000E+00  9.000E+00
      21     1     1     2   501   511 -9.442062858E+00  8.723194402E+00  7.014841201E+02  7.016018938E+02  7.629394531E-06  0.00000E+00  9.000E+00
#rwgt            1           1   2.7721624019796560E-002           1       66387           0
</event>
<event>
      5   9999  3.79277E-02  7.49832E+01 -1.00000E+00  1.29726E-01
      21    -1     0     0   502   501  0.000000000E+00  0.000000000E+00  2.222455082E+02  2.222455082E+02  0.000000000E+00  0.00000E+00  9.000E+00
      21    -1     0     0   501   512  0.000000000E+00  0.000000000E+00 -2.173536964E+02  2.173536964E+02  0.000000000E+00  0.00000E+00  9.000E+00
      25     1     1     2     0     0  8.872401552E+01  1.316742216E-01 -1.038127184E+01  1.536383386E+02  1.250000000E+02  0.00000E+00  9.000E+00
      25     1     1     2     0     0 -9.728391678E+01  7.436128543E+01  7.472387575E+01  1.902693324E+02  1.250000000E+02  0.00000E+00  9.000E+00
      21     1     1     2   502   512  8.559901267E+00 -7.449295966E+01 -5.945079212E+01  9.569153375E+01  0.000000000E+00  0.00000E+00  9.000E+00
#rwgt            1           1   4.6648572778705585E-002           1       66626           0
</event>
<event>
      5   9999  3.79277E-02  1.65338E+01 -1.00000E+00  1.73491E-01
      21    -1     0     0   502   501  0.000000000E+00  0.000000000E+00  1.672477390E+02  1.672477390E+02  0.000000000E+00  0.00000E+00  9.000E+00
      21    -1     0     0   511   502  0.000000000E+00  0.000000000E+00 -5.836524303E+02  5.836524303E+02  0.000000000E+00  0.00000E+00  9.000E+00
      25     1     1     2     0     0  9.844536337E+00  7.246619156E+01  1.207711446E+02  1.885707644E+02  1.250000000E+02  0.00000E+00  9.000E+00
      25     1     1     2     0     0  4.091864285E+00 -8.136245931E+01 -4.960958665E+02  5.180470074E+02  1.250000000E+02  0.00000E+00  9.000E+00
      21     1     1     2   511   501 -1.393640062E+01  8.896267746E+00 -4.107996939E+01  4.428239749E+01  6.743495762E-07  0.00000E+00  9.000E+00
#rwgt            1           1   2.7874774882251482E-002           1       66695           0
</event>
<event>
      5   9999  3.79277E-02  3.77055E+01 -1.00000E+00  1.46449E-01
      21    -1     0     0   502   512  0.000000000E+00  0.000000000E+00  1.272424409E+02  1.272424409E+02  0.000000000E+00  0.00000E+00  9.000E+00
      21    -1     0     0   501   502  0.000000000E+00  0.000000000E+00 -3.555866901E+03  3.555866901E+03  0.000000000E+00  0.00000E+00  9.000E+00
      25     1     1     2     0     0  1.324679282E+02 -5.833044185E+01 -3.234052635E+03  3.239702400E+03  1.250000000E+02  0.00000E+00  9.000E+00
      25     1     1     2     0     0 -1.561064635E+02  2.895490796E+01 -2.827332906E+02  3.475208315E+02  1.250000000E+02  0.00000E+00  9.000E+00
      21     1     1     2   501   512  2.363853538E+01  2.937553389E+01  8.816146525E+01  9.588611110E+01  3.015782986E-06  0.00000E+00  9.000E+00
#rwgt            1           1   1.7023599325425433E-002           1       67108           0
</event>
<event>
      5   9999  3.79277E-02  1.42182E+01 -1.00000E+00  1.79602E-01
      21    -1     0     0   502   501  0.000000000E+00  0.000000000E+00  9.059850330E+01  9.059850330E+01  0.000000000E+00  0.00000E+00  9.000E+00
      21    -1     0     0   511   502  0.000000000E+00  0.000000000E+00 -1.424258539E+03  1.424258539E+03  0.000000000E+00  0.00000E+00  9.000E+00
      25     1     1     2     0     0  1.368163252E+02  2.931640994E+02 -6.113540577E+02  7.028816969E+02  1.250000000E+02  0.00000E+00  9.000E+00
      25     1     1     2     0     0 -1.500662015E+02 -2.983213954E+02 -6.902518125E+02  7.769093155E+02  1.250000000E+02  0.00000E+00  9.000E+00
      21     1     1     2   511   501  1.324987636E+01  5.157295966E+00 -3.205416531E+01  3.506602970E+01  0.000000000E+00  0.00000E+00  9.000E+00
#rwgt            1           1   2.9788029273251429E-002           1       67461           0
</event>
<event>
      5   9999  3.79277E-02  8.62226E+01 -1.00000E+00  1.26794E-01
      21    -1     0     0   502   512  0.000000000E+00  0.000000000E+00  1.242014956E+03  1.242014956E+03  0.000000000E+00  0.00000E+00  9.000E+00
      21    -1     0     0   501   502  0.000000000E+00  0.000000000E+00 -1.581896348E+02  1.581896348E+02  0.000000000E+00  0.00000E+00  9.000E+00
      25     1     1     2     0     0  2.196280155E+02  7.493319321E+01  3.473368073E+02  4.360267267E+02  1.250000000E+02  0.00000E+00  9.000E+00
      25     1     1     2     0     0 -1.678932130E+02 -1.439102910E+02  3.383960559E+01  2.562585057E+02  1.250000000E+02  0.00000E+00  9.000E+00
      21     1     1     2   501   512 -5.173480249E+01  6.897709779E+01  7.026489086E+02  7.079193588E+02  1.078959322E-05  0.00000E+00  9.000E+00
#rwgt            1           1   4.0753258441844457E-002           1       67714           0
</event>
<event>
      5   9999  3.79277E-02  5.00691E+01 -1.00000E+00  1.39041E-01
      21    -1     0     0   502   511  0.000000000E+00  0.000000000E+00  2.256244652E+02  2.256244652E+02  0.000000000E+00  0.00000E+00  9.000E+00
      21    -1     0     0   501   502  0.000000000E+00  0.000000000E+00 -4.760618954E+02  4.760618954E+02  0.000000000E+00  0.00000E+00  9.000E+00
      25     1     1     2     0     0  4.270041910E+01 -1.847485707E+02 -3.270000784E+02  3.981324044E+02  1.250000000E+02  0.00000E+00  9.000E+00
      25     1     1     2     0     0  1.677661421E+00  1.615645544E+02 -8.932362351E+00  2.044766659E+02  1.250000000E+02  0.00000E+00  9.000E+00
      21     1     1     2   501   511 -4.437808052E+01  2.318401626E+01  8.549501047E+01  9.907729032E+01  1.651812370E-06  0.00000E+00  9.000E+00
#rwgt            1           1   4.2022821218178422E-002           1       67801           0
</event>
<event>
      5   9999  3.79277E-02  4.70393E+01 -1.00000E+00  1.40605E-01
      21    -1     0     0   502   512  0.000000000E+00  0.000000000E+00  1.809030412E+03  1.809030412E+03  0.000000000E+00  0.00000E+00  9.000E+00
      21    -1     0     0   501   502  0.000000000E+00  0.000000000E+00 -5.267277199E+01  5.267277199E+01  0.000000000E+00  0.00000E+00  9.000E+00
      25     1     1     2     0     0  1.216046885E+02  2.966770242E+01  6.583174839E+02  6.816705821E+02  1.250000000E+02  0.00000E+00  9.000E+00
      25     1     1     2     0     0 -8.001153696E+01 -5.163827115E+01  1.122362416E+02  1.931070455E+02  1.250000000E+02  0.00000E+00  9.000E+00
      21     1     1     2   501   512 -4.159315149E+01  2.197056873E+01  9.858039143E+02  9.869255563E+02  1.078959322E-05  0.00000E+00  9.000E+00
#rwgt            1           1   3.5817987012194900E-002           1       67937           0
</event>
<event>
      5   9999  3.79277E-02  3.08780E+01 -1.00000E+00  1.52175E-01
      21    -1     0     0   502   511  0.000000000E+00  0.000000000E+00  1.254994061E+03  1.254994061E+03  0.000000000E+00  0.00000E+00  9.000E+00
      21    -1     0     0   501   502  0.000000000E+00  0.000000000E+00 -5.962986235E+01  5.962986235E+01  0.000000000E+00  0.00000E+00  9.000E+00
      25     1     1     2     0     0 -1.251197324E+02 -1.456360943E+02  5.594852283E+02  6.045771581E+02  1.250000000E+02  0.00000E+00  9.000E+00
      25     1     1     2     0     0  1.557901895E+02  1.420622160E+02  3.792153948E+02  4.515324705E+02  1.250000000E+02  0.00000E+00  9.000E+00
      21     1     1     2   501   511 -3.067045708E+01  3.573878288E+00  2.566635752E+02  2.585142943E+02  3.814697266E-06  0.00000E+00  9.000E+00
#rwgt            1           1   2.1752448628431394E-002           1       68062           0
</event>
<event>
      5   9999  3.79277E-02  4.08114E+01 -1.00000E+00  1.44301E-01
      21    -1     0     0   502   512  0.000000000E+00  0.000000000E+00  1.205662445E+02  1.205662445E+02  0.000000000E+00  0.00000E+00  9.000E+00
      21    -1     0     0   501   502  0.000000000E+00  0.000000000E+00 -6.484789786E+02  6.484789786E+02  0.000000000E+00  0.00000E+00  9.000E+00
      25     1     1     2     0     0  1.794226118E+02  2.287156072E+01 -3.346356876E+02  4.004018298E+02  1.250000000E+02  0.00000E+00  9.000E+00
      25     1     1     2     0     0 -1.941217674E+02  1.520081907E+01 -2.204691064E+02  3.196028040E+02  1.250000000E+02  0.00000E+00  9.000E+00
      21     1     1     2   501   512  1.469915561E+01 -3.807237979E+01  2.719205986E+01  4.904058929E+01  3.371747881E-07  0.00000E+00  9.000E+00
#rwgt            1           1   3.4570519274749779E-002           1       68228           0
</event>
<event>
      5   9999  3.79277E-02  4.37744E+01 -1.00000E+00  1.42453E-01
      21    -1     0     0   502   501  0.000000000E+00  0.000000000E+00  2.010201694E+02  2.010201694E+02  0.000000000E+00  0.00000E+00  9.000E+00
      21    -1     0     0   501   511  0.000000000E+00  0.000000000E+00 -2.447838885E+02  2.447838885E+02  0.000000000E+00  0.00000E+00  9.000E+00
      25     1     1     2     0     0 -2.544498309E+01 -1.577384376E+02  1.161417723E+01  2.031963360E+02  1.250000000E+02  0.00000E+00  9.000E+00
      25     1     1     2     0     0 -1.154299057E+01  1.343271914E+02 -1.743535702E+01  1.846781705E+02  1.250000000E+02  0.00000E+00  9.000E+00
      21     1     1     2   502   511  3.698797367E+01  2.341124615E+01 -3.794253924E+01  5.792955141E+01  0.000000000E+00  0.00000E+00  9.000E+00
#rwgt            1           1   3.0621315610317945E-002           1       68319           0
</event>
<event>
      5   9999 -3.79277E-02  3.28902E+01 -1.00000E+00  1.50316E-01
       2    -1     0     0   502     0  0.000000000E+00  0.000000000E+00  1.018199316E+03  1.018199316E+03  0.000000000E+00  0.00000E+00  9.000E+00
      21    -1     0     0   501   502  0.000000000E+00  0.000000000E+00 -2.819770517E+02  2.819770517E+02  0.000000000E+00  0.00000E+00  9.000E+00
      25     1     1     2     0     0  8.771024924E+01  1.485840851E+02 -1.698636572E+02  2.724866606E+02  1.250000000E+02  0.00000E+00  9.000E+00
      25     1     1     2     0     0 -8.474261422E+01 -1.813401049E+02  1.699401600E+02  2.908095636E+02  1.250000000E+02  0.00000E+00  9.000E+00
       2     1     1     2   501     0 -2.967635018E+00  3.275601976E+01  7.361457613E+02  7.368801432E+02  0.000000000E+00  0.00000E+00  9.000E+00
#rwgt            1           1  -3.4657118918392731E-002           1       68421           0
</event>
<event>
      5   9999  3.79277E-02  2.98921E+01 -1.00000E+00  1.53149E-01
      21    -1     0     0   502   511  0.000000000E+00  0.000000000E+00  1.820743128E+02  1.820743128E+02  0.000000000E+00  0.00000E+00  9.000E+00
      21    -1     0     0   501   502  0.000000000E+00  0.000000000E+00 -5.954716018E+02  5.954716018E+02  0.000000000E+00  0.00000E+00  9.000E+00
      25     1     1     2     0     0  8.161478865E+01 -2.183103912E+02 -3.766071361E+02  4.601938022E+02  1.250000000E+02  0.00000E+00  9.000E+00
      25     1     1     2     0     0 -7.073592318E+01  2.461526407E+02 -2.900550401E+01  2.864629341E+02  1.250000000E+02  0.00000E+00  9.000E+00
      21     1     1     2   501   511 -1.087886547E+01 -2.784224950E+01 -7.784648888E+00  3.088917819E+01  6.899736466E-07  0.00000E+00  9.000E+00
#rwgt            1           1   3.0152673958517565E-002           1       68545           0
</event>
<event>
      5   9999 -3.79277E-02  6.58863E+01 -1.00000E+00  1.32567E-01
      21    -1     0     0   512   501  0.000000000E+00  0.000000000E+00  1.809999699E+02  1.809999699E+02  0.000000000E+00  0.00000E+00  9.000E+00
      21    -1     0     0   501   502  0.000000000E+00  0.000000000E+00 -6.907996354E+02  6.907996354E+02  0.000000000E+00  0.00000E+00  9.000E+00
      25     1     1     2     0     0 -2.265255331E+02  1.005085775E+02 -4.023359856E+02  4.887893581E+02  1.250000000E+02  0.00000E+00  9.000E+00
      25     1     1     2     0     0  2.060061572E+02 -3.789904654E+01 -1.658568769E+02  2.949718260E+02  1.250000000E+02  0.00000E+00  9.000E+00
      21     1     1     2   512   502  2.051937598E+01 -6.260953099E+01  5.839319692E+01  8.803842121E+01  1.168007728E-06  0.00000E+00  9.000E+00
#rwgt            1           1  -6.4698715565608578E-002           1       68730           0
</event>
<event>
      5   9999  3.79277E-02  2.79472E+01 -1.00000E+00  1.55209E-01
      21    -1     0     0   502   501  0.000000000E+00  0.000000000E+00  2.045570339E+02  2.045570339E+02  0.000000000E+00  0.00000E+00  9.000E+00
      21    -1     0     0   511   502  0.000000000E+00  0.000000000E+00 -6.854704511E+02  6.854704511E+02  0.000000000E+00  0.00000E+00  9.000E+00
      25     1     1     2     0     0 -1.763690952E+02 -1.850615760E+02 -2.763733522E+01  2.859067452E+02  1.250000000E+02  0.00000E+00  9.000E+00
      25     1     1     2     0     0  1.691964816E+02  2.120727166E+02 -2.245605387E+02  3.737040568E+02  1.250000000E+02  0.00000E+00  9.000E+00
      21     1     1     2   511   501  7.172613550E+00 -2.701114058E+01 -2.287155433E+02  2.304166831E+02  2.697398305E-06  0.00000E+00  9.000E+00
#rwgt            1           1   3.1114965786104985E-002           1       68824           0
</event>
<event>
      5   9999  3.79277E-02  1.12728E+02 -1.00000E+00  1.21532E-01
      21    -1     0     0   502   501  0.000000000E+00  0.000000000E+00  2.806505819E+02  2.806505819E+02  0.000000000E+00  0.00000E+00  9.000E+00
      21    -1     0     0   501   512  0.000000000E+00  0.000000000E+00 -4.415304064E+02  4.415304064E+02  0.000000000E+00  0.00000E+00  9.000E+00
      25     1     1     2     0     0 -1.521253780E+02 -3.975812996E+01  1.311364835E+02  2.398845906E+02  1.250000000E+02  0.00000E+00  9.000E+00
      25     1     1     2     0     0  2.161511102E+02 -5.302270532E+01 -1.342955582E+02  2.884319793E+02  1.250000000E+02  0.00000E+00  9.000E+00
      21     1     1     2   502   512 -6.402573222E+01  9.278083528E+01 -1.577207498E+02  1.938644183E+02  1.907348633E-06  0.00000E+00  9.000E+00
#rwgt            1           1   4.1944897975849250E-002           1       69180           0
</event>
<event>
      5   9999  3.79277E-02  6.29324E+01 -1.00000E+00  1.33605E-01
      21    -1     0     0   511   501  0.000000000E+00  0.000000000E+00  2.063989558E+03  2.063989558E+03  0.000000000E+00  0.00000E+00  9.000E+00
      21    -1     0     0   501   502  0.000000000E+00  0.000000000E+00 -1.718498786E+02  1.718498786E+02  0.000000000E+00  0.00000E+00  9.000E+00
      25     1     1     2     0     0  2.194704869E+02  1.104245807E+00  2.086508585E+02  3.276105839E+02  1.250000000E+02  0.00000E+00  9.000E+00
      25     1     1     2     0     0 -1.581335328E+02 -1.518485587E+01 -2.040770282E+01  2.031705401E+02  1.250000000E+02  0.00000E+00  9.000E+00
      21     1     1     2   511   502 -6.133695404E+01  1.408061006E+01  1.703896524E+03  1.705058313E+03  0.000000000E+00  0.00000E+00  9.000E+00
#rwgt            1           1   3.3897718871402256E-002           1       69247           0
</event>
<event>
      5   9999  3.79277E-02  9.76656E+01 -1.00000E+00  1.24291E-01
      21    -1     0     0   502   512  0.000000000E+00  0.000000000E+00  2.175729965E+02  2.175729965E+02  0.000000000E+00  0.00000E+00  9.000E+00
      21    -1     0     0   501   502  0.000000000E+00  0.000000000E+00 -3.603233902E+02  3.603233902E+02  0.000000000E+00  0.00000E+00  9.000E+00
      25     1     1     2     0     0  2.030629189E+02  1.212179605E+01 -1.068787275E+02  2.615904229E+02  1.250000000E+02  0.00000E+00  9.000E+00
      25     1     1     2     0     0 -1.585139248E+02  7.479168124E+01 -1.119341952E+01  2.155707600E+02  1.250000000E+02  0.00000E+00  9.000E+00
      21     1     1     2   501   512 -4.454899412E+01 -8.691347729E+01 -2.467824671E+01  1.007352037E+02  1.011524364E-06  0.00000E+00  9.000E+00
#rwgt            1           1   3.8845165054865155E-002           1       69412           0
</event>
<event>
      5   9999  3.79277E-02  1.24121E+01 -1.00000E+00  1.85499E-01
      21    -1     0     0   502   511  0.000000000E+00  0.000000000E+00  3.904694456E+01  3.904694456E+01  0.000000000E+00  0.00000E+00  9.000E+00
      21    -1     0     0   501   502  0.000000000E+00  0.000000000E+00 -8.502833867E+02  8.502833867E+02  0.000000000E+00  0.00000E+00  9.000E+00
      25     1     1     2     0     0  1.149046016E+01  1.161757036E+02 -2.754313697E+02  3.242163848E+02  1.250000000E+02  0.00000E+00  9.000E+00
      25     1     1     2     0     0 -4.928089312E+00 -1.056402816E+02 -5.190461093E+02  5.442591467E+02  1.250000000E+02  0.00000E+00  9.000E+00
      21     1     1     2   501   511 -6.562370849E+00 -1.053542198E+01 -1.675896322E+01  2.085479982E+01  4.129530925E-07  0.00000E+00  9.000E+00
#rwgt            1           1   4.3569847885979861E-002           1       69705           0
</event>
<event>
      5   9999  3.79277E-02  5.43793E+01 -1.00000E+00  1.37026E-01
      21    -1     0     0   502   501  0.000000000E+00  0.000000000E+00  3.562773574E+02  3.562773574E+02  0.000000000E+00  0.00000E+00  9.000E+00
      21    -1     0     0   512   502  0.000000000E+00  0.000000000E+00 -2.719302134E+02  2.719302134E+02  0.000000000E+00  0.00000E+00  9.000E+00
      25     1     1     2     0     0 -1.468641405E+02  1.760356989E+02 -1.281586402E+01  2.614323803E+02  1.250000000E+02  0.00000E+00  9.000E+00
      25     1     1     2     0     0  1.098329787E+02 -1.362135359E+02  1.712324971E+02  2.748872108E+02  1.250000000E+02  0.00000E+00  9.000E+00
      21     1     1     2   512   501  3.703116180E+01 -3.982216307E+01 -7.406948906E+01  9.188797977E+01  9.536743164E-07  0.00000E+00  9.000E+00
#rwgt            1           1   2.0719961087552113E-002           1       69857           0
</event>
<event>
      5   9999  3.79277E-02  1.37566E+01 -1.00000E+00  1.80999E-01
      21    -1     0     0   502   501  0.000000000E+00  0.000000000E+00  1.780035418E+02  1.780035418E+02  0.000000000E+00  0.00000E+00  9.000E+00
       2    -1     0     0   501     0  0.000000000E+00  0.000000000E+00 -1.588890150E+03  1.588890150E+03  0.000000000E+00  0.00000E+00  9.000E+00
      25     1     1     2     0     0  4.512220689E+01  2.559353946E+02 -3.960174643E+01  2.910880247E+02  1.250000000E+02  0.00000E+00  9.000E+00
      25     1     1     2     0     0 -5.424063287E+01 -2.662358363E+02 -3.760750910E+02  4.805008230E+02  1.250000000E+02  0.00000E+00  9.000E+00
       2     1     1     2   502     0  9.118425985E+00  1.030044170E+01 -9.952097704E+02  9.953048437E+02  1.868812365E-05  0.00000E+00  9.000E+00
#rwgt            1           1   1.9278202514678822E-002           1       70010           0
</event>
<event>
      5   9999  3.79277E-02  8.44779E+00 -1.00000E+00  2.04625E-01
      21    -1     0     0   502   511  0.000000000E+00  0.000000000E+00  2.258660070E+02  2.258660070E+02  0.000000000E+00  0.00000E+00  9.000E+00
      21    -1     0     0   501   502  0.000000000E+00  0.000000000E+00 -2.961273846E+02  2.961273846E+02  0.000000000E+00  0.00000E+00  9.000E+00
      25     1     1     2     0     0  1.472270443E+02  1.499730743E+00 -2.010485109E+02  2.787894465E+02  1.250000000E+02  0.00000E+00  9.000E+00
      25     1     1     2     0     0 -1.515147435E+02  5.779062148E+00  1.239207034E+02  2.323175753E+02  1.250000000E+02  0.00000E+00  9.000E+00
      21     1     1     2   501   511  4.287699134E+00 -7.278792891E+00  6.866429774E+00  1.088636981E+01  1.884864366E-07  0.00000E+00  9.000E+00
#rwgt            1           1   3.7208569723494130E-002           1       70309           0
</event>
<event>
      5   9999  3.79277E-02  2.81675E+01 -1.00000E+00  1.54966E-01
      21    -1     0     0   512   501  0.000000000E+00  0.000000000E+00  3.973835259E+01  3.973835259E+01  0.000000000E+00  0.00000E+00  9.000E+00
      21    -1     0     0   501   502  0.000000000E+00  0.000000000E+00 -1.426573630E+03  1.426573630E+03  0.000000000E+00  0.00000E+00  9.000E+00
      25     1     1     2     0     0  1.811955065E+02 -4.445116054E+01 -8.882603226E+02  9.162091016E+02  1.250000000E+02  0.00000E+00  9.000E+00
      25     1     1     2     0     0 -1.534107420E+02  4.907904879E+01 -4.267659092E+02  4.729669650E+02  1.250000000E+02  0.00000E+00  9.000E+00
      21     1     1     2   512   502 -2.778476452E+01 -4.627888246E+00 -7.180904581E+01  7.713591608E+01  9.536743164E-07  0.00000E+00  9.000E+00
#rwgt            1           1   4.1945481044242887E-002           1       70663           0
</event>
<event>
      5   9999  3.79277E-02  5.08411E+01 -1.00000E+00  1.38663E-01
      21    -1     0     0   502   511  0.000000000E+00  0.000000000E+00  1.025927089E+02  1.025927089E+02  0.000000000E+00  0.00000E+00  9.000E+00
      21    -1     0     0   501   502  0.000000000E+00  0.000000000E+00 -2.098464061E+03  2.098464061E+03  0.000000000E+00  0.00000E+00  9.000E+00
      25     1     1     2     0     0 -1.922121868E+02 -2.395825314E+02 -1.174867283E+03  1.220771661E+03  1.250000000E+02  0.00000E+00  9.000E+00
      25     1     1     2     0     0  2.197729836E+02  1.968599354E+02 -8.589960825E+02  9.168169219E+02  1.250000000E+02  0.00000E+00  9.000E+00
      21     1     1     2   501   511 -2.756079677E+01  4.272259598E+01  3.799201357E+01  6.346818747E+01  1.907348633E-06  0.00000E+00  9.000E+00
#rwgt            1           1   2.5039248192197348E-002           1       70889           0
</event>
<event>
      5   9999  3.79277E-02  1.10769E+02 -1.00000E+00  1.21863E-01
      21    -1     0     0   502   501  0.000000000E+00  0.000000000E+00  6.147767059E+02  6.147767059E+02  0.000000000E+00  0.00000E+00  9.000E+00
      21    -1     0     0   512   502  0.000000000E+00  0.000000000E+00 -3.502803435E+02  3.502803435E+02  0.000000000E+00  0.00000E+00  9.000E+00
      25     1     1     2     0     0 -8.077240277E+01  6.050743764E+00 -3.221480793E+01  1.523928686E+02  1.250000000E+02  0.00000E+00  9.000E+00
      25     1     1     2     0     0  8.034991148E+01 -1.168188854E+02  5.255058522E+02  5.584658996E+02  1.250000000E+02  0.00000E+00  9.000E+00
      21     1     1     2   512   501  4.224912821E-01  1.107681417E+02 -2.287946820E+02  2.541982813E+02  3.814697266E-06  0.00000E+00  9.000E+00
#rwgt            1           1   4.3638987064003758E-002           1       71018           0
</event>
<event>
      5   9999  3.79277E-02  9.96200E+01 -1.00000E+00  1.23902E-01
      -3    -1     0     0     0   501  0.000000000E+00  0.000000000E+00  1.158442484E+03  1.158442484E+03  0.000000000E+00  0.00000E+00  9.000E+00
      21    -1     0     0   501   502  0.000000000E+00  0.000000000E+00 -1.347492321E+02  1.347492321E+02  0.000000000E+00  0.00000E+00  9.000E+00
      25     1     1     2     0     0 -2.004246276E+02 -2.123992463E+02  5.652890484E+02  6.484290087E+02  1.250000000E+02  0.00000E+00  9.000E+00
      25     1     1     2     0     0  1.102460977E+02  2.547310286E+02  1.909187734E+02  3.593286477E+02  1.250000000E+02  0.00000E+00  9.000E+00
      -3     1     1     2     0   502  9.017852990E+01 -4.233178238E+01  2.674854298E+02  2.854340593E+02  3.814697266E-06  0.00000E+00  9.000E+00
#rwgt            1           1   3.2737399202387808E-002           1       71083           0
</event>
<event>
      5   9999  3.79277E-02  7.21346E+01 -1.00000E+00  1.30563E-01
      21    -1     0     0   502   501  0.000000000E+00  0.000000000E+00  1.747161609E+03  1.747161609E+03  0.000000000E+00  0.00000E+00  9.000E+00
      21    -1     0     0   501   511  0.000000000E+00  0.000000000E+00 -6.590965635E+01  6.590965635E+01  0.000000000E+00  0.00000E+00  9.000E+00
      25     1     1     2     0     0 -1.026319131E+02 -1.634192360E+02  6.191328278E+02  6.604465267E+02  1.250000000E+02  0.00000E+00  9.000E+00
      25     1     1     2     0     0  9.198494519E+01  9.207465515E+01  1.065245752E+03  1.080422364E+03  1.250000000E+02  0.00000E+00  9.000E+00
      21     1     1     2   502   511  1.064696787E+01  7.134458083E+01 -3.126626977E+00  7.220237486E+01  2.353062742E-06  0.00000E+00  9.000E+00
#rwgt            1           1   4.2581186016417902E-002           1       71132           0
</event>
<event>
      5   9999  3.79277E-02  4.89258E+01 -1.00000E+00  1.39616E-01
      21    -1     0     0   502   512  0.000000000E+00  0.000000000E+00  1.182611209E+02  1.182611209E+02  0.000000000E+00  0.00000E+00  9.000E+00
      21    -1     0     0   501   502  0.000000000E+00  0.000000000E+00 -1.805177905E+03  1.805177905E+03  0.000000000E+00  0.00000E+00  9.000E+00
      25     1     1     2     0     0 -6.947378768E+01 -2.601152522E+02 -1.709906155E+02  3.425629025E+02  1.250000000E+02  0.00000E+00  9.000E+00
      25     1     1     2     0     0  3.402600708E+01  2.938375361E+02 -1.492453756E+03  1.526611109E+03  1.250000000E+02  0.00000E+00  9.000E+00
      21     1     1     2   501   512  3.544778059E+01 -3.372228398E+01 -2.347241337E+01  5.426501428E+01  1.430511475E-06  0.00000E+00  9.000E+00
#rwgt            1           1  0.20094260313690476                1       71219           0
</event>
<event>
      5   9999  3.79277E-02  3.96947E+01 -1.00000E+00  1.45047E-01
      21    -1     0     0   511   501  0.000000000E+00  0.000000000E+00  3.772022883E+02  3.772022883E+02  0.000000000E+00  0.00000E+00  9.000E+00
      21    -1     0     0   501   502  0.000000000E+00  0.000000000E+00 -2.236040687E+02  2.236040687E+02  0.000000000E+00  0.00000E+00  9.000E+00
      25     1     1     2     0     0  1.057301299E+02  1.706687127E+02  1.171548883E+02  2.639260080E+02  1.250000000E+02  0.00000E+00  9.000E+00
      25     1     1     2     0     0 -1.179189283E+02 -1.328916837E+02 -6.598184745E+01  2.270323269E+02  1.250000000E+02  0.00000E+00  9.000E+00
      21     1     1     2   511   502  1.218879838E+01 -3.777702899E+01  1.024251788E+02  1.098480221E+02  0.000000000E+00  0.00000E+00  9.000E+00
#rwgt            1           1  0.12998949425616249                1       71329           0
</event>
<event>
      5   9999  3.79277E-02  5.48434E+01 -1.00000E+00  1.36823E-01
      21    -1     0     0   502   501  0.000000000E+00  0.000000000E+00  3.956238223E+02  3.956238223E+02  0.000000000E+00  0.00000E+00  9.000E+00
      21    -1     0     0   512   502  0.000000000E+00  0.000000000E+00 -1.382471177E+02  1.382471177E+02  0.000000000E+00  0.00000E+00  9.000E+00
      25     1     1     2     0     0 -1.457346407E+02 -7.255964488E+00  1.714964174E+02  2.575407845E+02  1.250000000E+02  0.00000E+00  9.000E+00
      25     1     1     2     0     0  1.373104835E+02  6.144854342E+01  1.000395364E+02  2.196884185E+02  1.250000000E+02  0.00000E+00  9.000E+00
      21     1     1     2   512   501  8.424157243E+00 -5.419257893E+01 -1.415924915E+01  5.664173703E+01  1.590450295E-06  0.00000E+00  9.000E+00
#rwgt            1           1   3.4906895666816172E-002           1       71582           0
</event>
<event>
      5   9999  3.79277E-02  4.72101E+01 -1.00000E+00  1.40513E-01
      21    -1     0     0   502   501  0.000000000E+00  0.000000000E+00  6.364132241E+01  6.364132241E+01  0.000000000E+00  0.00000E+00  9.000E+00
      21    -1     0     0   501   511  0.000000000E+00  0.000000000E+00 -6.274687325E+02  6.274687325E+02  0.000000000E+00  0.00000E+00  9.000E+00
      25     1     1     2     0     0  5.769391268E+01  1.104882422E+02 -2.076745045E+02  2.725618077E+02  1.250000000E+02  0.00000E+00  9.000E+00
      25     1     1     2     0     0 -4.269297926E+01 -6.572477898E+01 -1.636366982E+02  2.203279511E+02  1.250000000E+02  0.00000E+00  9.000E+00
      21     1     1     2   502   511 -1.500093343E+01 -4.476346324E+01 -1.925162074E+02  1.982202960E+02  2.697398305E-06  0.00000E+00  9.000E+00
#rwgt            1           1   4.4240967097555657E-002           1       71761           0
</event>
<event>
      5   9999  3.79277E-02  1.65313E+02 -1.00000E+00  1.14745E-01
      21    -1     0     0   502   501  0.000000000E+00  0.000000000E+00  3.827150808E+02  3.827150808E+02  0.000000000E+00  0.00000E+00  9.000E+00
      21    -1     0     0   501   512  0.000000000E+00  0.000000000E+00 -6.010675607E+02  6.010675607E+02  0.000000000E+00  0.00000E+00  9.000E+00
      25     1     1     2     0     0 -5.475431765E+01  8.166700188E+01 -7.411841484E+01  1.754596076E+02  1.250000000E+02  0.00000E+00  9.000E+00
      25     1     1     2     0     0  2.190186352E+02 -6.307766249E+01  2.624063093E+02  3.693643530E+02  1.250000000E+02  0.00000E+00  9.000E+00
      21     1     1     2   502   512 -1.642643176E+02 -1.858933939E+01 -4.066403743E+02  4.389586809E+02  5.394796609E-06  0.00000E+00  9.000E+00
#rwgt            1           1   4.0569673734501092E-002           1       71872           0
</event>
<event>
      5   9999  3.79277E-02  2.22847E+01 -1.00000E+00  1.62584E-01
      21    -1     0     0   502   501  0.000000000E+00  0.000000000E+00  1.445934275E+02  1.445934275E+02  0.000000000E+00  0.00000E+00  9.000E+00
      21    -1     0     0   501   511  0.000000000E+00  0.000000000E+00 -3.641559512E+02  3.641559512E+02  0.000000000E+00  0.00000E+00  9.000E+00
      25     1     1     2     0     0  1.508113708E+01 -1.330292688E+02  2.771772385E+01  1.852498293E+02  1.250000000E+02  0.00000E+00  9.000E+00
      25     1     1     2     0     0  6.693398392E+00  1.377705259E+02 -2.169630354E+02  2.858731854E+02  1.250000000E+02  0.00000E+00  9.000E+00
      21     1     1     2   502   511 -2.177453548E+01 -4.741257089E+00 -3.031721219E+01  3.762636402E+01  4.768371582E-07  0.00000E+00  9.000E+00
#rwgt            1           1   3.6672234524711383E-002           1       71942           0
</event>
<event>
      5   9999  3.79277E-02  3.07442E+01 -1.00000E+00  1.52304E-01
      21    -1     0     0   502   501  0.000000000E+00  0.000000000E+00  3.770537756E+02  3.770537756E+02  0.000000000E+00  0.00000E+00  9.000E+00
      21    -1     0     0   512   502  0.000000000E+00  0.000000000E+00 -1.485738125E+02  1.485738125E+02  0.000000000E+00  0.00000E+00  9.000E+00
      25     1     1     2     0     0 -1.046584685E+02  8.901772135E+01  2.569523645E+02  3.170600375E+02  1.250000000E+02  0.00000E+00  9.000E+00
      25     1     1     2     0     0  9.923082681E+01 -5.875640622E+01 -5.448866784E+00  1.701580513E+02  1.250000000E+02  0.00000E+00  9.000E+00
      21     1     1     2   512   501  5.427641648E+00 -3.026131513E+01 -2.302353471E+01  3.840949932E+01  4.768371582E-07  0.00000E+00  9.000E+00
#rwgt            1           1   3.8595577750736874E-002           1       72210           0
</event>
<event>
      5   9999  3.79277E-02  5.24059E+01 -1.00000E+00  1.37921E-01
      21    -1     0     0   511   501  0.000000000E+00  0.000000000E+00  7.592288401E+02  7.592288401E+02  0.000000000E+00  0.00000E+00  9.000E+00
      21    -1     0     0   501   502  0.000000000E+00  0.000000000E+00 -1.526000249E+02  1.526000249E+02  0.000000000E+00  0.00000E+00  9.000E+00
      25     1     1     2     0     0  6.227835084E-01  5.805747254E+01 -1.022860831E+02  1.716347890E+02  1.250000000E+02  0.00000E+00  9.000E+00
      25     1     1     2     0     0 -1.262671945E+01 -7.044862246E+00  6.467930973E+02  6.589198547E+02  1.250000000E+02  0.00000E+00  9.000E+00
      21     1     1     2   511   502  1.200393594E+01 -5.101261030E+01  6.212180097E+01  8.127422127E+01  9.536743164E-07  0.00000E+00  9.000E+00
#rwgt            1           1   3.1482893033217788E-002           1       72407           0
</event>
<event>
      5   9999  3.79277E-02  1.52069E+01 -1.00000E+00  1.76825E-01
      21    -1     0     0   502   501  0.000000000E+00  0.000000000E+00  2.267500914E+02  2.267500914E+02  0.000000000E+00  0.00000E+00  9.000E+00
      21    -1     0     0   501   512  0.000000000E+00  0.000000000E+00 -2.788063196E+02  2.788063196E+02  0.000000000E+00  0.00000E+00  9.000E+00
      25     1     1     2     0     0 -1.821428089E+01 -6.524380002E+01  1.725177902E+02  2.235529052E+02  1.250000000E+02  0.00000E+00  9.000E+00
      25     1     1     2     0     0  2.396036077E+01  7.932333120E+01 -2.197540412E+02  2.660509883E+02  1.250000000E+02  0.00000E+00  9.000E+00
      21     1     1     2   502   512 -5.746079876E+00 -1.407953118E+01 -4.819977270E+00  1.595251745E+01  3.674277069E-07  0.00000E+00  9.000E+00
#rwgt            1           1   4.5995595277827310E-002           1       72507           0
</event>
<event>
      5   9999  3.79277E-02  6.27944E+01 -1.00000E+00  1.33655E-01
      21    -1     0     0   502   501  0.000000000E+00  0.000000000E+00  7.243254691E+02  7.243254691E+02  0.000000000E+00  0.00000E+00  9.000E+00
      21    -1     0     0   501   511  0.000000000E+00  0.000000000E+00 -1.713220959E+02  1.713220959E+02  0.000000000E+00  0.00000E+00  9.000E+00
      25     1     1     2     0     0  8.485741056E+01  8.865151507E+01  9.815724348E+01  2.007976984E+02  1.250000000E+02  0.00000E+00  9.000E+00
      25     1     1     2     0     0 -1.155864686E+02 -3.388970316E+01  5.522884821E+02  5.789268616E+02  1.250000000E+02  0.00000E+00  9.000E+00
      21     1     1     2   502   511  3.072905805E+01 -5.476181191E+01 -9.744235230E+01  1.159230049E+02  1.907348633E-06  0.00000E+00  9.000E+00
#rwgt            1           1   4.0432427213494430E-002           1       72718           0
</event>
<event>
      5   9999  3.79277E-02  1.82125E+01 -1.00000E+00  1.69795E-01
      21    -1     0     0   502   501  0.000000000E+00  0.000000000E+00  2.851668217E+02  2.851668217E+02  0.000000000E+00  0.00000E+00  9.000E+00
      21    -1     0     0   501   512  0.000000000E+00  0.000000000E+00 -2.441820631E+02  2.441820631E+02  0.000000000E+00  0.00000E+00  9.000E+00
      25     1     1     2     0     0 -1.128267939E+02  8.168061192E+01 -7.764809863E+01  2.026223951E+02  1.250000000E+02  0.00000E+00  9.000E+00
      25     1     1     2     0     0  9.474017076E+01 -7.954282110E+01  1.865699576E+02  2.563905408E+02  1.250000000E+02  0.00000E+00  9.000E+00
      21     1     1     2   502   512  1.808662319E+01 -2.137790820E+00 -6.793710039E+01  7.033594883E+01  9.536743164E-07  0.00000E+00  9.000E+00
#rwgt            1           1   3.5807620810024920E-002           1       72969           0
</event>
<event>
      5   9999  3.79277E-02  9.34444E+01 -1.00000E+00  1.25167E-01
      21    -1     0     0   502   501  0.000000000E+00  0.000000000E+00  5.973138735E+02  5.973138735E+02  0.000000000E+00  0.00000E+00  9.000E+00
      21    -1     0     0   511   502  0.000000000E+00  0.000000000E+00 -1.000190814E+02  1.000190814E+02  0.000000000E+00  0.00000E+00  9.000E+00
      25     1     1     2     0     0 -3.318759727E+01 -1.692555380E+01  1.127947603E+02  1.724399865E+02  1.250000000E+02  0.00000E+00  9.000E+00
      25     1     1     2     0     0 -7.842257489E+00  1.008803458E+02  3.991287145E+02  4.303104413E+02  1.250000000E+02  0.00000E+00  9.000E+00
      21     1     1     2   511   501  4.102985475E+01 -8.395479197E+01 -1.462868270E+01  9.458252710E+01  2.790617922E-06  0.00000E+00  9.000E+00
#rwgt            1           1   3.0006785054049804E-002           1       73180           0
</event>
<event>
      5   9999  3.79277E-02  6.38351E+01 -1.00000E+00  1.33281E-01
      21    -1     0     0   502   501  0.000000000E+00  0.000000000E+00  3.671629561E+02  3.671629561E+02  0.000000000E+00  0.00000E+00  9.000E+00
      21    -1     0     0   501   512  0.000000000E+00  0.000000000E+00 -3.893112843E+02  3.893112843E+02  0.000000000E+00  0.00000E+00  9.000E+00
      25     1     1     2     0     0 -1.376418302E+01 -1.568714611E+02  2.504603932E+02  3.211752117E+02  1.250000000E+02  0.00000E+00  9.000E+00
      25     1     1     2     0     0  4.397512485E+01  1.006378130E+02 -1.182165315E+01  1.668128667E+02  1.250000000E+02  0.00000E+00  9.000E+00
      21     1     1     2   502   512 -3.021094183E+01  5.623364808E+01 -2.607870682E+02  2.684861619E+02  3.814697266E-06  0.00000E+00  9.000E+00
#rwgt            1           1   3.9779743625119213E-002           1       73320           0
</event>
<event>
      5   9999  3.79277E-02  1.05087E+02 -1.00000E+00  1.22866E-01
      21    -1     0     0   502   501  0.000000000E+00  0.000000000E+00  2.728121685E+02  2.728121685E+02  0.000000000E+00  0.00000E+00  9.000E+00
      -4    -1     0     0     0   502  0.000000000E+00  0.000000000E+00 -7.042483181E+02  7.042483181E+02  0.000000000E+00  0.00000E+00  9.000E+00
      25     1     1     2     0     0 -1.161352384E+02 -1.132459225E+02  2.449000546E+01  2.062444979E+02  1.250000000E+02  0.00000E+00  9.000E+00
      25     1     1     2     0     0  2.863584962E+01  1.714458433E+02  7.707761586E+01  2.275514182E+02  1.250000000E+02  0.00000E+00  9.000E+00
      -4     1     1     2     0   501  8.749938874E+01 -5.819992078E+01 -5.330037709E+02  5.432645706E+02  7.629394531E-06  0.00000E+00  9.000E+00
#rwgt            1           1   3.2160921712105349E-002           1       73399           0
</event>
<event>
      5   9999 -3.79277E-02  3.22387E+01 -1.00000E+00  1.50900E-01
      21    -1     0     0   511   501  0.000000000E+00  0.000000000E+00  1.740301619E+03  1.740301619E+03  0.000000000E+00  0.00000E+00  9.000E+00
      21    -1     0     0   501   502  0.000000000E+00  0.000000000E+00 -3.829448058E+02  3.829448058E+02  0.000000000E+00  0.00000E+00  9.000E+00
      25     1     1     2     0     0 -1.872857507E+02  3.116864045E+02  3.421543537E+00  3.845270785E+02  1.250000000E+02  0.00000E+00  9.000E+00
      25     1     1     2     0     0  1.913516853E+02 -2.797050931E+02 -2.249312739E+01  3.619134528E+02  1.250000000E+02  0.00000E+00  9.000E+00
      21     1     1     2   511   502 -4.065934557E+00 -3.198131137E+01  1.376428397E+03  1.376805893E+03  1.525878906E-05  0.00000E+00  9.000E+00
#rwgt            1           1 -0.10638750803954930                1       73479           0
</event>
<event>
      5   9999  3.79277E-02  1.05164E+01 -1.00000E+00  1.93263E-01
      21    -1     0     0   512   501  0.000000000E+00  0.000000000E+00  2.778385345E+02  2.778385345E+02  0.000000000E+00  0.00000E+00  9.000E+00
      21    -1     0     0   501   502  0.000000000E+00  0.000000000E+00 -2.520868137E+02  2.520868137E+02  0.000000000E+00  0.00000E+00  9.000E+00
      25     1     1     2     0     0 -5.762736548E+01 -3.456431868E+01 -2.003570830E+02  2.455271188E+02  1.250000000E+02  0.00000E+00  9.000E+00
      25     1     1     2     0     0  4.730897280E+01  3.659551143E+01  1.376620662E+02  1.953284793E+02  1.250000000E+02  0.00000E+00  9.000E+00
      21     1     1     2   512   502  1.031839268E+01 -2.031192742E+00  8.844673768E+01  8.906975007E+01  0.000000000E+00  0.00000E+00  9.000E+00
#rwgt            1           1   1.3328414577268403E-002           1       73614           0
</event>
<event>
      5   9999  3.79277E-02  2.23427E+01 -1.00000E+00  1.62495E-01
      21    -1     0     0   502   501  0.000000000E+00  0.000000000E+00  8.158922634E+02  8.158922634E+02  0.000000000E+00  0.00000E+00  9.000E+00
      21    -1     0     0   501   511  0.000000000E+00  0.000000000E+00 -9.506561392E+01  9.506561392E+01  0.000000000E+00  0.00000E+00  9.000E+00
      25     1     1     2     0     0  1.268485038E+02 -1.355990537E+02  1.835823841E+02  2.894911709E+02  1.250000000E+02  0.00000E+00  9.000E+00
      25     1     1     2     0     0 -1.491518885E+02  1.369245311E+02  5.474327614E+02  5.969105807E+02  1.250000000E+02  0.00000E+00  9.000E+00
      21     1     1     2   502   511  2.230338468E+01 -1.325477381E+00 -1.018849602E+01  2.455612571E+01  2.665600750E-07  0.00000E+00  9.000E+00
#rwgt            1           1  0.14047766513257845                1       73844           0
</event>
<event>
      5   9999  3.79277E-02  1.02540E+02 -1.00000E+00  1.23340E-01
      21    -1     0     0   502   501  0.000000000E+00  0.000000000E+00  2.330321422E+03  2.330321422E+03  0.000000000E+00  0.00000E+00  9.000E+00
      21    -1     0     0   512   502  0.000000000E+00  0.000000000E+00 -1.526498167E+02  1.526498167E+02  0.000000000E+00  0.00000E+00  9.000E+00
      25     1     1     2     0     0  2.376876821E+02 -8.870500395E+01  1.558778788E+03  1.584228621E+03  1.250000000E+02  0.00000E+00  9.000E+00
      25     1     1     2     0     0 -2.557513581E+02 -1.223178938E+01  7.078183634E+02  7.630138986E+02  1.250000000E+02  0.00000E+00  9.000E+00
      21     1     1     2   512   501  1.806367601E+01  1.009367933E+02 -8.892554594E+01  1.357287197E+02  4.573661350E-06  0.00000E+00  9.000E+00
#rwgt            1           1  0.22631263361602960                1       74118           0
</event>
<event>
      5   9999  3.79277E-02  4.56750E+01 -1.00000E+00  1.41355E-01
      21    -1     0     0   502   501  0.000000000E+00  0.000000000E+00  7.205881314E+01  7.205881314E+01  0.000000000E+00  0.00000E+00  9.000E+00
       2    -1     0     0   501     0  0.000000000E+00  0.000000000E+00 -1.778450846E+03  1.778450846E+03  0.000000000E+00  0.00000E+00  9.000E+00
      25     1     1     2     0     0 -5.349356121E+01  5.668094630E+01 -1.680833669E+02  2.234978948E+02  1.250000000E+02  0.00000E+00  9.000E+00
      25     1     1     2     0     0  5.994926982E+01 -1.018973972E+02 -1.242760959E+02  2.122417078E+02  1.250000000E+02  0.00000E+00  9.000E+00
       2     1     1     2   502     0 -6.455708613E+00  4.521645094E+01 -1.414032570E+03  1.414770056E+03  1.525878906E-05  0.00000E+00  9.000E+00
#rwgt            1           1   4.8980036370244208E-002           1       74240           0
</event>
<event>
      5   9999  3.79277E-02  4.30906E+01 -1.00000E+00  1.42864E-01
      21    -1     0     0   511   501  0.000000000E+00  0.000000000E+00  1.249335674E+03  1.249335674E+03  0.000000000E+00  0.00000E+00  9.000E+00
      21    -1     0     0   501   502  0.000000000E+00  0.000000000E+00 -7.802466505E+01  7.802466505E+01  0.000000000E+00  0.00000E+00  9.000E+00
      25     1     1     2     0     0  2.340818498E+01 -1.567037162E+02  1.072865181E+02  2.285593900E+02  1.250000000E+02  0.00000E+00  9.000E+00
      25     1     1     2     0     0 -3.872038547E+01  1.164254571E+02  4.442816177E+02  4.775618401E+02  1.250000000E+02  0.00000E+00  9.000E+00
      21     1     1     2   511   502  1.531220048E+01  4.027825915E+01  6.197428727E+02  6.212391085E+02  1.321449896E-05  0.00000E+00  9.000E+00
#rwgt            1           1   4.3703275002529102E-002           1       74418           0
</event>
<event>
      5   9999  3.79277E-02  5.07152E+01 -1.00000E+00  1.38724E-01
      21    -1     0     0   512   501  0.000000000E+00  0.000000000E+00  3.847441262E+01  3.847441262E+01  0.000000000E+00  0.00000E+00  9.000E+00
      21    -1     0     0   501   502  0.000000000E+00  0.000000000E+00 -2.786298354E+03  2.786298354E+03  0.000000000E+00  0.00000E+00  9.000E+00
      25     1     1     2     0     0 -1.544492652E+02  1.353734690E+02 -9.683477012E+02  9.977488772E+02  1.250000000E+02  0.00000E+00  9.000E+00
      25     1     1     2     0     0  1.462271883E+02 -1.854177776E+02 -1.745843356E+03  1.766169915E+03  1.250000000E+02  0.00000E+00  9.000E+00
      21     1     1     2   512   502  8.222076861E+00  5.004430864E+01 -3.363288421E+01  6.085397501E+01  1.430511475E-06  0.00000E+00  9.000E+00
#rwgt            1           1   4.7340923577594701E-002           1       74595           0
</event>
<event>
      5   9999  3.79277E-02  8.10761E+01 -1.00000E+00  1.28069E-01
      21    -1     0     0   502   511  0.000000000E+00  0.000000000E+00  9.620188334E+02  9.620188334E+02  0.000000000E+00  0.00000E+00  9.000E+00
      21    -1     0     0   501   502  0.000000000E+00  0.000000000E+00 -3.853724837E+02  3.853724837E+02  0.000000000E+00  0.00000E+00  9.000E+00
      25     1     1     2     0     0 -1.217790627E+02  1.033975281E+01 -2.157327494E+02  2.776736749E+02  1.250000000E+02  0.00000E+00  9.000E+00
      25     1     1     2     0     0  9.672157017E+01  6.676703926E+01 -8.299708390E+01  1.905948992E+02  1.250000000E+02  0.00000E+00  9.000E+00
      21     1     1     2   501   511  2.505749256E+01 -7.710679207E+01  8.753761830E+02  8.791227429E+02  1.078959322E-05  0.00000E+00  9.000E+00
#rwgt            1           1   4.0872526358049402E-002           1       74807           0
</event>
<event>
      5   9999  3.79277E-02  5.65140E+00 -1.00000E+00  2.29586E-01
      21    -1     0     0   502   512  0.000000000E+00  0.000000000E+00  1.186981778E+02  1.186981778E+02  0.000000000E+00  0.00000E+00  9.000E+00
      21    -1     0     0   501   502  0.000000000E+00  0.000000000E+00 -1.052954046E+03  1.052954046E+03  0.000000000E+00  0.00000E+00  9.000E+00
      25     1     1     2     0     0 -9.148964148E+01  2.392074895E+02 -8.118354956E+02  8.604024927E+02  1.250000000E+02  0.00000E+00  9.000E+00
      25     1     1     2     0     0  8.794704092E+01 -2.348042759E+02 -1.220203650E+02  3.055841938E+02  1.250000000E+02  0.00000E+00  9.000E+00
      21     1     1     2   501   512  3.542600556E+00 -4.403213551E+00 -4.000075948E-01  5.665537428E+00  9.048698695E-08  0.00000E+00  9.000E+00
#rwgt            1           1   4.0240712178694529E-002           1       75014           0
</event>
<event>
      5   9999  3.79277E-02  1.63702E+02 -1.00000E+00  1.14909E-01
      21    -1     0     0   511   501  0.000000000E+00  0.000000000E+00  6.114466947E+02  6.114466947E+02  0.000000000E+00  0.00000E+00  9.000E+00
      21    -1     0     0   501   502  0.000000000E+00  0.000000000E+00 -4.173789288E+02  4.173789288E+02  0.000000000E+00  0.00000E+00  9.000E+00
      25     1     1     2     0     0  1.959496828E+01  5.057543863E+01 -4.982887519E+00  1.363512631E+02  1.250000000E+02  0.00000E+00  9.000E+00
      25     1     1     2     0     0  1.404129391E+02 -1.599627388E+01 -3.071460945E+02  3.604655290E+02  1.250000000E+02  0.00000E+00  9.000E+00
      21     1     1     2   511   502 -1.600079074E+02 -3.457916474E+01  5.061967479E+02  5.320088314E+02  7.629394531E-06  0.00000E+00  9.000E+00
#rwgt            2          11   3.9175667451581868E-003           1       75505           0
</event>
<event>
      5   9999  3.79277E-02  5.04952E+01 -1.00000E+00  1.38832E-01
       2    -1     0     0   502     0  0.000000000E+00  0.000000000E+00  5.843149465E+02  5.843149465E+02  0.000000000E+00  0.00000E+00  9.000E+00
      21    -1     0     0   501   502  0.000000000E+00  0.000000000E+00 -2.704989575E+02  2.704989575E+02  0.000000000E+00  0.00000E+00  9.000E+00
      25     1     1     2     0     0  4.557097051E+01  9.423589138E+01 -1.201873577E+02  2.025515182E+02  1.250000000E+02  0.00000E+00  9.000E+00
      25     1     1     2     0     0 -2.536663055E+01 -1.405128275E+02 -2.418138634E+01  1.913035809E+02  1.250000000E+02  0.00000E+00  9.000E+00
       2     1     1     2   501     0 -2.020433996E+01  4.627693608E+01  4.581847330E+02  4.609588048E+02  0.000000000E+00  0.00000E+00  9.000E+00
#rwgt            1           1   3.9601249662451606E-002           1       75570           0
</event>
<event>
      5   9999  3.79277E-02  2.49383E+01 -1.00000E+00  1.58831E-01
      21    -1     0     0   502   501  0.000000000E+00  0.000000000E+00  2.137708517E+01  2.137708517E+01  0.000000000E+00  0.00000E+00  9.000E+00
      21    -1     0     0   511   502  0.000000000E+00  0.000000000E+00 -2.069700471E+03  2.069700471E+03  0.000000000E+00  0.00000E+00  9.000E+00
      25     1     1     2     0     0 -1.113607903E+02 -3.788728841E+01 -1.146092300E+03  1.158874123E+03  1.250000000E+02  0.00000E+00  9.000E+00
      25     1     1     2     0     0  1.352687640E+02  3.079319633E+01 -5.869876948E+02  6.159751727E+02  1.250000000E+02  0.00000E+00  9.000E+00
      21     1     1     2   511   501 -2.390797364E+01  7.094092072E+00 -3.152433909E+02  3.162282607E+02  5.394796609E-06  0.00000E+00  9.000E+00
#rwgt            1           1   3.6967340897218905E-002           1       75735           0
</event>
<event>
      5   9999 -3.79277E-02  1.16319E+02 -1.00000E+00  1.20945E-01
      21    -1     0     0   512   501  0.000000000E+00  0.000000000E+00  1.740994187E+03  1.740994187E+03  0.000000000E+00  0.00000E+00  9.000E+00
      21    -1     0     0   501   502  0.000000000E+00  0.000000000E+00 -1.923849766E+02  1.923849766E+02  0.000000000E+00  0.00000E+00  9.000E+00
      25     1     1     2     0     0  2.266463211E+02  3.332159914E+02  2.643991622E+02  4.979290800E+02  1.250000000E+02  0.00000E+00  9.000E+00
      25     1     1     2     0     0 -3.420889480E+02 -3.474677549E+02  8.690881280E+02  1.004339516E+03  1.250000000E+02  0.00000E+00  9.000E+00
      21     1     1     2   512   502  1.154426269E+02  1.425176357E+01  4.151219198E+02  4.311105672E+02  5.394796609E-06  0.00000E+00  9.000E+00
#rwgt            1           1  -1.4513945097127039                1       75874           0
</event>
<event>
      5   9999  3.79277E-02  1.26910E+02 -1.00000E+00  1.19345E-01
      21    -1     0     0   511   501  0.000000000E+00  0.000000000E+00  1.965991763E+03  1.965991763E+03  0.000000000E+00  0.00000E+00  9.000E+00
      21    -1     0     0   501   502  0.000000000E+00  0.000000000E+00 -3.214004667E+02  3.214004667E+02  0.000000000E+00  0.00000E+00  9.000E+00
      25     1     1     2     0     0 -7.226965090E+01  1.710967780E+02  8.099053956E+02  8.402789773E+02  1.250000000E+02  0.00000E+00  9.000E+00
      25     1     1     2     0     0 -5.347334912E+01 -1.539267981E+02 -2.677239208E+02  3.374225185E+02  1.250000000E+02  0.00000E+00  9.000E+00
      21     1     1     2   511   502  1.257430000E+02 -1.716997984E+01  1.102409821E+03  1.109690733E+03  0.000000000E+00  0.00000E+00  9.000E+00
#rwgt            2          11   2.6608813572190477E-003           1       76147           0
</event>
<event>
      5   9999  3.79277E-02  4.62924E+01 -1.00000E+00  1.41012E-01
      21    -1     0     0   502   501  0.000000000E+00  0.000000000E+00  7.798754705E+01  7.798754705E+01  0.000000000E+00  0.00000E+00  9.000E+00
       1    -1     0     0   501     0  0.000000000E+00  0.000000000E+00 -1.396879650E+03  1.396879650E+03  0.000000000E+00  0.00000E+00  9.000E+00
      25     1     1     2     0     0 -2.249178555E+01 -2.100121703E+02 -2.104365390E+02  3.232948021E+02  1.250000000E+02  0.00000E+00  9.000E+00
      25     1     1     2     0     0 -2.132998151E+01  2.249333049E+02 -8.282088019E+02  8.675279704E+02  1.250000000E+02  0.00000E+00  9.000E+00
       1     1     1     2   502     0  4.382176706E+01 -1.492113460E+01 -2.802467625E+02  2.840444250E+02  5.394796609E-06  0.00000E+00  9.000E+00
#rwgt            1           1   3.4435642214832890E-002           1       76197           0
</event>
<event>
      5   9999  3.79277E-02  3.18272E+01 -1.00000E+00  1.51278E-01
      21    -1     0     0   502   511  0.000000000E+00  0.000000000E+00  7.093845743E+01  7.093845743E+01  0.000000000E+00  0.00000E+00  9.000E+00
      21    -1     0     0   501   502  0.000000000E+00  0.000000000E+00 -1.344912048E+03  1.344912048E+03  0.000000000E+00  0.00000E+00  9.000E+00
      25     1     1     2     0     0  1.680074901E+02 -6.358374438E+01 -1.075856848E+03  1.097889961E+03  1.250000000E+02  0.00000E+00  9.000E+00
      25     1     1     2     0     0 -1.726968682E+02  3.210390874E+01 -1.827115691E+02  2.826011088E+02  1.250000000E+02  0.00000E+00  9.000E+00
      21     1     1     2   501   511  4.689378099E+00  3.147983563E+01 -1.540517376E+01  3.535943576E+01  6.529361695E-07  0.00000E+00  9.000E+00
#rwgt            1           1   2.7090264900283087E-002           1       76302           0
</event>
<event>
      5   9999  3.79277E-02  2.16812E+01 -1.00000E+00  1.63528E-01
      21    -1     0     0   502   501  0.000000000E+00  0.000000000E+00  1.614776879E+03  1.614776879E+03  0.000000000E+00  0.00000E+00  9.000E+00
       2    -1     0     0   501     0  0.000000000E+00  0.000000000E+00 -8.152671180E+02  8.152671180E+02  0.000000000E+00  0.00000E+00  9.000E+00
      25     1     1     2     0     0  2.825094425E+01  6.135827055E+01  1.254289902E+02  1.895267390E+02  1.250000000E+02  0.00000E+00  9.000E+00
      25     1     1     2     0     0 -4.975221689E+01 -5.857099081E+01  1.453454254E+03  1.460842261E+03  1.250000000E+02  0.00000E+00  9.000E+00
       2     1     1     2   502     0  2.150127264E+01 -2.787279747E+00 -7.793734834E+02  7.796749966E+02  1.078959322E-05  0.00000E+00  9.000E+00
#rwgt            1           1   4.6398737098911805E-002           1       76479           0
</event>
<event>
      5   9999  3.93927E-02  4.40791E+00 -1.00000E+00  2.53914E-01
      21    -1     0     0   502   501  0.000000000E+00  0.000000000E+00  1.193000495E+02  1.193000495E+02  0.000000000E+00  0.00000E+00  9.000E+00
      21    -1     0     0   501   511  0.000000000E+00  0.000000000E+00 -1.073463212E+03  1.073463212E+03  0.000000000E+00  0.00000E+00  9.000E+00
      25     1     1     2     0     0 -1.886200784E+02  9.581608446E+01 -5.018321650E+02  5.587654050E+02  1.250000000E+02  0.00000E+00  9.000E+00
      25     1     1     2     0     0  1.898847186E+02 -9.159348758E+01 -7.453451014E+01  2.561756556E+02  1.250000000E+02  0.00000E+00  9.000E+00
      21     1     1     2   502   511 -1.264640213E+00 -4.222596878E+00 -3.777964876E+02  3.778222012E+02  5.394796609E-06  0.00000E+00  9.000E+00
#rwgt            1           1  0.34306151917700700                1       76637           0
</event>
<event>
      5   9999  3.79277E-02  5.03318E+01 -1.00000E+00  1.38912E-01
      21    -1     0     0   502   512  0.000000000E+00  0.000000000E+00  7.941065980E+01  7.941065980E+01  0.000000000E+00  0.00000E+00  9.000E+00
      21    -1     0     0   501   502  0.000000000E+00  0.000000000E+00 -1.010811814E+03  1.010811814E+03  0.000000000E+00  0.00000E+00  9.000E+00
      25     1     1     2     0     0 -1.597091997E+02  4.588905857E+01 -7.893800097E+02  8.163079284E+02  1.250000000E+02  0.00000E+00  9.000E+00
      25     1     1     2     0     0  1.143518127E+02 -2.407159291E+01 -6.741332925E+01  1.839166540E+02  1.250000000E+02  0.00000E+00  9.000E+00
      21     1     1     2   501   512  4.535738703E+01 -2.181746566E+01 -7.460781514E+01  8.999789135E+01  1.348699152E-06  0.00000E+00  9.000E+00
#rwgt            1           1   5.5636981155099248E-002           1       77090           0
</event>
<event>
      5   9999  3.79277E-02  1.33993E+01 -1.00000E+00  1.82129E-01
      21    -1     0     0   502   511  0.000000000E+00  0.000000000E+00  3.274266086E+02  3.274266086E+02  0.000000000E+00  0.00000E+00  9.000E+00
      21    -1     0     0   501   502  0.000000000E+00  0.000000000E+00 -1.224335403E+02  1.224335403E+02  0.000000000E+00  0.00000E+00  9.000E+00
      25     1     1     2     0     0  1.051303624E+02 -3.756328120E+01  9.484282835E+01  1.925709098E+02  1.250000000E+02  0.00000E+00  9.000E+00
      25     1     1     2     0     0 -9.173272535E+01  3.735296955E+01  1.387539397E+01  1.600864260E+02  1.250000000E+02  0.00000E+00  9.000E+00
      21     1     1     2   501   511 -1.339763706E+01  2.103116418E-01  9.627484595E+01  9.720281308E+01  1.348699152E-06  0.00000E+00  9.000E+00
#rwgt            1           1   3.6970744870695307E-002           1       77303           0
</event>
<event>
      5   9999  3.79277E-02  3.35204E+01 -1.00000E+00  1.49767E-01
      21    -1     0     0   502   501  0.000000000E+00  0.000000000E+00  1.097483056E+03  1.097483056E+03  0.000000000E+00  0.00000E+00  9.000E+00
      21    -1     0     0   512   502  0.000000000E+00  0.000000000E+00 -7.070428583E+01  7.070428583E+01  0.000000000E+00  0.00000E+00  9.000E+00
      25     1     1     2     0     0  1.139941445E+02 -1.544391595E+02  6.150264270E+02  6.562991885E+02  1.250000000E+02  0.00000E+00  9.000E+00
      25     1     1     2     0     0 -1.438539122E+02  1.392073223E+02  4.158164555E+02  4.781223183E+02  1.250000000E+02  0.00000E+00  9.000E+00
      21     1     1     2   512   501  2.985976770E+01  1.523183720E+01 -4.064112483E+00  3.376583483E+01  9.405454301E-07  0.00000E+00  9.000E+00
#rwgt            1           1   3.7779110636146356E-002           1       77552           0
</event>
<event>
      5   9999  3.79277E-02  2.03129E+01 -1.00000E+00  1.65815E-01
      21    -1     0     0   502   501  0.000000000E+00  0.000000000E+00  2.350963310E+02  2.350963310E+02  0.000000000E+00  0.00000E+00  9.000E+00
      -1    -1     0     0     0   502  0.000000000E+00  0.000000000E+00 -1.841831391E+02  1.841831391E+02  0.000000000E+00  0.00000E+00  9.000E+00
      25     1     1     2     0     0  7.391418330E+01  2.500018673E+01 -3.775486662E+01  1.521142524E+02  1.250000000E+02  0.00000E+00  9.000E+00
      25     1     1     2     0     0 -7.748397563E+01 -5.003423953E+00  1.454224731E+02  2.068852252E+02  1.250000000E+02  0.00000E+00  9.000E+00
      -1     1     1     2     0   501  3.569792330E+00 -1.999676277E+01 -5.675441452E+01  6.027999259E+01  6.743495762E-07  0.00000E+00  9.000E+00
#rwgt            1           1   4.7633726766517739E-002           1       77685           0
</event>
<event>
      5   9999  3.79277E-02  5.48604E+01 -1.00000E+00  1.36815E-01
      21    -1     0     0   502   501  0.000000000E+00  0.000000000E+00  1.455072024E+02  1.455072024E+02  0.000000000E+00  0.00000E+00  9.000E+00
      21    -1     0     0   511   502  0.000000000E+00  0.000000000E+00 -4.442385171E+02  4.442385171E+02  0.000000000E+00  0.00000E+00  9.000E+00
      25     1     1     2     0     0  1.256706980E+01 -1.691247936E+02 -2.099390621E+02  2.974231612E+02  1.250000000E+02  0.00000E+00  9.000E+00
      25     1     1     2     0     0 -3.754681645E+01  1.202813832E+02  1.165390836E+01  1.778712685E+02  1.250000000E+02  0.00000E+00  9.000E+00
      21     1     1     2   511   501  2.497974665E+01  4.884341037E+01 -1.004461610E+02  1.144512898E+02  1.348699152E-06  0.00000E+00  9.000E+00
#rwgt            1           1   3.2290569343687583E-002           1       77849           0
</event>
<event>
      5   9999  3.79277E-02  5.49111E+01 -1.00000E+00  1.36793E-01
      21    -1     0     0   512   501  0.000000000E+00  0.000000000E+00  1.155296073E+02  1.155296073E+02  0.000000000E+00  0.00000E+00  9.000E+00
      21    -1     0     0   501   502  0.000000000E+00  0.000000000E+00 -6.687259331E+02  6.687259331E+02  0.000000000E+00  0.00000E+00  9.000E+00
      25     1     1     2     0     0 -8.288088935E+01  1.228715726E+02 -5.128938673E+02  5.483172296E+02  1.250000000E+02  0.00000E+00  9.000E+00
      25     1     1     2     0     0  2.797122909E+01 -1.224746745E+02 -3.614678437E+01  1.808701898E+02  1.250000000E+02  0.00000E+00  9.000E+00
      21     1     1     2   512   502  5.490966026E+01 -3.968981036E-01 -4.155674160E+00  5.506812096E+01  7.794318694E-07  0.00000E+00  9.000E+00
#rwgt            1           1   3.5279931693995716E-002           1       78018           0
</event>
<event>
      5   9999  3.79277E-02  1.21789E+01 -1.00000E+00  1.86355E-01
      21    -1     0     0   511   501  0.000000000E+00  0.000000000E+00  9.992015426E+02  9.992015426E+02  0.000000000E+00  0.00000E+00  9.000E+00
      21    -1     0     0   501   502  0.000000000E+00  0.000000000E+00 -3.695028487E+01  3.695028487E+01  0.000000000E+00  0.00000E+00  9.000E+00
      25     1     1     2     0     0  1.193906008E+02 -2.013614889E+01  6.493228362E+02  6.722385928E+02  1.250000000E+02  0.00000E+00  9.000E+00
      25     1     1     2     0     0 -1.102669151E+02  2.820353900E+01  2.639761886E+02  3.134687549E+02  1.250000000E+02  0.00000E+00  9.000E+00
      21     1     1     2   511   502 -9.123685788E+00 -8.067390114E+00  4.895223303E+01  5.044447982E+01  0.000000000E+00  0.00000E+00  9.000E+00
#rwgt            1           1   7.7259359918592022E-002           1       78231           0
</event>
<event>
      5   9999  3.79277E-02  1.40999E+01 -1.00000E+00  1.79953E-01
      21    -1     0     0   502   512  0.000000000E+00  0.000000000E+00  6.922335276E+02  6.922335276E+02  0.000000000E+00  0.00000E+00  9.000E+00
      21    -1     0     0   501   502  0.000000000E+00  0.000000000E+00 -8.706842699E+01  8.706842699E+01  0.000000000E+00  0.00000E+00  9.000E+00
      25     1     1     2     0     0  1.268590450E+02 -1.092319262E+01  1.379318408E+02  2.255276616E+02  1.250000000E+02  0.00000E+00  9.000E+00
      25     1     1     2     0     0 -1.234102941E+02  2.459483472E+01  1.392830532E+02  2.255211199E+02  1.250000000E+02  0.00000E+00  9.000E+00
      21     1     1     2   501   512 -3.448750904E+00 -1.367164210E+01  3.279502065E+02  3.282531731E+02  3.814697266E-06  0.00000E+00  9.000E+00
#rwgt            1           1   3.1470307900443938E-002           1       78655           0
</event>
<event>
      5   9999 -3.79277E-02  1.46427E+02 -1.00000E+00  1.16810E-01
      21    -1     0     0   502   501  0.000000000E+00  0.000000000E+00  1.097687746E+03  1.097687746E+03  0.000000000E+00  0.00000E+00  9.000E+00
      21    -1     0     0   511   502  0.000000000E+00  0.000000000E+00 -1.531651624E+02  1.531651624E+02  0.000000000E+00  0.00000E+00  9.000E+00
      25     1     1     2     0     0  3.051739033E+01  3.551186182E+02  4.152538816E+02  5.613388729E+02  1.250000000E+02  0.00000E+00  9.000E+00
      25     1     1     2     0     0  6.033337982E+01 -2.402843511E+02  4.329631930E+02  5.142555907E+02  1.250000000E+02  0.00000E+00  9.000E+00
      21     1     1     2   511   501 -9.085077015E+01 -1.148342672E+02  9.630550895E+01  1.752584446E+02  2.336015456E-06  0.00000E+00  9.000E+00
#rwgt            1           1 -0.25045494234900684                1       78917           0
</event>
<event>
      5   9999  3.79277E-02  2.27542E+01 -1.00000E+00  1.61875E-01
      21    -1     0     0   512   501  0.000000000E+00  0.000000000E+00  1.739826512E+02  1.739826512E+02  0.000000000E+00  0.00000E+00  9.000E+00
      21    -1     0     0   501   502  0.000000000E+00  0.000000000E+00 -2.870452601E+02  2.870452601E+02  0.000000000E+00  0.00000E+00  9.000E+00
      25     1     1     2     0     0  7.172860845E+00  3.588497936E+01 -2.285084776E+02  2.630214935E+02  1.250000000E+02  0.00000E+00  9.000E+00
      25     1     1     2     0     0  2.353811607E+00 -5.654882533E+01  9.122298690E+01  1.647723988E+02  1.250000000E+02  0.00000E+00  9.000E+00
      21     1     1     2   512   502 -9.526672452E+00  2.066384597E+01  2.422288181E+01  3.323401904E+01  7.539457465E-07  0.00000E+00  9.000E+00
#rwgt            1           1   4.0339086079624692E-002           1       78965           0
</event>
<event>
      5   9999  3.79277E-02  8.63277E+01 -1.00000E+00  1.26769E-01
      21    -1     0     0   511   501  0.000000000E+00  0.000000000E+00  4.577700146E+01  4.577700146E+01  0.000000000E+00  0.00000E+00  9.000E+00
      21    -1     0     0   501   502  0.000000000E+00  0.000000000E+00 -1.905091460E+03  1.905091460E+03  0.000000000E+00  0.00000E+00  9.000E+00
      25     1     1     2     0     0 -3.951808797E+01  1.549883172E+02 -1.482315255E+03  1.496150585E+03  1.250000000E+02  0.00000E+00  9.000E+00
      25     1     1     2     0     0 -1.234258339E+01 -8.597426965E+01 -3.103083272E+02  3.456301091E+02  1.250000000E+02  0.00000E+00  9.000E+00
      21     1     1     2   511   502  5.186067136E+01 -6.901404758E+01 -6.669087636E+01  1.090877674E+02  0.000000000E+00  0.00000E+00  9.000E+00
#rwgt            1           1   4.1837674164825228E-002           1       79162           0
</event>
<event>
      5   9999  3.79277E-02  1.54075E+02 -1.00000E+00  1.15934E-01
      21    -1     0     0   502   512  0.000000000E+00  0.000000000E+00  4.783922474E+02  4.783922474E+02  0.000000000E+00  0.00000E+00  9.000E+00
      21    -1     0     0   501   502  0.000000000E+00  0.000000000E+00 -2.104525551E+02  2.104525551E+02  0.000000000E+00  0.00000E+00  9.000E+00
      25     1     1     2     0     0 -1.138224572E+02  1.748289411E+02  4.259477243E+01  2.469008405E+02  1.250000000E+02  0.00000E+00  9.000E+00
      25     1     1     2     0     0  1.157297988E+02 -2.076585613E+01  3.251854299E+00  1.716396856E+02  1.250000000E+02  0.00000E+00  9.000E+00
      21     1     1     2   501   512 -1.907341619E+00 -1.540630850E+02  2.220930655E+02  2.703042764E+02  5.394796609E-06  0.00000E+00  9.000E+00
#rwgt            1           1   2.1620972759371526E-002           1       79218           0
</event>
<event>
      5   9999  3.79277E-02  1.12681E+01 -1.00000E+00  1.89948E-01
      21    -1     0     0   502   501  0.000000000E+00  0.000000000E+00  3.049958486E+02  3.049958486E+02  0.000000000E+00  0.00000E+00  9.000E+00
      21    -1     0     0   511   502  0.000000000E+00  0.000000000E+00 -1.059529131E+02  1.059529131E+02  0.000000000E+00  0.00000E+00  9.000E+00
      25     1     1     2     0     0 -3.462282227E+01  9.222616853E+01  1.031119596E+02  1.896351291E+02  1.250000000E+02  0.00000E+00  9.000E+00
      25     1     1     2     0     0  4.492200967E+01 -9.679736109E+01  1.139980782E+02  2.000206937E+02  1.250000000E+02  0.00000E+00  9.000E+00
      21     1     1     2   511   501 -1.029918740E+01  4.571192561E+00 -1.806710225E+01  2.129293888E+01  4.129530925E-07  0.00000E+00  9.000E+00
#rwgt            1           1   3.0765296013336725E-002           1       79362           0
</event>
<event>
      5   9999  3.79277E-02  3.07995E+02 -1.00000E+00  1.05222E-01
      -1    -1     0     0     0   501  0.000000000E+00  0.000000000E+00  5.409984260E+02  5.409984260E+02  0.000000000E+00  0.00000E+00  9.000E+00
      21    -1     0     0   501   502  0.000000000E+00  0.000000000E+00 -6.434676177E+02  6.434676177E+02  0.000000000E+00  0.00000E+00  9.000E+00
      25     1     1     2     0     0  1.253598386E+02  2.725237323E+02 -1.489236127E+02  3.574737979E+02  1.250000000E+02  0.00000E+00  9.000E+00
      25     1     1     2     0     0 -4.137350294E+02 -1.643531193E+02 -1.188646962E+02  4.774331769E+02  1.250000000E+02  0.00000E+00  9.000E+00
      -1     1     1     2     0   502  2.883751908E+02 -1.081706129E+02  1.653191173E+02  3.495590690E+02  4.672030912E-06  0.00000E+00  9.000E+00
#rwgt            1           1   3.6780076146592580E-002           1       79605           0
</event>
<event>
      5   9999 -3.79277E-02  2.19926E+01 -1.00000E+00  1.63036E-01
      21    -1     0     0   502   501  0.000000000E+00  0.000000000E+00  2.891182561E+02  2.891182561E+02  0.000000000E+00  0.00000E+00  9.000E+00
      21    -1     0     0   511   502  0.000000000E+00  0.000000000E+00 -2.681200821E+02  2.681200821E+02  0.000000000E+00  0.00000E+00  9.000E+00
      25     1     1     2     0     0  7.667665054E+01  9.548670335E+01 -1.696291112E+02  2.437130580E+02  1.250000000E+02  0.00000E+00  9.000E+00
      25     1     1     2     0     0 -9.866491935E+01 -9.505254623E+01  2.128146799E+02  2.822850347E+02  1.250000000E+02  0.00000E+00  9.000E+00
      21     1     1     2   511   501  2.198826881E+01 -4.341571241E-01 -2.218739469E+01  3.124024553E+01  5.331201500E-07  0.00000E+00  9.000E+00
#rwgt            1           1  -5.4463134427273026E-002           1       79648           0
</event>
<event>
      5   9999  3.79277E-02  1.47600E+01 -1.00000E+00  1.78046E-01
      21    -1     0     0   512   501  0.000000000E+00  0.000000000E+00  1.121172014E+02  1.121172014E+02  0.000000000E+00  0.00000E+00  9.000E+00
      21    -1     0     0   501   502  0.000000000E+00  0.000000000E+00 -3.520812857E+02  3.520812857E+02  0.000000000E+00  0.00000E+00  9.000E+00
      25     1     1     2     0     0  6.073084849E+01 -1.201943550E+02 -9.369052466E+01  2.062470202E+02  1.250000000E+02  0.00000E+00  9.000E+00
      25     1     1     2     0     0 -7.543904994E+01  1.214294514E+02 -1.508242429E+02  2.425059054E+02  1.250000000E+02  0.00000E+00  9.000E+00
      21     1     1     2   512   502  1.470820145E+01 -1.235096438E+00  4.550683191E+00  1.544556151E+01  2.731427965E-07  0.00000E+00  9.000E+00
#rwgt            1           1   3.0780153823125517E-002           1       79985           0
</event>
<event>
      5   9999  3.79277E-02  1.63340E+01 -1.00000E+00  1.73967E-01
      21    -1     0     0   511   501  0.000000000E+00  0.000000000E+00  2.020614093E+01  2.020614093E+01  0.000000000E+00  0.00000E+00  9.000E+00
      21    -1     0     0   501   502  0.000000000E+00  0.000000000E+00 -1.986175073E+03  1.986175073E+03  0.000000000E+00  0.00000E+00  9.000E+00
      25     1     1     2     0     0 -7.659830986E+01 -7.850652149E+01 -4.931435351E+02  5.204287859E+02  1.250000000E+02  0.00000E+00  9.000E+00
      25     1     1     2     0     0  6.736294288E+01  9.197898588E+01 -1.432327016E+03  1.442284154E+03  1.250000000E+02  0.00000E+00  9.000E+00
      21     1     1     2   511   502  9.235366976E+00 -1.347246439E+01 -4.049838094E+01  4.366827406E+01  0.000000000E+00  0.00000E+00  9.000E+00
#rwgt            1           1  0.13916856752627466                1       80153           0
</event>
<event>
      5   9999  3.79277E-02  2.29071E+01 -1.00000E+00  1.61648E-01
      21    -1     0     0   502   501  0.000000000E+00  0.000000000E+00  3.204166025E+02  3.204166025E+02  0.000000000E+00  0.00000E+00  9.000E+00
      21    -1     0     0   512   502  0.000000000E+00  0.000000000E+00 -8.423683970E+02  8.423683970E+02  0.000000000E+00  0.00000E+00  9.000E+00
      25     1     1     2     0     0  9.251008568E+01  6.589175810E+01  1.183647383E+02  2.062402750E+02  1.250000000E+02  0.00000E+00  9.000E+00
      25     1     1     2     0     0 -8.443122423E+01 -4.445654144E+01  1.187970141E+02  1.970856318E+02  1.250000000E+02  0.00000E+00  9.000E+00
      21     1     1     2   512   501 -8.078861450E+00 -2.143521666E+01 -7.591135469E+02  7.594590928E+02  0.000000000E+00  0.00000E+00  9.000E+00
#rwgt            1           1   3.9957532151110850E-002           1       80350           0
</event>
<event>
      5   9999  3.79277E-02  4.86995E+00 -1.00000E+00  2.44833E-01
      21    -1     0     0   511   501  0.000000000E+00  0.000000000E+00  3.644976714E+01  3.644976714E+01  0.000000000E+00  0.00000E+00  9.000E+00
      21    -1     0     0   501   502  0.000000000E+00  0.000000000E+00 -8.579256337E+02  8.579256337E+02  0.000000000E+00  0.00000E+00  9.000E+00
      25     1     1     2     0     0  6.619515283E+01  9.006127183E+01 -2.814091308E+02  3.275804173E+02  1.250000000E+02  0.00000E+00  9.000E+00
      25     1     1     2     0     0 -6.133512807E+01 -8.975047556E+01 -5.334486501E+02  5.585782023E+02  1.250000000E+02  0.00000E+00  9.000E+00
      21     1     1     2   511   502 -4.860024768E+00 -3.107962632E-01 -6.618085732E+00  8.216781232E+00  0.000000000E+00  0.00000E+00  9.000E+00
#rwgt            1           1   4.1823676041352932E-002           1       80611           0
</event>
<event>
      5   9999  3.79277E-02  9.28621E+01 -1.00000E+00  1.25292E-01
      21    -1     0     0   502   512  0.000000000E+00  0.000000000E+00  4.090219548E+02  4.090219548E+02  0.000000000E+00  0.00000E+00  9.000E+00
      21    -1     0     0   501   502  0.000000000E+00  0.000000000E+00 -2.100666620E+02  2.100666620E+02  0.000000000E+00  0.00000E+00  9.000E+00
      25     1     1     2     0     0 -2.548379398E+01 -7.022524664E+01  2.542474009E+01  1.478256623E+02  1.250000000E+02  0.00000E+00  9.000E+00
      25     1     1     2     0     0 -6.582632126E+01  8.713206685E+01 -9.213215300E+01  1.898379184E+02  1.250000000E+02  0.00000E+00  9.000E+00
      21     1     1     2   501   512  9.131011525E+01 -1.690682021E+01  2.656627058E+02  2.814250361E+02  5.394796609E-06  0.00000E+00  9.000E+00
#rwgt            1           1   4.8820744678650455E-002           1       80959           0
</event>
<event>
      5   9999  3.79277E-02  2.74501E+01 -1.00000E+00  1.55768E-01
      21    -1     0     0   502   511  0.000000000E+00  0.000000000E+00  2.371907093E+02  2.371907093E+02  0.000000000E+00  0.00000E+00  9.000E+00
      21    -1     0     0   501   502  0.000000000E+00  0.000000000E+00 -3.663299588E+02  3.663299588E+02  0.000000000E+00  0.00000E+00  9.000E+00
      25     1     1     2     0     0  1.933039838E+02 -1.219304850E+02 -5.399103450E+00  2.605525352E+02  1.250000000E+02  0.00000E+00  9.000E+00
      25     1     1     2     0     0 -1.793083751E+02  9.831626632E+01 -1.667303340E+02  2.919616171E+02  1.250000000E+02  0.00000E+00  9.000E+00
      21     1     1     2   501   511 -1.399560871E+01  2.361421865E+01  4.299018798E+01  5.100651574E+01  9.536743164E-07  0.00000E+00  9.000E+00
#rwgt            1           1   1.9202955409115999E-002           1       81079           0
</event>
<event>
      5   9999  3.79277E-02  9.01943E+01 -1.00000E+00  1.25878E-01
       3    -1     0     0   502     0  0.000000000E+00  0.000000000E+00  5.524171149E+02  5.524171149E+02  0.000000000E+00  0.00000E+00  9.000E+00
      21    -1     0     0   501   502  0.000000000E+00  0.000000000E+00 -1.898482339E+03  1.898482339E+03  0.000000000E+00  0.00000E+00  9.000E+00
      25     1     1     2     0     0  2.613253381E+01 -6.212483300E+01 -1.726556894E+03  1.732387402E+03  1.250000000E+02  0.00000E+00  9.000E+00
      25     1     1     2     0     0 -1.144918105E+02  4.402392496E+01 -1.184859095E+02  2.114483185E+02  1.250000000E+02  0.00000E+00  9.000E+00
       3     1     1     2   501     0  8.835927669E+01  1.810090804E+01  4.989775793E+02  5.070637329E+02  7.629394531E-06  0.00000E+00  9.000E+00
#rwgt            1           1   3.9623486724443602E-002           1       81241           0
</event>
<event>
      5   9999  3.79277E-02  5.87500E+01 -1.00000E+00  1.35194E-01
      21    -1     0     0   502   501  0.000000000E+00  0.000000000E+00  2.010107046E+02  2.010107046E+02  0.000000000E+00  0.00000E+00  9.000E+00
      21    -1     0     0   511   502  0.000000000E+00  0.000000000E+00 -3.297707093E+02  3.297707093E+02  0.000000000E+00  0.00000E+00  9.000E+00
      25     1     1     2     0     0  2.242797477E+01  4.779937148E+01 -2.484610572E+02  2.831001429E+02  1.250000000E+02  0.00000E+00  9.000E+00
      25     1     1     2     0     0 -1.601259634E+01  1.059929167E+01  1.369898426E+02  1.864402456E+02  1.250000000E+02  0.00000E+00  9.000E+00
      21     1     1     2   511   501 -6.415378426E+00 -5.839866315E+01 -1.728879010E+01  6.124102547E+01  9.233911863E-07  0.00000E+00  9.000E+00
#rwgt            1           1   4.8024200424015541E-002           1       81339           0
</event>
<event>
      5   9999  3.79277E-02  1.21402E+02 -1.00000E+00  1.20155E-01
      21    -1     0     0   502   501  0.000000000E+00  0.000000000E+00  6.347605289E+02  6.347605289E+02  0.000000000E+00  0.00000E+00  9.000E+00
       2    -1     0     0   501     0  0.000000000E+00  0.000000000E+00 -1.635613713E+03  1.635613713E+03  0.000000000E+00  0.00000E+00  9.000E+00
      25     1     1     2     0     0 -2.323288547E+01  6.242771289E+01  4.591812673E+02  4.805303555E+02  1.250000000E+02  0.00000E+00  9.000E+00
      25     1     1     2     0     0  1.333059769E+02 -1.136371497E+02  9.130333784E+01  2.337630954E+02  1.250000000E+02  0.00000E+00  9.000E+00
       2     1     1     2   502     0 -1.100730914E+02  5.120943680E+01 -1.551337789E+03  1.556080791E+03  0.000000000E+00  0.00000E+00  9.000E+00
#rwgt            1           1   3.6540974368257151E-002           1       81474           0
</event>
<event>
      5   9999  3.79277E-02  2.74047E+01 -1.00000E+00  1.55820E-01
      21    -1     0     0   502   511  0.000000000E+00  0.000000000E+00  2.657322897E+02  2.657322897E+02  0.000000000E+00  0.00000E+00  9.000E+00
      21    -1     0     0   501   502  0.000000000E+00  0.000000000E+00 -1.974873119E+02  1.974873119E+02  0.000000000E+00  0.00000E+00  9.000E+00
      25     1     1     2     0     0  7.865084910E+01  1.536406324E+02  4.367434429E+01  2.175404522E+02  1.250000000E+02  0.00000E+00  9.000E+00
      25     1     1     2     0     0 -9.543428226E+01 -1.319765459E+02 -4.994257875E+00  2.053666319E+02  1.250000000E+02  0.00000E+00  9.000E+00
      21     1     1     2   501   511  1.678343317E+01 -2.166408643E+01  2.956489130E+01  4.031251750E+01  4.768371582E-07  0.00000E+00  9.000E+00
#rwgt            1           1   3.3079928026678342E-002           1       81560           0
</event>
<event>
      5   9999  3.79277E-02  1.14699E+01 -1.00000E+00  1.89115E-01
      21    -1     0     0   502   512  0.000000000E+00  0.000000000E+00  6.041430599E+02  6.041430599E+02  0.000000000E+00  0.00000E+00  9.000E+00
      21    -1     0     0   501   502  0.000000000E+00  0.000000000E+00 -1.022310260E+02  1.022310260E+02  0.000000000E+00  0.00000E+00  9.000E+00
      25     1     1     2     0     0  1.459884106E+02  8.081538401E+01  8.220765002E+01  2.241134535E+02  1.250000000E+02  0.00000E+00  9.000E+00
      25     1     1     2     0     0 -1.351388417E+02 -8.453619174E+01  2.998681792E+02  3.618767734E+02  1.250000000E+02  0.00000E+00  9.000E+00
      21     1     1     2   501   512 -1.084956888E+01  3.720807727E+00  1.198362047E+02  1.203838590E+02  0.000000000E+00  0.00000E+00  9.000E+00
#rwgt            1           1   4.5571234239280750E-002           1       81867           0
</event>
<event>
      5   9999  3.79277E-02  1.03804E+02 -1.00000E+00  1.23103E-01
       1    -1     0     0   502     0  0.000000000E+00  0.000000000E+00  1.214152544E+03  1.214152544E+03  0.000000000E+00  0.00000E+00  9.000E+00
      21    -1     0     0   501   502  0.000000000E+00  0.000000000E+00 -2.355871873E+02  2.355871873E+02  0.000000000E+00  0.00000E+00  9.000E+00
      25     1     1     2     0     0 -2.452910842E+02 -8.540998426E+01  4.356019070E+01  2.915219916E+02  1.250000000E+02  0.00000E+00  9.000E+00
      25     1     1     2     0     0  1.987092008E+02  1.781752923E+02  9.184887881E+01  3.086956395E+02  1.250000000E+02  0.00000E+00  9.000E+00
       1     1     1     2   501     0  4.658188333E+01 -9.276530806E+01  8.431562867E+02  8.495220998E+02  1.078959322E-05  0.00000E+00  9.000E+00
#rwgt            1           1   4.1375495820543597E-002           1       82198           0
</event>
<event>
      5   9999  3.79277E-02  1.76897E+01 -1.00000E+00  1.70891E-01
      21    -1     0     0   502   501  0.000000000E+00  0.000000000E+00  5.748895899E+02  5.748895899E+02  0.000000000E+00  0.00000E+00  9.000E+00
      21    -1     0     0   501   511  0.000000000E+00  0.000000000E+00 -6.933957966E+01  6.933957966E+01  0.000000000E+00  0.00000E+00  9.000E+00
      25     1     1     2     0     0 -1.681552768E+00  7.677960769E+01  1.124611801E+02  1.848525164E+02  1.250000000E+02  0.00000E+00  9.000E+00
      25     1     1     2     0     0 -5.113637107E+00 -9.311214416E+01  4.076514300E+02  4.364638692E+02  1.250000000E+02  0.00000E+00  9.000E+00
      21     1     1     2   502   511  6.795189875E+00  1.633253646E+01 -1.456259995E+01  2.291278399E+01  5.331201500E-07  0.00000E+00  9.000E+00
#rwgt            1           1   4.1260647187253308E-002           1       82278           0
</event>
<event>
      5   9999  3.79277E-02  5.73532E+01 -1.00000E+00  1.35759E-01
      21    -1     0     0   502   501  0.000000000E+00  0.000000000E+00  8.516814237E+01  8.516814237E+01  0.000000000E+00  0.00000E+00  9.000E+00
      21    -1     0     0   512   502  0.000000000E+00  0.000000000E+00 -6.818567638E+02  6.818567638E+02  0.000000000E+00  0.00000E+00  9.000E+00
      25     1     1     2     0     0  6.171333010E+01  1.242017776E+02 -1.110331623E+02  2.172279443E+02  1.250000000E+02  0.00000E+00  9.000E+00
      25     1     1     2     0     0 -9.670169720E+00 -1.000999230E+02 -1.902000168E+02  2.488263514E+02  1.250000000E+02  0.00000E+00  9.000E+00
      21     1     1     2   512   501 -5.204316038E+01 -2.410185456E+01 -2.954554423E+02  3.009706104E+02  6.607249480E-06  0.00000E+00  9.000E+00
#rwgt            1           1   3.8937844878572755E-002           1       82406           0
</event>
<event>
      5   9999  3.79277E-02  1.52715E+01 -1.00000E+00  1.76653E-01
       1    -1     0     0   502     0  0.000000000E+00  0.000000000E+00  3.240309947E+03  3.240309947E+03  0.000000000E+00  0.00000E+00  9.000E+00
      21    -1     0     0   501   502  0.000000000E+00  0.000000000E+00 -5.013477956E+01  5.013477956E+01  0.000000000E+00  0.00000E+00  9.000E+00
      25     1     1     2     0     0  1.119138934E+02  4.100587885E+01  1.327120100E+02  2.178157002E+02  1.250000000E+02  0.00000E+00  9.000E+00
      25     1     1     2     0     0 -1.230718519E+02 -5.143268075E+01  1.098505381E+03  1.113611725E+03  1.250000000E+02  0.00000E+00  9.000E+00
       1     1     1     2   501     0  1.115795850E+01  1.042680190E+01  1.958957777E+03  1.959017302E+03  3.051757812E-05  0.00000E+00  9.000E+00
#rwgt            1           1   6.1996706978787543E-002           1       82497           0
</event>
<event>
      5   9999  3.79277E-02  3.19058E+01 -1.00000E+00  1.51205E-01
      21    -1     0     0   511   501  0.000000000E+00  0.000000000E+00  8.613447324E+01  8.613447324E+01  0.000000000E+00  0.00000E+00  9.000E+00
      21    -1     0     0   501   502  0.000000000E+00  0.000000000E+00 -1.148240620E+03  1.148240620E+03  0.000000000E+00  0.00000E+00  9.000E+00
      25     1     1     2     0     0  2.073391694E+02 -3.473674375E+01 -1.790517325E+02  3.031182862E+02  1.250000000E+02  0.00000E+00  9.000E+00
      25     1     1     2     0     0 -2.145590821E+02  6.581495281E+01 -8.346037915E+02  8.732443509E+02  1.250000000E+02  0.00000E+00  9.000E+00
      21     1     1     2   511   502  7.219912653E+00 -3.107820906E+01 -4.845062322E+01  5.801245649E+01  9.536743164E-07  0.00000E+00  9.000E+00
#rwgt            1           1   3.6360769132337156E-002           1       82677           0
</event>
<event>
      5   9999  3.79277E-02  2.95107E+01 -1.00000E+00  1.53538E-01
      21    -1     0     0   502   501  0.000000000E+00  0.000000000E+00  6.640280031E+02  6.640280031E+02  0.000000000E+00  0.00000E+00  9.000E+00
      21    -1     0     0   501   512  0.000000000E+00  0.000000000E+00 -1.603664121E+02  1.603664121E+02  0.000000000E+00  0.00000E+00  9.000E+00
      25     1     1     2     0     0 -2.885244719E+02  1.602969954E+01  1.995767731E+02  3.727723307E+02  1.250000000E+02  0.00000E+00  9.000E+00
      25     1     1     2     0     0  2.663260371E+02  3.415362726E+00  3.026240275E+02  4.220752596E+02  1.250000000E+02  0.00000E+00  9.000E+00
      21     1     1     2   502   512  2.219843478E+01 -1.944506226E+01  1.460790426E+00  2.954682490E+01  7.202056631E-07  0.00000E+00  9.000E+00
#rwgt            1           1   3.6534251580387450E-002           1       82905           0
</event>
<event>
      5   9999  3.79277E-02  1.89305E+01 -1.00000E+00  1.68363E-01
      21    -1     0     0   511   501  0.000000000E+00  0.000000000E+00  8.906476839E+01  8.906476839E+01  0.000000000E+00  0.00000E+00  9.000E+00
      21    -1     0     0   501   502  0.000000000E+00  0.000000000E+00 -1.940079498E+03  1.940079498E+03  0.000000000E+00  0.00000E+00  9.000E+00
      25     1     1     2     0     0 -2.453219336E+02  1.112184910E+02 -7.247969411E+02  7.832675212E+02  1.250000000E+02  0.00000E+00  9.000E+00
      25     1     1     2     0     0  2.473687538E+02 -9.239896501E+01 -1.165880420E+03  1.201928044E+03  1.250000000E+02  0.00000E+00  9.000E+00
      21     1     1     2   511   502 -2.046820174E+00 -1.881952599E+01  3.966263135E+01  4.394870142E+01  2.185142372E-06  0.00000E+00  9.000E+00
#rwgt            1           1  0.17525653365057103                1       83124           0
</event>
<event>
      5   9999  3.98548E-02  1.05514E+02 -1.00000E+00  1.22789E-01
      21    -1     0     0   502   501  0.000000000E+00  0.000000000E+00  5.799518520E+02  5.799518520E+02  0.000000000E+00  0.00000E+00  9.000E+00
      21    -1     0     0   501   512  0.000000000E+00  0.000000000E+00 -1.510808016E+03  1.510808016E+03  0.000000000E+00  0.00000E+00  9.000E+00
      25     1     1     2     0     0  2.500665231E+02  3.668740487E+02  1.873019696E+02  4.978321618E+02  1.250000000E+02  0.00000E+00  9.000E+00
      25     1     1     2     0     0 -2.321788778E+02 -4.708606181E+02 -7.547608699E+01  5.449205380E+02  1.250000000E+02  0.00000E+00  9.000E+00
      21     1     1     2   502   512 -1.788764533E+01  1.039865695E+02 -1.042682047E+03  1.048007168E+03  2.157918644E-05  0.00000E+00  9.000E+00
#rwgt            1           1   1.2143006420348041                1       83380           0
</event>
<event>
      5   9999  3.79277E-02  3.88410E+01 -1.00000E+00  1.45637E-01
      21    -1     0     0   502   511  0.000000000E+00  0.000000000E+00  1.565534551E+02  1.565534551E+02  0.000000000E+00  0.00000E+00  9.000E+00
      21    -1     0     0   501   502  0.000000000E+00  0.000000000E+00 -4.118200647E+02  4.118200647E+02  0.000000000E+00  0.00000E+00  9.000E+00
      25     1     1     2     0     0  6.949022393E+01  1.010319497E+02 -1.778042867E+02  2.495510178E+02  1.250000000E+02  0.00000E+00  9.000E+00
      25     1     1     2     0     0 -1.037920837E+02 -1.192530119E+02 -1.398653872E+02  2.453189843E+02  1.250000000E+02  0.00000E+00  9.000E+00
      21     1     1     2   501   511  3.430185982E+01  1.822106225E+01  6.240306430E+01  7.350351780E+01  1.784161275E-06  0.00000E+00  9.000E+00
#rwgt            1           1  0.16027831069385481                1       83505           0
</event>
<event>
      5   9999  3.79277E-02  5.37421E+01 -1.00000E+00  1.37310E-01
       2    -1     0     0   502     0  0.000000000E+00  0.000000000E+00  1.930096677E+03  1.930096677E+03  0.000000000E+00  0.00000E+00  9.000E+00
      21    -1     0     0   501   502  0.000000000E+00  0.000000000E+00 -4.915149612E+01  4.915149612E+01  0.000000000E+00  0.00000E+00  9.000E+00
      25     1     1     2     0     0 -4.200487841E+01  2.041842786E+02  6.038048224E+02  6.508923820E+02  1.250000000E+02  0.00000E+00  9.000E+00
      25     1     1     2     0     0 -1.004866065E+01 -2.175499655E+02  6.185487779E+02  6.675751296E+02  1.250000000E+02  0.00000E+00  9.000E+00
       2     1     1     2   501     0  5.205353905E+01  1.336568686E+01  6.585915803E+02  6.607806612E+02  0.000000000E+00  0.00000E+00  9.000E+00
#rwgt            1           1  0.12579377100003564                1       83672           0
</event>
<event>
      5   9999  3.79277E-02  1.35384E+02 -1.00000E+00  1.18186E-01
      21    -1     0     0   511   501  0.000000000E+00  0.000000000E+00  5.297956379E+02  5.297956379E+02  0.000000000E+00  0.00000E+00  9.000E+00
      21    -1     0     0   501   502  0.000000000E+00  0.000000000E+00 -1.100928335E+03  1.100928335E+03  0.000000000E+00  0.00000E+00  9.000E+00
      25     1     1     2     0     0 -1.572022121E+02  2.079433274E+02 -6.154606233E+02  6.799777509E+02  1.250000000E+02  0.00000E+00  9.000E+00
      25     1     1     2     0     0  2.807104315E+02 -2.633913779E+02 -3.492225098E+02  5.345603106E+02  1.250000000E+02  0.00000E+00  9.000E+00
      21     1     1     2   511   502 -1.235082194E+02  5.544805043E+01  3.935504364E+02  4.161859110E+02  0.000000000E+00  0.00000E+00  9.000E+00
#rwgt            1           1   4.0705560424078378E-002           1       83821           0
</event>
<event>
      5   9999  3.79277E-02  7.99713E+01 -1.00000E+00  1.28357E-01
       2    -1     0     0   502     0  0.000000000E+00  0.000000000E+00  5.080764948E+02  5.080764948E+02  0.000000000E+00  0.00000E+00  9.000E+00
      21    -1     0     0   501   502  0.000000000E+00  0.000000000E+00 -3.794818025E+02  3.794818025E+02  0.000000000E+00  0.00000E+00  9.000E+00
      25     1     1     2     0     0 -1.866563343E+02 -7.062353474E+00 -2.158805373E+02  3.116406109E+02  1.250000000E+02  0.00000E+00  9.000E+00
      25     1     1     2     0     0  1.801663161E+02  8.676986546E+01  1.436976711E+01  2.362634149E+02  1.250000000E+02  0.00000E+00  9.000E+00
       2     1     1     2   501     0  6.490018173E+00 -7.970751199E+01  3.301054625E+02  3.396542716E+02  3.814697266E-06  0.00000E+00  9.000E+00
#rwgt            1           1   3.7044281793786681E-002           1       83883           0
</event>
<event>
      5   9999  3.79277E-02  2.94741E+01 -1.00000E+00  1.53575E-01
      21    -1     0     0   502   501  0.000000000E+00  0.000000000E+00  1.572909237E+02  1.572909237E+02  0.000000000E+00  0.00000E+00  9.000E+00
      21    -1     0     0   511   502  0.000000000E+00  0.000000000E+00 -3.327547193E+02  3.327547193E+02  0.000000000E+00  0.00000E+00  9.000E+00
      25     1     1     2     0     0  1.006722439E+01  8.544540690E+01 -2.489614476E+02  2.915631475E+02  1.250000000E+02  0.00000E+00  9.000E+00
      25     1     1     2     0     0  1.373624383E+01 -6.806381275E+01  8.556181756E+01  1.666349052E+02  1.250000000E+02  0.00000E+00  9.000E+00
      21     1     1     2   511   501 -2.380346822E+01 -1.738159415E+01 -1.206416555E+01  3.184759025E+01  1.685873940E-07  0.00000E+00  9.000E+00
#rwgt            1           1   3.8928380985377348E-002           1       83990           0
</event>
<event>
      5   9999  3.79277E-02  3.47834E+01 -1.00000E+00  1.48707E-01
      21    -1     0     0   502   501  0.000000000E+00  0.000000000E+00  2.654234278E+03  2.654234278E+03  0.000000000E+00  0.00000E+00  9.000E+00
      21    -1     0     0   501   512  0.000000000E+00  0.000000000E+00 -4.983751007E+01  4.983751007E+01  0.000000000E+00  0.00000E+00  9.000E+00
      25     1     1     2     0     0  1.182636967E+02  8.723832830E+01  1.647311448E+03  1.658570721E+03  1.250000000E+02  0.00000E+00  9.000E+00
      25     1     1     2     0     0 -8.607594575E+01 -7.405374319E+01  9.859458394E+02  1.000303566E+03  1.250000000E+02  0.00000E+00  9.000E+00
      21     1     1     2   502   512 -3.218775098E+01 -1.318458511E+01 -2.886051949E+01  4.519750195E+01  4.598451024E-06  0.00000E+00  9.000E+00
#rwgt            1           1   4.7167103027273762E-002           1       84138           0
</event>
<event>
      5   9999  3.79277E-02  4.95823E+01 -1.00000E+00  1.39284E-01
       2    -1     0     0   502     0  0.000000000E+00  0.000000000E+00  1.014214876E+03  1.014214876E+03  0.000000000E+00  0.00000E+00  9.000E+00
      21    -1     0     0   501   502  0.000000000E+00  0.000000000E+00 -1.001582080E+02  1.001582080E+02  0.000000000E+00  0.00000E+00  9.000E+00
      25     1     1     2     0     0  2.602503629E+01 -6.660231613E+01  1.766065175E+02  2.278772324E+02  1.250000000E+02  0.00000E+00  9.000E+00
      25     1     1     2     0     0 -1.165189849E+01  1.140555964E+02  2.397696303E+01  1.713018989E+02  1.250000000E+02  0.00000E+00  9.000E+00
       2     1     1     2   501     0 -1.437313781E+01 -4.745328027E+01  7.134731878E+02  7.151939532E+02  0.000000000E+00  0.00000E+00  9.000E+00
#rwgt            1           1   4.0044260094569392E-002           1       84391           0
</event>
<event>
      5   9999  3.79277E-02  7.41397E+01 -1.00000E+00  1.29969E-01
      21    -1     0     0   502   501  0.000000000E+00  0.000000000E+00  8.354960057E+02  8.354960057E+02  0.000000000E+00  0.00000E+00  9.000E+00
      21    -1     0     0   511   502  0.000000000E+00  0.000000000E+00 -1.428286564E+02  1.428286564E+02  0.000000000E+00  0.00000E+00  9.000E+00
      25     1     1     2     0     0 -7.870055986E+01  1.663355596E+01 -3.032227210E+01  1.517066033E+02  1.250000000E+02  0.00000E+00  9.000E+00
      25     1     1     2     0     0  1.485260922E+02  8.288138027E+00  7.268551681E+02  7.523776503E+02  1.250000000E+02  0.00000E+00  9.000E+00
      21     1     1     2   511   501 -6.982553235E+01 -2.492169398E+01 -3.865546609E+00  7.424040847E+01  4.214684851E-08  0.00000E+00  9.000E+00
#rwgt            1           1   4.1226030462620925E-002           1       84529           0
</event>
<event>
      5   9999  3.79277E-02  1.67301E+01 -1.00000E+00  1.73031E-01
      21    -1     0     0   502   501  0.000000000E+00  0.000000000E+00  1.112695150E+03  1.112695150E+03  0.000000000E+00  0.00000E+00  9.000E+00
      21    -1     0     0   512   502  0.000000000E+00  0.000000000E+00 -1.775852978E+02  1.775852978E+02  0.000000000E+00  0.00000E+00  9.000E+00
      25     1     1     2     0     0 -5.133634057E+01 -1.457331119E+02  8.872847054E+02  9.092704264E+02  1.250000000E+02  0.00000E+00  9.000E+00
      25     1     1     2     0     0  3.890417147E+01  1.345376326E+02  1.726655849E+02  2.550535500E+02  1.250000000E+02  0.00000E+00  9.000E+00
      21     1     1     2   512   501  1.243216909E+01  1.119547932E+01 -1.248404384E+02  1.259564712E+02  0.000000000E+00  0.00000E+00  9.000E+00
#rwgt            1           1   4.1276535812203891E-002           1       84714           0
</event>
<event>
      5   9999  3.79277E-02  2.73383E+01 -1.00000E+00  1.55896E-01
       2    -1     0     0   502     0  0.000000000E+00  0.000000000E+00  1.403552037E+03  1.403552037E+03  0.000000000E+00  0.00000E+00  9.000E+00
      21    -1     0     0   501   502  0.000000000E+00  0.000000000E+00 -1.436484479E+02  1.436484479E+02  0.000000000E+00  0.00000E+00  9.000E+00
      25     1     1     2     0     0 -6.522911025E+01  1.637181240E+02  8.755777569E+01  2.331304893E+02  1.250000000E+02  0.00000E+00  9.000E+00
      25     1     1     2     0     0  6.995569533E+01 -1.367914907E+02  6.804343523E+01  2.094292728E+02  1.250000000E+02  0.00000E+00  9.000E+00
       2     1     1     2   501     0 -4.726585079E+00 -2.692663325E+01  1.104302378E+03  1.104640722E+03  2.157918644E-05  0.00000E+00  9.000E+00
#rwgt            1           1   3.0593724120858198E-002           1       84900           0
</event>
<event>
      5   9999 -3.79277E-02  1.82790E+01 -1.00000E+00  1.69659E-01
       1    -1     0     0   502     0  0.000000000E+00  0.000000000E+00  4.018439374E+02  4.018439374E+02  0.000000000E+00  0.00000E+00  9.000E+00
      21    -1     0     0   501   502  0.000000000E+00  0.000000000E+00 -2.758929757E+02  2.758929757E+02  0.000000000E+00  0.00000E+00  9.000E+00
      25     1     1     2     0     0 -8.955321629E+01  1.660867444E+02  2.612551177E+02  3.456643194E+02  1.250000000E+02  0.00000E+00  9.000E+00
      25     1     1     2     0     0  7.369359639E+01 -1.751749140E+02 -1.759033643E+02  2.875482398E+02  1.250000000E+02  0.00000E+00  9.000E+00
       1     1     1     2   501     0  1.585961990E+01  9.088169575E+00  4.059920834E+01  4.452435387E+01  0.000000000E+00  0.00000E+00  9.000E+00
#rwgt            1           1  -2.4325467682312956E-002           1       85250           0
</event>
<event>
      5   9999  3.79277E-02  1.44549E+01 -1.00000E+00  1.78911E-01
      21    -1     0     0   502   501  0.000000000E+00  0.000000000E+00  4.261543410E+02  4.261543410E+02  0.000000000E+00  0.00000E+00  9.000E+00
      21    -1     0     0   511   502  0.000000000E+00  0.000000000E+00 -4.357809396E+02  4.357809396E+02  0.000000000E+00  0.00000E+00  9.000E+00
      25     1     1     2     0     0  3.297558441E+01  1.360347974E+02  2.139972910E+02  2.846272928E+02  1.250000000E+02  0.00000E+00  9.000E+00
      25     1     1     2     0     0 -4.734683260E+01 -1.375880201E+02  1.246281290E+02  2.287561067E+02  1.250000000E+02  0.00000E+00  9.000E+00
      21     1     1     2   511   501  1.437124818E+01  1.553222706E+00 -3.482520187E+02  3.485518810E+02  5.394796609E-06  0.00000E+00  9.000E+00
#rwgt            1           1  0.23836758359989077                1       85432           0
</event>
<event>
      5   9999  3.79277E-02  2.17917E+01 -1.00000E+00  1.63352E-01
       2    -1     0     0   502     0  0.000000000E+00  0.000000000E+00  4.069251262E+02  4.069251262E+02  0.000000000E+00  0.00000E+00  9.000E+00
      21    -1     0     0   501   502  0.000000000E+00  0.000000000E+00 -1.645392658E+02  1.645392658E+02  0.000000000E+00  0.00000E+00  9.000E+00
      25     1     1     2     0     0  2.023307485E+02 -3.367394952E+01  6.888807308E+01  2.498844398E+02  1.250000000E+02  0.00000E+00  9.000E+00
      25     1     1     2     0     0 -2.044217286E+02  5.536509954E+01  1.442551685E+02  2.851106645E+02  1.250000000E+02  0.00000E+00  9.000E+00
       2     1     1     2   501     0  2.090980088E+00 -2.169115002E+01  2.924261883E+01  3.646928767E+01  8.259061849E-07  0.00000E+00  9.000E+00
#rwgt            1           1   2.9119255029026053E-002           1       85691           0
</event>
<event>
      5   9999  3.79277E-02  4.86717E+01 -1.00000E+00  1.39746E-01
      21    -1     0     0   502   511  0.000000000E+00  0.000000000E+00  9.862732817E+01  9.862732817E+01  0.000000000E+00  0.00000E+00  9.000E+00
      21    -1     0     0   501   502  0.000000000E+00  0.000000000E+00 -9.548514180E+02  9.548514180E+02  0.000000000E+00  0.00000E+00  9.000E+00
      25     1     1     2     0     0 -1.845145393E+01 -7.217098489E+01 -7.934509571E+02  8.066836607E+02  1.250000000E+02  0.00000E+00  9.000E+00
      25     1     1     2     0     0 -2.243752443E+01  4.576981207E+01 -1.135929879E+02  1.764275633E+02  1.250000000E+02  0.00000E+00  9.000E+00
      21     1     1     2   501   511  4.088897836E+01  2.640117283E+01  5.081985521E+01  7.036752206E+01  2.236564522E-06  0.00000E+00  9.000E+00
#rwgt            1           1   4.6431731354113728E-002           1       85929           0
</event>
<event>
      5   9999  3.79277E-02  1.82770E+01 -1.00000E+00  1.69663E-01
      21    -1     0     0   502   501  0.000000000E+00  0.000000000E+00  3.439598094E+02  3.439598094E+02  0.000000000E+00  0.00000E+00  9.000E+00
      21    -1     0     0   501   512  0.000000000E+00  0.000000000E+00 -2.840887198E+02  2.840887198E+02  0.000000000E+00  0.00000E+00  9.000E+00
      25     1     1     2     0     0 -8.918924669E+01 -1.547322568E+02 -1.657093245E+02  2.738272690E+02  1.250000000E+02  0.00000E+00  9.000E+00
      25     1     1     2     0     0  1.056224362E+02  1.627322031E+02  2.384674533E+02  3.318577937E+02  1.250000000E+02  0.00000E+00  9.000E+00
      21     1     1     2   502   512 -1.643318948E+01 -7.999946285E+00 -1.288703911E+01  2.236346650E+01  2.384185791E-07  0.00000E+00  9.000E+00
#rwgt            1           1   4.7639207984908352E-002           1       86059           0
</event>
<event>
      5   9999  3.79277E-02  3.13394E+01 -1.00000E+00  1.51734E-01
      21    -1     0     0   511   501  0.000000000E+00  0.000000000E+00  5.451634395E+02  5.451634395E+02  0.000000000E+00  0.00000E+00  9.000E+00
      21    -1     0     0   501   502  0.000000000E+00  0.000000000E+00 -8.938310425E+01  8.938310425E+01  0.000000000E+00  0.00000E+00  9.000E+00
      25     1     1     2     0     0  4.095201854E+01  4.684942855E+01 -7.779051908E+00  1.398479547E+02  1.250000000E+02  0.00000E+00  9.000E+00
      25     1     1     2     0     0 -3.684743007E+01 -1.577996432E+01  2.899183686E+02  3.182521027E+02  1.250000000E+02  0.00000E+00  9.000E+00
      21     1     1     2   511   502 -4.104588475E+00 -3.106946423E+01  1.736410185E+02  1.764464864E+02  3.303624740E-06  0.00000E+00  9.000E+00
#rwgt            1           1   3.9283757150949325E-002           1       86389           0
</event>
<event>
      5   9999  3.79277E-02  5.59061E+01 -1.00000E+00  1.36364E-01
      21    -1     0     0   502   501  0.000000000E+00  0.000000000E+00  9.002576437E+01  9.002576437E+01  0.000000000E+00  0.00000E+00  9.000E+00
      21    -1     0     0   512   502  0.000000000E+00  0.000000000E+00 -7.602526025E+02  7.602526025E+02  0.000000000E+00  0.00000E+00  9.000E+00
      25     1     1     2     0     0  4.416468758E+01 -3.899595530E+01 -3.780872585E+02  4.025495985E+02  1.250000000E+02  0.00000E+00  9.000E+00
      25     1     1     2     0     0 -4.614541776E+01 -1.687503120E+01  1.536272174E+01  1.351857222E+02  1.250000000E+02  0.00000E+00  9.000E+00
      21     1     1     2   512   501  1.980730171E+00  5.587098650E+01 -3.075023014E+02  3.125430463E+02  5.394796609E-06  0.00000E+00  9.000E+00
#rwgt            1           1   4.0560589288503666E-002           1       86495           0
</event>
<event>
      5   9999  3.79277E-02  3.31402E+01 -1.00000E+00  1.50096E-01
      21    -1     0     0   502   501  0.000000000E+00  0.000000000E+00  1.945176288E+02  1.945176288E+02  0.000000000E+00  0.00000E+00  9.000E+00
      21    -1     0     0   511   502  0.000000000E+00  0.000000000E+00 -5.509093401E+02  5.509093401E+02  0.000000000E+00  0.00000E+00  9.000E+00
      25     1     1     2     0     0 -6.632078681E+01 -9.043659624E+01  1.297869663E+02  2.122425059E+02  1.250000000E+02  0.00000E+00  9.000E+00
      25     1     1     2     0     0  3.858618655E+01  7.229648188E+01 -2.263262382E+02  2.712272870E+02  1.250000000E+02  0.00000E+00  9.000E+00
      21     1     1     2   511   501  2.773460026E+01  1.814011436E+01 -2.598524394E+02  2.619571760E+02  3.814697266E-06  0.00000E+00  9.000E+00
#rwgt            1           1   4.3010973629257751E-002           1       86599           0
</event>
<event>
      5   9999  3.79277E-02  7.16074E+00 -1.00000E+00  2.14169E-01
      21    -1     0     0   502   501  0.000000000E+00  0.000000000E+00  1.716595565E+03  1.716595565E+03  0.000000000E+00  0.00000E+00  9.000E+00
      21    -1     0     0   501   512  0.000000000E+00  0.000000000E+00 -2.183736878E+01  2.183736878E+01  0.000000000E+00  0.00000E+00  9.000E+00
      25     1     1     2     0     0 -2.609751984E+01 -3.461113756E+01  1.432127067E+03  1.438225277E+03  1.250000000E+02  0.00000E+00  9.000E+00
      25     1     1     2     0     0  1.912062709E+01  3.622332980E+01  2.618139180E+02  2.930004363E+02  1.250000000E+02  0.00000E+00  9.000E+00
      21     1     1     2   502   512  6.976892749E+00 -1.612192239E+00  8.172114646E-01  7.207220742E+00  2.862419592E-07  0.00000E+00  9.000E+00
#rwgt            1           1  0.13394654224543698                1       86763           0
</event>
<event>
      5   9999  3.79277E-02  2.55532E+01 -1.00000E+00  1.58042E-01
      21    -1     0     0   511   501  0.000000000E+00  0.000000000E+00  5.219049543E+02  5.219049543E+02  0.000000000E+00  0.00000E+00  9.000E+00
      21    -1     0     0   501   502  0.000000000E+00  0.000000000E+00 -9.343784696E+02  9.343784696E+02  0.000000000E+00  0.00000E+00  9.000E+00
      25     1     1     2     0     0 -3.155639831E+00  5.588509912E+01 -1.024261496E+02  1.710240290E+02  1.250000000E+02  0.00000E+00  9.000E+00
      25     1     1     2     0     0  2.134783522E+01 -3.794045515E+01 -7.918212798E+02  8.028082880E+02  1.250000000E+02  0.00000E+00  9.000E+00
      21     1     1     2   511   502 -1.819219539E+01 -1.794464397E+01  4.817739141E+02  4.824511068E+02  0.000000000E+00  0.00000E+00  9.000E+00
#rwgt            1           1   4.3091970541307277E-002           1       87070           0
</event>
<event>
      5   9999  3.79277E-02  5.11733E+01 -1.00000E+00  1.38503E-01
      21    -1     0     0   502   512  0.000000000E+00  0.000000000E+00  6.029732892E+01  6.029732892E+01  0.000000000E+00  0.00000E+00  9.000E+00
      21    -1     0     0   501   502  0.000000000E+00  0.000000000E+00 -6.903904825E+02  6.903904825E+02  0.000000000E+00  0.00000E+00  9.000E+00
      25     1     1     2     0     0 -3.070017547E+01  1.801997422E+01 -4.932900292E+02  5.101247624E+02  1.250000000E+02  0.00000E+00  9.000E+00
      25     1     1     2     0     0  3.170330700E+01 -6.918347263E+01 -1.076025547E+02  1.816446045E+02  1.250000000E+02  0.00000E+00  9.000E+00
      21     1     1     2   501   512 -1.003131532E+00  5.116349842E+01 -2.920056970E+01  5.891844460E+01  4.768371582E-07  0.00000E+00  9.000E+00
#rwgt            1           1   5.9034634774623319E-002           1       87212           0
</event>
<event>
      5   9999  3.79277E-02  1.33617E+02 -1.00000E+00  1.18420E-01
      21    -1     0     0   511   501  0.000000000E+00  0.000000000E+00  3.962141760E+02  3.962141760E+02  0.000000000E+00  0.00000E+00  9.000E+00
      21    -1     0     0   501   502  0.000000000E+00  0.000000000E+00 -3.871587766E+02  3.871587766E+02  0.000000000E+00  0.00000E+00  9.000E+00
      25     1     1     2     0     0  7.757829593E+01 -2.351884220E+02 -1.916825296E+01  2.780726663E+02  1.250000000E+02  0.00000E+00  9.000E+00
      25     1     1     2     0     0  5.600921823E+01  2.323652041E+02 -1.289796088E+02  2.989838793E+02  1.250000000E+02  0.00000E+00  9.000E+00
      21     1     1     2   511   502 -1.335875142E+02  2.823217918E+00  1.572032611E+02  2.063164070E+02  3.303624740E-06  0.00000E+00  9.000E+00
#rwgt            1           1   2.8060676996152063E-002           1       87356           0
</event>
<event>
      5   9999  3.79277E-02  3.14342E+01 -1.00000E+00  1.51644E-01
      21    -1     0     0   502   512  0.000000000E+00  0.000000000E+00  2.596971642E+02  2.596971642E+02  0.000000000E+00  0.00000E+00  9.000E+00
      21    -1     0     0   501   502  0.000000000E+00  0.000000000E+00 -1.507478879E+02  1.507478879E+02  0.000000000E+00  0.00000E+00  9.000E+00
      25     1     1     2     0     0 -5.515345086E+00  4.256393706E+01  7.588782922E+01  1.524010183E+02  1.250000000E+02  0.00000E+00  9.000E+00
      25     1     1     2     0     0  2.371017391E+01 -6.819700489E+01 -6.260558277E+01  1.573450438E+02  1.250000000E+02  0.00000E+00  9.000E+00
      21     1     1     2   501   512 -1.819482882E+01  2.563306783E+01  9.566702991E+01  1.006989899E+02  1.348699152E-06  0.00000E+00  9.000E+00
#rwgt            1           1   4.5738179341046063E-002           1       87428           0
</event>
<event>
      5   9999  3.79277E-02  5.38730E+00 -1.00000E+00  2.32991E-01
      21    -1     0     0   511   501  0.000000000E+00  0.000000000E+00  2.331627509E+02  2.331627509E+02  0.000000000E+00  0.00000E+00  9.000E+00
      21    -1     0     0   501   502  0.000000000E+00  0.000000000E+00 -3.154281438E+02  3.154281438E+02  0.000000000E+00  0.00000E+00  9.000E+00
      25     1     1     2     0     0 -1.345390568E+02 -6.405109913E+01 -2.271254290E+02  2.990221757E+02  1.250000000E+02  0.00000E+00  9.000E+00
      25     1     1     2     0     0  1.343036978E+02  5.866894208E+01  1.265352358E+02  2.304684228E+02  1.250000000E+02  0.00000E+00  9.000E+00
      21     1     1     2   511   502  2.353589787E-01  5.382157052E+00  1.832480026E+01  1.910029615E+01  4.129530925E-07  0.00000E+00  9.000E+00
#rwgt            1           1   2.9138129766290818E-002           1       87541           0
</event>
<event>
      5   9999  3.79277E-02  6.73737E+01 -1.00000E+00  1.32067E-01
      21    -1     0     0   502   501  0.000000000E+00  0.000000000E+00  5.017661013E+01  5.017661013E+01  0.000000000E+00  0.00000E+00  9.000E+00
      21    -1     0     0   512   502  0.000000000E+00  0.000000000E+00 -2.101039196E+03  2.101039196E+03  0.000000000E+00  0.00000E+00  9.000E+00
      25     1     1     2     0     0 -2.184834957E+02 -1.070705960E+02 -5.869436682E+02  6.475546464E+02  1.250000000E+02  0.00000E+00  9.000E+00
      25     1     1     2     0     0  1.564179823E+02  1.332829620E+02 -7.753173172E+02  8.117714429E+02  1.250000000E+02  0.00000E+00  9.000E+00
      21     1     1     2   512   501  6.206551338E+01 -2.621236595E+01 -6.886016008E+02  6.918897171E+02  1.078959322E-05  0.00000E+00  9.000E+00
#rwgt            1           1   4.1177065866284723E-002           1       87915           0
</event>
<event>
      5   9999  3.79277E-02  2.61908E+01 -1.00000E+00  1.57252E-01
      21    -1     0     0   502   501  0.000000000E+00  0.000000000E+00  6.842307072E+02  6.842307072E+02  0.000000000E+00  0.00000E+00  9.000E+00
      21    -1     0     0   501   511  0.000000000E+00  0.000000000E+00 -8.652883480E+01  8.652883480E+01  0.000000000E+00  0.00000E+00  9.000E+00
      25     1     1     2     0     0 -1.025594189E+02 -1.045144772E+02  1.642390624E+02  2.530635888E+02  1.250000000E+02  0.00000E+00  9.000E+00
      25     1     1     2     0     0  7.637421042E+01  1.039714827E+02  4.514818555E+02  4.859052943E+02  1.250000000E+02  0.00000E+00  9.000E+00
      21     1     1     2   502   511  2.618520850E+01  5.429945028E-01 -1.801904554E+01  3.179065884E+01  1.066240300E-06  0.00000E+00  9.000E+00
#rwgt            1           1   4.2668903792205948E-003           1       88008           0
</event>
<event>
      5   9999  3.79277E-02  5.06402E+01 -1.00000E+00  1.38761E-01
      21    -1     0     0   502   501  0.000000000E+00  0.000000000E+00  1.206915309E+03  1.206915309E+03  0.000000000E+00  0.00000E+00  9.000E+00
      21    -1     0     0   501   512  0.000000000E+00  0.000000000E+00 -5.372088434E+01  5.372088434E+01  0.000000000E+00  0.00000E+00  9.000E+00
      25     1     1     2     0     0 -1.426121759E+02 -1.048554615E+02  4.052478213E+02  4.595472741E+02  1.250000000E+02  0.00000E+00  9.000E+00
      25     1     1     2     0     0  9.802354572E+01  8.084965232E+01  7.229819581E+02  7.446295680E+02  1.250000000E+02  0.00000E+00  9.000E+00
      21     1     1     2   502   512  4.458863017E+01  2.400580914E+01  2.496464510E+01  5.645935103E+01  6.743495762E-07  0.00000E+00  9.000E+00
#rwgt            1           1   4.7931595579563301E-002           1       88113           0
</event>
<event>
      5   9999  3.79277E-02  1.02762E+02 -1.00000E+00  1.23298E-01
      21    -1     0     0   511   501  0.000000000E+00  0.000000000E+00  3.473827632E+02  3.473827632E+02  0.000000000E+00  0.00000E+00  9.000E+00
      21    -1     0     0   501   502  0.000000000E+00  0.000000000E+00 -2.048899348E+03  2.048899348E+03  0.000000000E+00  0.00000E+00  9.000E+00
      25     1     1     2     0     0  1.225343899E+01  3.995830017E+01 -1.983238021E+03  1.987612855E+03  1.250000000E+02  0.00000E+00  9.000E+00
      25     1     1     2     0     0  5.304183347E+01 -1.193085349E+02  2.331370328E+02  2.950014215E+02  1.250000000E+02  0.00000E+00  9.000E+00
      21     1     1     2   511   502 -6.529527246E+01  7.935023469E+01  4.858440368E+01  1.136678346E+02  3.090257978E-06  0.00000E+00  9.000E+00
#rwgt            1           1   1.8627603701077737E-002           1       88247           0
</event>
<event>
      5   9999  3.79277E-02  3.83171E+01 -1.00000E+00  1.46007E-01
      21    -1     0     0   502   501  0.000000000E+00  0.000000000E+00  1.579203556E+03  1.579203556E+03  0.000000000E+00  0.00000E+00  9.000E+00
      21    -1     0     0   501   512  0.000000000E+00  0.000000000E+00 -1.721766120E+02  1.721766120E+02  0.000000000E+00  0.00000E+00  9.000E+00
      25     1     1     2     0     0  4.729826773E+01 -3.497398439E+02  8.254143160E+02  9.063602361E+02  1.250000000E+02  0.00000E+00  9.000E+00
      25     1     1     2     0     0 -5.455038624E+01  3.121152468E+02  6.683816209E+02  7.501670901E+02  1.250000000E+02  0.00000E+00  9.000E+00
      21     1     1     2   502   512  7.252118508E+00  3.762459713E+01 -8.676899274E+01  9.485284199E+01  2.861022949E-06  0.00000E+00  9.000E+00
#rwgt            1           1   3.6417374368328266E-002           1       88399           0
</event>
<event>
      5   9999  3.79277E-02  4.74198E+01 -1.00000E+00  1.40401E-01
      21    -1     0     0   502   511  0.000000000E+00  0.000000000E+00  5.191090243E+02  5.191090243E+02  0.000000000E+00  0.00000E+00  9.000E+00
      21    -1     0     0   501   502  0.000000000E+00  0.000000000E+00 -1.684604658E+02  1.684604658E+02  0.000000000E+00  0.00000E+00  9.000E+00
      25     1     1     2     0     0  1.286221901E+02  3.315388037E+01  1.263833473E+02  2.219022263E+02  1.250000000E+02  0.00000E+00  9.000E+00
      25     1     1     2     0     0 -8.319102874E+01 -1.956537899E+01 -7.055873432E+01  1.670541418E+02  1.250000000E+02  0.00000E+00  9.000E+00
      21     1     1     2   501   511 -4.543116137E+01 -1.358850138E+01  2.948239455E+02  2.986131220E+02  0.000000000E+00  0.00000E+00  9.000E+00
#rwgt            1           1   2.2669657126232385E-002           1       88548           0
</event>
<event>
      5   9999  3.79277E-02  1.58960E+02 -1.00000E+00  1.15404E-01
      21    -1     0     0   502   501  0.000000000E+00  0.000000000E+00  1.055364754E+02  1.055364754E+02  0.000000000E+00  0.00000E+00  9.000E+00
       2    -1     0     0   501     0  0.000000000E+00  0.000000000E+00 -2.017077589E+03  2.017077589E+03  0.000000000E+00  0.00000E+00  9.000E+00
      25     1     1     2     0     0 -6.202829802E+01  2.181820306E+00 -8.707895315E+00  1.398323909E+02  1.250000000E+02  0.00000E+00  9.000E+00
      25     1     1     2     0     0  2.032584877E+02  7.077294430E+01 -3.969142172E+02  4.684962308E+02  1.250000000E+02  0.00000E+00  9.000E+00
       2     1     1     2   502     0 -1.412301896E+02 -7.295476460E+01 -1.505919001E+03  1.514285442E+03  0.000000000E+00  0.00000E+00  9.000E+00
#rwgt            1           1   4.4089204877019519E-002           1       88622           0
</event>
<event>
      5   9999  3.79277E-02  2.63375E+01 -1.00000E+00  1.57074E-01
      21    -1     0     0   502   501  0.000000000E+00  0.000000000E+00  2.447899204E+02  2.447899204E+02  0.000000000E+00  0.00000E+00  9.000E+00
      21    -1     0     0   511   502  0.000000000E+00  0.000000000E+00 -1.729853134E+03  1.729853134E+03  0.000000000E+00  0.00000E+00  9.000E+00
      25     1     1     2     0     0 -5.698654440E+02  1.442449919E+02 -9.788127316E+02  1.148587222E+03  1.250000000E+02  0.00000E+00  9.000E+00
      25     1     1     2     0     0  5.692394354E+02 -1.705750372E+02 -4.264826621E+02  7.420524504E+02  1.250000000E+02  0.00000E+00  9.000E+00
      21     1     1     2   511   501  6.260085631E-01  2.633004524E+01 -7.976781996E+01  8.400338249E+01  9.536743164E-07  0.00000E+00  9.000E+00
#rwgt            1           1   2.5910309737886418E-002           1       88717           0
</event>
<event>
      5   9999  3.79277E-02  1.61276E+01 -1.00000E+00  1.74469E-01
      21    -1     0     0   512   501  0.000000000E+00  0.000000000E+00  4.863494367E+02  4.863494367E+02  0.000000000E+00  0.00000E+00  9.000E+00
      21    -1     0     0   501   502  0.000000000E+00  0.000000000E+00 -8.634322956E+01  8.634322956E+01  0.000000000E+00  0.00000E+00  9.000E+00
      25     1     1     2     0     0  8.983311706E+01 -8.051988393E+00  7.011983127E+01  1.693417083E+02  1.250000000E+02  0.00000E+00  9.000E+00
      25     1     1     2     0     0 -9.515164945E+01  2.327734497E+01  1.368417031E+02  2.096337828E+02  1.250000000E+02  0.00000E+00  9.000E+00
      21     1     1     2   512   502  5.318532390E+00 -1.522535658E+01  1.930446727E+02  1.937171751E+02  2.697398305E-06  0.00000E+00  9.000E+00
#rwgt            1           1   4.2897845956486436E-002           1       88994           0
</event>
<event>
      5   9999  3.79277E-02  1.35977E+02 -1.00000E+00  1.18108E-01
      21    -1     0     0   502   511  0.000000000E+00  0.000000000E+00  8.923145195E+02  8.923145195E+02  0.000000000E+00  0.00000E+00  9.000E+00
      21    -1     0     0   501   502  0.000000000E+00  0.000000000E+00 -8.396207672E+01  8.396207672E+01  0.000000000E+00  0.00000E+00  9.000E+00
      25     1     1     2     0     0 -1.963029936E+02 -5.010796569E+01  3.206682932E+02  3.993730434E+02  1.250000000E+02  0.00000E+00  9.000E+00
      25     1     1     2     0     0  1.064326432E+02 -5.193615033E+01  2.690719065E+02  3.194525976E+02  1.250000000E+02  0.00000E+00  9.000E+00
      21     1     1     2   501   511  8.987035049E+01  1.020441160E+02  2.186122431E+02  2.574509552E+02  0.000000000E+00  0.00000E+00  9.000E+00
#rwgt            1           1   2.9013438074348655E-002           1       89246           0
</event>
<event>
      5   9999  3.79277E-02  6.04611E+01 -1.00000E+00  1.34526E-01
      21    -1     0     0   502   501  0.000000000E+00  0.000000000E+00  8.406669647E+01  8.406669647E+01  0.000000000E+00  0.00000E+00  9.000E+00
      21    -1     0     0   501   512  0.000000000E+00  0.000000000E+00 -7.370240430E+02  7.370240430E+02  0.000000000E+00  0.00000E+00  9.000E+00
      25     1     1     2     0     0 -4.603121400E+01  2.292086996E+01  4.886945778E+00  1.352520654E+02  1.250000000E+02  0.00000E+00  9.000E+00
      25     1     1     2     0     0 -1.442677133E+01 -2.230752549E+01 -3.624027147E+02  3.842739713E+02  1.250000000E+02  0.00000E+00  9.000E+00
      21     1     1     2   502   512  6.045798533E+01 -6.133444674E-01 -2.954415777E+02  3.015647028E+02  6.607249480E-06  0.00000E+00  9.000E+00
#rwgt            1           1   3.6918140157882792E-002           1       89408           0
</event>
<event>
      5   9999  3.79277E-02  1.20455E+02 -1.00000E+00  1.20299E-01
      21    -1     0     0   511   501  0.000000000E+00  0.000000000E+00  9.587561510E+02  9.587561510E+02  0.000000000E+00  0.00000E+00  9.000E+00
      21    -1     0     0   501   502  0.000000000E+00  0.000000000E+00 -9.130997750E+01  9.130997750E+01  0.000000000E+00  0.00000E+00  9.000E+00
      25     1     1     2     0     0  5.852548690E+01 -2.695708082E+01  3.958364045E+02  4.200754408E+02  1.250000000E+02  0.00000E+00  9.000E+00
      25     1     1     2     0     0 -1.599881642E+02 -3.796315105E+01  8.207685706E+01  2.222589121E+02  1.250000000E+02  0.00000E+00  9.000E+00
      21     1     1     2   511   502  1.014626773E+02  6.492023187E+01  3.895329119E+02  4.077317756E+02  5.394796609E-06  0.00000E+00  9.000E+00
#rwgt            1           1   3.3742565954761550E-002           1       89482           0
</event>
<event>
      5   9999  3.79277E-02  1.66236E+02 -1.00000E+00  1.14652E-01
      21    -1     0     0   502   512  0.000000000E+00  0.000000000E+00  1.512438743E+02  1.512438743E+02  0.000000000E+00  0.00000E+00  9.000E+00
      21    -1     0     0   501   502  0.000000000E+00  0.000000000E+00 -6.993514531E+02  6.993514531E+02  0.000000000E+00  0.00000E+00  9.000E+00
      25     1     1     2     0     0  1.723920255E+02 -3.525859792E+01 -2.318131272E+02  3.167404381E+02  1.250000000E+02  0.00000E+00  9.000E+00
      25     1     1     2     0     0 -5.675609277E+01  1.546852403E+02 -3.033117005E+02  3.671127420E+02  1.250000000E+02  0.00000E+00  9.000E+00
      21     1     1     2   501   512 -1.156359327E+02 -1.194266424E+02 -1.298275106E+01  1.667421473E+02  3.784777609E-06  0.00000E+00  9.000E+00
#rwgt            1           1   3.0198329377254841E-002           1       89565           0
</event>
<event>
      5   9999  3.79277E-02  3.38693E+01 -1.00000E+00  1.49468E-01
      21    -1     0     0   502   501  0.000000000E+00  0.000000000E+00  2.101797316E+02  2.101797316E+02  0.000000000E+00  0.00000E+00  9.000E+00
      21    -1     0     0   501   511  0.000000000E+00  0.000000000E+00 -3.542816595E+02  3.542816595E+02  0.000000000E+00  0.00000E+00  9.000E+00
      25     1     1     2     0     0  9.848126609E+01  1.262615699E+02  4.707058827E+01  2.085214235E+02  1.250000000E+02  0.00000E+00  9.000E+00
      25     1     1     2     0     0 -1.100960060E+02 -9.444600712E+01 -3.315482261E+01  1.943332731E+02  1.250000000E+02  0.00000E+00  9.000E+00
      21     1     1     2   502   511  1.161473988E+01 -3.181556274E+01 -1.580176935E+02  1.616066944E+02  1.907348633E-06  0.00000E+00  9.000E+00
#rwgt            1           1   2.5887278307232829E-002           1       89627           0
</event>
<event>
      5   9999 -3.79277E-02  1.16346E+02 -1.00000E+00  1.20941E-01
      21    -1     0     0   502   501  0.000000000E+00  0.000000000E+00  4.700956977E+02  4.700956977E+02  0.000000000E+00  0.00000E+00  9.000E+00
      21    -1     0     0   501   512  0.000000000E+00  0.000000000E+00 -2.576629099E+02  2.576629099E+02  0.000000000E+00  0.00000E+00  9.000E+00
      25     1     1     2     0     0 -1.400514432E+01  7.416833819E+01  3.611693161E+01  1.504211395E+02  1.250000000E+02  0.00000E+00  9.000E+00
      25     1     1     2     0     0  1.014893383E+02 -1.508679025E+02  3.223425344E+02  3.906288767E+02  1.250000000E+02  0.00000E+00  9.000E+00
      21     1     1     2   502   512 -8.748419402E+01  7.669956434E+01 -1.460266782E+02  1.867085914E+02  1.907348633E-06  0.00000E+00  9.000E+00
#rwgt            1           1  -1.4534417016810946E-002           1       89724           0
</event>
<event>
      5   9999  3.79277E-02  4.09599E+01 -1.00000E+00  1.44204E-01
      21    -1     0     0   502   501  0.000000000E+00  0.000000000E+00  1.722433503E+03  1.722433503E+03  0.000000000E+00  0.00000E+00  9.000E+00
      21    -1     0     0   511   502  0.000000000E+00  0.000000000E+00 -2.802747620E+01  2.802747620E+01  0.000000000E+00  0.00000E+00  9.000E+00
      25     1     1     2     0     0  1.282765049E+02  6.930088936E+01  6.502533100E+02  6.780205323E+02  1.250000000E+02  0.00000E+00  9.000E+00
      25     1     1     2     0     0 -1.467172102E+02 -3.272692851E+01  9.476215378E+02  9.675787154E+02  1.250000000E+02  0.00000E+00  9.000E+00
      21     1     1     2   511   501  1.844070535E+01 -3.657396085E+01  9.653117907E+01  1.048617316E+02  1.348699152E-06  0.00000E+00  9.000E+00
#rwgt            1           1   4.3159788223870912E-002           1       89805           0
</event>
<event>
      5   9999  3.79277E-02  4.02753E+01 -1.00000E+00  1.44656E-01
      21    -1     0     0   502   512  0.000000000E+00  0.000000000E+00  9.311596807E+02  9.311596807E+02  0.000000000E+00  0.00000E+00  9.000E+00
      21    -1     0     0   501   502  0.000000000E+00  0.000000000E+00 -4.350325928E+01  4.350325928E+01  0.000000000E+00  0.00000E+00  9.000E+00
      25     1     1     2     0     0  1.245430473E+02 -4.208778467E+01  3.900386220E+02  4.301598294E+02  1.250000000E+02  0.00000E+00  9.000E+00
      25     1     1     2     0     0 -1.245852330E+02  1.812461148E+00  3.572066949E+02  3.984299037E+02  1.250000000E+02  0.00000E+00  9.000E+00
      21     1     1     2   501   512  4.218573844E-02  4.027532353E+01  1.404111046E+02  1.460732068E+02  2.697398305E-06  0.00000E+00  9.000E+00
#rwgt            1           1   3.3664303598130052E-002           1       90071           0
</event>
<event>
      5   9999  3.79277E-02  1.03369E+02 -1.00000E+00  1.23184E-01
      21    -1     0     0   502   501  0.000000000E+00  0.000000000E+00  5.546076280E+02  5.546076280E+02  0.000000000E+00  0.00000E+00  9.000E+00
       3    -1     0     0   501     0  0.000000000E+00  0.000000000E+00 -6.675158823E+02  6.675158823E+02  0.000000000E+00  0.00000E+00  9.000E+00
      25     1     1     2     0     0 -9.283564011E+01 -1.858509274E+02 -4.233106278E+02  4.878277471E+02  1.250000000E+02  0.00000E+00  9.000E+00
      25     1     1     2     0     0  5.619181918E+00  2.413337601E+02  4.706998401E+02  5.435594710E+02  1.250000000E+02  0.00000E+00  9.000E+00
       3     1     1     2   502     0  8.721645819E+01 -5.548283263E+01 -1.602974667E+02  1.907362921E+02  1.907348633E-06  0.00000E+00  9.000E+00
#rwgt            1           1  0.14987683859156273                1       90240           0
</event>
<event>
      5   9999  3.79277E-02  2.04256E+01 -1.00000E+00  1.65618E-01
      21    -1     0     0   502   501  0.000000000E+00  0.000000000E+00  2.151561718E+02  2.151561718E+02  0.000000000E+00  0.00000E+00  9.000E+00
      21    -1     0     0   501   511  0.000000000E+00  0.000000000E+00 -2.059782744E+02  2.059782744E+02  0.000000000E+00  0.00000E+00  9.000E+00
      25     1     1     2     0     0 -1.165714326E+02 -5.591600806E+00  8.813212515E+01  1.923861647E+02  1.250000000E+02  0.00000E+00  9.000E+00
      25     1     1     2     0     0  1.309473921E+02 -8.918265123E+00 -4.127789108E+01  1.858914179E+02  1.250000000E+02  0.00000E+00  9.000E+00
      21     1     1     2   502   511 -1.437595950E+01  1.450986593E+01 -3.767633667E+01  4.285686369E+01  0.000000000E+00  0.00000E+00  9.000E+00
#rwgt            1           1   3.1235209472074733E-002           1       90296           0
</event>
<event>
      5   9999  3.79277E-02  8.82624E+01 -1.00000E+00  1.26317E-01
      21    -1     0     0   512   501  0.000000000E+00  0.000000000E+00  7.362606339E+02  7.362606339E+02  0.000000000E+00  0.00000E+00  9.000E+00
      21    -1     0     0   501   502  0.000000000E+00  0.000000000E+00 -4.059588254E+02  4.059588254E+02  0.000000000E+00  0.00000E+00  9.000E+00
      25     1     1     2     0     0  2.347065126E+02 -5.686690577E+01 -1.095007879E+02  2.931491337E+02  1.250000000E+02  0.00000E+00  9.000E+00
      25     1     1     2     0     0 -1.986294656E+02 -2.368552956E+01 -1.321306184E+02  2.703667310E+02  1.250000000E+02  0.00000E+00  9.000E+00
      21     1     1     2   512   502 -3.607704699E+01  8.055243533E+01  5.719332149E+02  5.787035946E+02  1.078959322E-05  0.00000E+00  9.000E+00
#rwgt            1           1   3.8467950109599713E-003           1       90423           0
</event>
<event>
      5   9999  3.79277E-02  3.09872E+01 -1.00000E+00  1.52070E-01
      21    -1     0     0   502   511  0.000000000E+00  0.000000000E+00  1.785142730E+02  1.785142730E+02  0.000000000E+00  0.00000E+00  9.000E+00
      21    -1     0     0   501   502  0.000000000E+00  0.000000000E+00 -2.743097026E+02  2.743097026E+02  0.000000000E+00  0.00000E+00  9.000E+00
      25     1     1     2     0     0 -1.802296890E+01  2.649559991E+01 -2.105604855E+02  2.469566000E+02  1.250000000E+02  0.00000E+00  9.000E+00
      25     1     1     2     0     0  4.772331500E+01 -1.765850686E+01  7.173365403E+01  1.528399646E+02  1.250000000E+02  0.00000E+00  9.000E+00
      21     1     1     2   501   511 -2.970034610E+01 -8.837093055E+00  4.303140189E+01  5.302741103E+01  0.000000000E+00  0.00000E+00  9.000E+00
#rwgt            1           1   2.8806894421385319E-002           1       90526           0
</event>
<event>
      5   9999  3.79277E-02  3.88574E+01 -1.00000E+00  1.45625E-01
      21    -1     0     0   502   501  0.000000000E+00  0.000000000E+00  3.612101621E+01  3.612101621E+01  0.000000000E+00  0.00000E+00  9.000E+00
      21    -1     0     0   512   502  0.000000000E+00  0.000000000E+00 -1.077088005E+03  1.077088005E+03  0.000000000E+00  0.00000E+00  9.000E+00
      25     1     1     2     0     0  4.625318051E+01 -1.090797140E+02 -2.738718175E+02  3.235251353E+02  1.250000000E+02  0.00000E+00  9.000E+00
      25     1     1     2     0     0 -3.594431697E+01  7.161472611E+01 -6.219387638E+02  6.394165222E+02  1.250000000E+02  0.00000E+00  9.000E+00
      21     1     1     2   512   501 -1.030886354E+01  3.746498788E+01 -1.451564072E+02  1.502673635E+02  1.907348633E-06  0.00000E+00  9.000E+00
#rwgt            1           1   2.5885016033457664E-002           1       90686           0
</event>
<event>
      5   9999 -3.79277E-02  7.54276E+01 -1.00000E+00  1.29599E-01
      21    -1     0     0   502   501  0.000000000E+00  0.000000000E+00  6.234544825E+02  6.234544825E+02  0.000000000E+00  0.00000E+00  9.000E+00
      21    -1     0     0   511   502  0.000000000E+00  0.000000000E+00 -2.680045137E+02  2.680045137E+02  0.000000000E+00  0.00000E+00  9.000E+00
      25     1     1     2     0     0  1.187147300E+02 -3.216221174E+02  2.714954408E+02  4.548282620E+02  1.250000000E+02  0.00000E+00  9.000E+00
      25     1     1     2     0     0 -1.261360724E+02  2.465604589E+02  1.477224832E+02  3.378598832E+02  1.250000000E+02  0.00000E+00  9.000E+00
      21     1     1     2   511   501  7.421342361E+00  7.506165848E+01 -6.376795523E+01  9.877085101E+01  1.507891493E-06  0.00000E+00  9.000E+00
#rwgt            1           1  -5.8997909288674016E-002           1       90987           0
</event>
<event>
      5   9999  3.79277E-02  9.67160E+00 -1.00000E+00  1.97449E-01
      21    -1     0     0   502   501  0.000000000E+00  0.000000000E+00  2.625619607E+01  2.625619607E+01  0.000000000E+00  0.00000E+00  9.000E+00
      21    -1     0     0   501   512  0.000000000E+00  0.000000000E+00 -1.280350713E+03  1.280350713E+03  0.000000000E+00  0.00000E+00  9.000E+00
      25     1     1     2     0     0 -5.357811398E+00  2.189785933E+01 -9.852538408E+02  9.934074457E+02  1.250000000E+02  0.00000E+00  9.000E+00
      25     1     1     2     0     0  5.822108586E+00 -3.155830627E+01 -1.677541215E+02  2.116512908E+02  1.250000000E+02  0.00000E+00  9.000E+00
      21     1     1     2   502   512 -4.642971874E-01  9.660446938E+00 -1.010865543E+02  1.015481721E+02  1.348699152E-06  0.00000E+00  9.000E+00
#rwgt            1           1   5.6527023595812402E-002           1       91120           0
</event>
<event>
      5   9999  3.79277E-02  7.95679E+01 -1.00000E+00  1.28463E-01
      21    -1     0     0   502   501  0.000000000E+00  0.000000000E+00  1.394788784E+02  1.394788784E+02  0.000000000E+00  0.00000E+00  9.000E+00
      21    -1     0     0   501   511  0.000000000E+00  0.000000000E+00 -8.109031823E+02  8.109031823E+02  0.000000000E+00  0.00000E+00  9.000E+00
      25     1     1     2     0     0  1.180795600E+02 -6.110945440E+01 -1.053980812E+02  2.107389462E+02  1.250000000E+02  0.00000E+00  9.000E+00
      25     1     1     2     0     0 -8.108066185E+01  1.315518799E+02 -3.393395412E+01  2.016345310E+02  1.250000000E+02  0.00000E+00  9.000E+00
      21     1     1     2   502   511 -3.699889814E+01 -7.044242553E+01 -5.320922685E+02  5.380085836E+02  7.629394531E-06  0.00000E+00  9.000E+00
#rwgt            1           1   3.9597256242141415E-002           1       91471           0
</event>
<event>
      5   9999  3.79277E-02  2.83184E+01 -1.00000E+00  1.54800E-01
      21    -1     0     0   502   501  0.000000000E+00  0.000000000E+00  1.273973859E+02  1.273973859E+02  0.000000000E+00  0.00000E+00  9.000E+00
      21    -1     0     0   512   502  0.000000000E+00  0.000000000E+00 -4.147183157E+02  4.147183157E+02  0.000000000E+00  0.00000E+00  9.000E+00
      25     1     1     2     0     0 -2.100133002E+01  4.460932808E+01  6.367020385E+01  1.486941252E+02  1.250000000E+02  0.00000E+00  9.000E+00
      25     1     1     2     0     0  2.262813507E+01 -7.288098554E+01 -2.635387415E+02  3.014984889E+02  1.250000000E+02  0.00000E+00  9.000E+00
      21     1     1     2   512   501 -1.626805055E+00  2.827165746E+01 -8.745239217E+01  9.192308745E+01  9.536743164E-07  0.00000E+00  9.000E+00
#rwgt            1           1   4.4826106019938791E-002           1       91581           0
</event>
<event>
      5   9999  3.79277E-02  1.29972E+01 -1.00000E+00  1.83455E-01
      21    -1     0     0   502   501  0.000000000E+00  0.000000000E+00  1.017732545E+02  1.017732545E+02  0.000000000E+00  0.00000E+00  9.000E+00
      21    -1     0     0   501   511  0.000000000E+00  0.000000000E+00 -3.700344682E+02  3.700344682E+02  0.000000000E+00  0.00000E+00  9.000E+00
      25     1     1     2     0     0 -1.179090016E+02 -1.186252337E+01 -2.098506172E+02  2.714876308E+02  1.250000000E+02  0.00000E+00  9.000E+00
      25     1     1     2     0     0  1.142411772E+02 -6.064135570E-01 -3.408118275E+01  1.727366241E+02  1.250000000E+02  0.00000E+00  9.000E+00
      21     1     1     2   502   511  3.667824403E+00  1.246893693E+01 -2.432941370E+01  2.758346778E+01  3.371747881E-07  0.00000E+00  9.000E+00
#rwgt            1           1   3.3037764073925169E-002           1       91742           0
</event>
<event>
      5   9999  3.79277E-02  1.25106E+02 -1.00000E+00  1.19605E-01
       2    -1     0     0   502     0  0.000000000E+00  0.000000000E+00  3.824762798E+03  3.824762798E+03  0.000000000E+00  0.00000E+00  9.000E+00
      21    -1     0     0   501   502  0.000000000E+00  0.000000000E+00 -9.446260990E+01  9.446260990E+01  0.000000000E+00  0.00000E+00  9.000E+00
      25     1     1     2     0     0 -8.552853048E+01  3.784525311E+02  5.768254212E+02  7.063242983E+02  1.250000000E+02  0.00000E+00  9.000E+00
      25     1     1     2     0     0  1.468356568E+02 -2.693980633E+02  9.543423993E+02  1.010213067E+03  1.250000000E+02  0.00000E+00  9.000E+00
       2     1     1     2   501     0 -6.130712627E+01 -1.090544679E+02  2.199132368E+03  2.202688042E+03  5.285799584E-05  0.00000E+00  9.000E+00
#rwgt            1           1   2.7859274351682020E-002           1       91940           0
</event>
<event>
      5   9999  3.79277E-02  8.62425E+00 -1.00000E+00  2.03494E-01
      21    -1     0     0   502   501  0.000000000E+00  0.000000000E+00  1.134327290E+03  1.134327290E+03  0.000000000E+00  0.00000E+00  9.000E+00
      21    -1     0     0   511   502  0.000000000E+00  0.000000000E+00 -3.038339635E+01  3.038339635E+01  0.000000000E+00  0.00000E+00  9.000E+00
      25     1     1     2     0     0  4.255052508E+01  1.928460339E+01  9.251581865E+02  9.347326427E+02  1.250000000E+02  0.00000E+00  9.000E+00
      25     1     1     2     0     0 -4.278401478E+01 -2.790569089E+01  1.735275356E+02  2.198772501E+02  1.250000000E+02  0.00000E+00  9.000E+00
      21     1     1     2   511   501  2.334897013E-01  8.621087500E+00  5.258171871E+00  1.010079396E+01  0.000000000E+00  0.00000E+00  9.000E+00
#rwgt            1           1   5.9308761869471295E-002           1       92070           0
</event>
<event>
      5   9999  3.79277E-02  3.06134E+01 -1.00000E+00  1.52432E-01
      21    -1     0     0   502   501  0.000000000E+00  0.000000000E+00  1.603827368E+03  1.603827368E+03  0.000000000E+00  0.00000E+00  9.000E+00
      21    -1     0     0   512   502  0.000000000E+00  0.000000000E+00 -4.474388274E+02  4.474388274E+02  0.000000000E+00  0.00000E+00  9.000E+00
      25     1     1     2     0     0 -1.072670966E+02  9.063629148E+01  1.234293844E+03  1.248530120E+03  1.250000000E+02  0.00000E+00  9.000E+00
      25     1     1     2     0     0  1.045959685E+02 -6.013962683E+01  3.410046007E+02  3.827090658E+02  1.250000000E+02  0.00000E+00  9.000E+00
      21     1     1     2   512   501  2.671128109E+00 -3.049666465E+01 -4.189099038E+02  4.200270099E+02  1.078959322E-05  0.00000E+00  9.000E+00
#rwgt            1           1   4.6649595045691432E-002           1       92445           0
</event>
<event>
      5   9999  3.79277E-02  1.80348E+01 -1.00000E+00  1.70163E-01
      21    -1     0     0   502   501  0.000000000E+00  0.000000000E+00  7.696057303E+01  7.696057303E+01  0.000000000E+00  0.00000E+00  9.000E+00
      21    -1     0     0   501   511  0.000000000E+00  0.000000000E+00 -1.273172897E+03  1.273172897E+03  0.000000000E+00  0.00000E+00  9.000E+00
      25     1     1     2     0     0  4.497163267E+01 -6.538576992E+01 -1.056105865E+03  1.066434407E+03  1.250000000E+02  0.00000E+00  9.000E+00
      25     1     1     2     0     0 -5.261662990E+01  8.172001088E+01 -1.696799419E+01  1.592469238E+02  1.250000000E+02  0.00000E+00  9.000E+00
      21     1     1     2   502   511  7.644997237E+00 -1.633424096E+01 -1.231384654E+02  1.244521396E+02  1.348699152E-06  0.00000E+00  9.000E+00
#rwgt            1           1   2.7372110170630633E-002           1       92573           0
</event>
<event>
      5   9999  3.79277E-02  5.61625E+00 -1.00000E+00  2.30024E-01
       1    -1     0     0   502     0  0.000000000E+00  0.000000000E+00  5.079085651E+02  5.079085651E+02  0.000000000E+00  0.00000E+00  9.000E+00
      21    -1     0     0   501   502  0.000000000E+00  0.000000000E+00 -2.274077097E+02  2.274077097E+02  0.000000000E+00  0.00000E+00  9.000E+00
      25     1     1     2     0     0  2.038882826E+01  1.443732037E+02 -7.039322187E+01  2.045471387E+02  1.250000000E+02  0.00000E+00  9.000E+00
      25     1     1     2     0     0 -1.918992982E+01 -1.498599953E+02  1.699743495E+01  1.968252636E+02  1.250000000E+02  0.00000E+00  9.000E+00
       1     1     1     2   501     0 -1.198898445E+00  5.486791647E+00  3.338966423E+02  3.339438725E+02  5.394796609E-06  0.00000E+00  9.000E+00
#rwgt            1           1   4.4721527994638473E-002           1       92766           0
</event>
<event>
      5   9999  3.79277E-02  7.01276E+01 -1.00000E+00  1.31181E-01
      -3    -1     0     0     0   501  0.000000000E+00  0.000000000E+00  7.187862054E+01  7.187862054E+01  0.000000000E+00  0.00000E+00  9.000E+00
      21    -1     0     0   501   502  0.000000000E+00  0.000000000E+00 -1.134698233E+03  1.134698233E+03  0.000000000E+00  0.00000E+00  9.000E+00
      25     1     1     2     0     0  4.944803487E+01 -1.080155464E+02 -6.980693943E+02  7.190537849E+02  1.250000000E+02  0.00000E+00  9.000E+00
      25     1     1     2     0     0 -2.275653724E+01  1.728648917E+02 -3.576202117E+02  4.170339873E+02  1.250000000E+02  0.00000E+00  9.000E+00
      -3     1     1     2     0   502 -2.669149763E+01 -6.484934531E+01 -7.130006850E+00  7.048908164E+01  7.679521279E-07  0.00000E+00  9.000E+00
#rwgt            1           1   4.2508625585969753E-002           1       93026           0
</event>
<event>
      5   9999  3.79277E-02  2.49187E+01 -1.00000E+00  1.58857E-01
      21    -1     0     0   502   511  0.000000000E+00  0.000000000E+00  2.204029740E+02  2.204029740E+02  0.000000000E+00  0.00000E+00  9.000E+00
      21    -1     0     0   501   502  0.000000000E+00  0.000000000E+00 -1.223786687E+03  1.223786687E+03  0.000000000E+00  0.00000E+00  9.000E+00
      25     1     1     2     0     0 -4.786443829E+01  1.257284601E+02 -1.070670236E+03  1.086304932E+03  1.250000000E+02  0.00000E+00  9.000E+00
      25     1     1     2     0     0  2.886404058E+01 -1.418507487E+02 -8.086589925E+01  2.076512976E+02  1.250000000E+02  0.00000E+00  9.000E+00
      21     1     1     2   501   511  1.900039771E+01  1.612228862E+01  1.481524231E+02  1.502334310E+02  1.907348633E-06  0.00000E+00  9.000E+00
#rwgt            1           1   5.2943248226084566E-002           1       93170           0
</event>
<event>
      5   9999  3.79277E-02  5.71394E+01 -1.00000E+00  1.35847E-01
      21    -1     0     0   512   501  0.000000000E+00  0.000000000E+00  2.920439877E+02  2.920439877E+02  0.000000000E+00  0.00000E+00  9.000E+00
      21    -1     0     0   501   502  0.000000000E+00  0.000000000E+00 -1.407896115E+02  1.407896115E+02  0.000000000E+00  0.00000E+00  9.000E+00
      25     1     1     2     0     0  1.119473612E+02  3.734579891E+01  9.823322453E+01  1.979941584E+02  1.250000000E+02  0.00000E+00  9.000E+00
      25     1     1     2     0     0 -5.796707003E+01 -5.608182334E+01 -1.082784556E+01  1.491562749E+02  1.250000000E+02  0.00000E+00  9.000E+00
      21     1     1     2   512   502 -5.398029117E+01  1.873602443E+01  6.384899723E+01  8.568316576E+01  6.743495762E-07  0.00000E+00  9.000E+00
#rwgt            2          11   1.8299554695001929E-003           1       93331           0
</event>
<event>
      5   9999  3.79277E-02  2.89110E+01 -1.00000E+00  1.54164E-01
       2    -1     0     0   502     0  0.000000000E+00  0.000000000E+00  5.516022742E+02  5.516022742E+02  0.000000000E+00  0.00000E+00  9.000E+00
      21    -1     0     0   501   502  0.000000000E+00  0.000000000E+00 -7.287943265E+02  7.287943265E+02  0.000000000E+00  0.00000E+00  9.000E+00
      25     1     1     2     0     0  1.098180319E+02  8.056219908E+01 -5.305763384E+02  5.618598748E+02  1.250000000E+02  0.00000E+00  9.000E+00
      25     1     1     2     0     0 -8.540862018E+01 -6.506950203E+01 -1.448903924E+02  2.194240149E+02  1.250000000E+02  0.00000E+00  9.000E+00
       2     1     1     2   501     0 -2.440941168E+01 -1.549269705E+01  4.982746785E+02  4.991127110E+02  1.078959322E-05  0.00000E+00  9.000E+00
#rwgt            1           1   3.3590085215671625E-002           1       93441           0
</event>
<event>
      5   9999  3.79277E-02  1.11874E+01 -1.00000E+00  1.90288E-01
      21    -1     0     0   502   501  0.000000000E+00  0.000000000E+00  1.115258816E+03  1.115258816E+03  0.000000000E+00  0.00000E+00  9.000E+00
      21    -1     0     0   501   511  0.000000000E+00  0.000000000E+00 -2.785921383E+02  2.785921383E+02  0.000000000E+00  0.00000E+00  9.000E+00
      25     1     1     2     0     0  1.607709025E+02 -1.771025853E+02  8.829054744E+02  9.232332780E+02  1.250000000E+02  0.00000E+00  9.000E+00
      25     1     1     2     0     0 -1.622618988E+02  1.660149930E+02  1.300416863E+02  2.939825537E+02  1.250000000E+02  0.00000E+00  9.000E+00
      21     1     1     2   502   511  1.490996275E+00  1.108759226E+01 -1.762804831E+02  1.766351225E+02  3.814697266E-06  0.00000E+00  9.000E+00
#rwgt            1           1   3.0762707369417018E-002           1       93552           0
</event>
<event>
      5   9999  3.79277E-02  3.23381E+01 -1.00000E+00  1.50810E-01
      21    -1     0     0   512   501  0.000000000E+00  0.000000000E+00  1.977888179E+02  1.977888179E+02  0.000000000E+00  0.00000E+00  9.000E+00
      21    -1     0     0   501   502  0.000000000E+00  0.000000000E+00 -3.208206081E+02  3.208206081E+02  0.000000000E+00  0.00000E+00  9.000E+00
      25     1     1     2     0     0 -1.875474406E+01 -1.859433357E+02 -5.374343225E+01  2.311709779E+02  1.250000000E+02  0.00000E+00  9.000E+00
      25     1     1     2     0     0  8.596265922E+00  1.552422203E+02 -1.158903527E+02  2.307154451E+02  1.250000000E+02  0.00000E+00  9.000E+00
      21     1     1     2   512   502  1.015847814E+01  3.070111539E+01  4.660199466E+01  5.672300301E+01  6.743495762E-07  0.00000E+00  9.000E+00
#rwgt            1           1   3.8717521582681783E-002           1       93930           0
</event>
<event>
      5   9999  3.79277E-02  3.29278E+01 -1.00000E+00  1.50283E-01
      21    -1     0     0   502   501  0.000000000E+00  0.000000000E+00  1.245258548E+02  1.245258548E+02  0.000000000E+00  0.00000E+00  9.000E+00
      21    -1     0     0   501   511  0.000000000E+00  0.000000000E+00 -2.903947240E+03  2.903947240E+03  0.000000000E+00  0.00000E+00  9.000E+00
      25     1     1     2     0     0 -1.093037863E+02 -7.901016341E+00  1.726711536E+00  1.662459783E+02  1.250000000E+02  0.00000E+00  9.000E+00
      25     1     1     2     0     0  9.528915617E+01  3.769748213E+01 -1.210835590E+02  2.019587872E+02  1.250000000E+02  0.00000E+00  9.000E+00
      21     1     1     2   502   511  1.401463017E+01 -2.979646578E+01 -2.660064538E+03  2.660268329E+03  0.000000000E+00  0.00000E+00  9.000E+00
#rwgt            1           1   2.6564786291269859E-002           1       94154           0
</event>
<event>
      5   9999  3.79277E-02  2.17826E+01 -1.00000E+00  1.63367E-01
      21    -1     0     0   502   501  0.000000000E+00  0.000000000E+00  1.453739764E+03  1.453739764E+03  0.000000000E+00  0.00000E+00  9.000E+00
      21    -1     0     0   512   502  0.000000000E+00  0.000000000E+00 -5.037006059E+01  5.037006059E+01  0.000000000E+00  0.00000E+00  9.000E+00
      25     1     1     2     0     0 -2.942346816E+00  9.257290504E+01  1.271316592E+03  1.280800249E+03  1.250000000E+02  0.00000E+00  9.000E+00
      25     1     1     2     0     0 -1.810100978E+01 -8.694622521E+01  9.515827283E+01  1.804643719E+02  1.250000000E+02  0.00000E+00  9.000E+00
      21     1     1     2   512   501  2.104335660E+01 -5.626679834E+00  3.689483833E+01  4.284520368E+01  1.066240300E-06  0.00000E+00  9.000E+00
#rwgt            1           1   5.1835935120156960E-002           1       94311           0
</event>
<event>
      5   9999  3.79277E-02  6.95778E+01 -1.00000E+00  1.31354E-01
      21    -1     0     0   502   501  0.000000000E+00  0.000000000E+00  3.972583012E+01  3.972583012E+01  0.000000000E+00  0.00000E+00  9.000E+00
      21    -1     0     0   501   511  0.000000000E+00  0.000000000E+00 -1.327426357E+03  1.327426357E+03  0.000000000E+00  0.00000E+00  9.000E+00
      25     1     1     2     0     0 -1.124760193E+02  6.379826349E+01 -2.529745073E+02  3.103903586E+02  1.250000000E+02  0.00000E+00  9.000E+00
      25     1     1     2     0     0  4.596540110E+01 -4.336753315E+01 -7.907186807E+02  8.030283886E+02  1.250000000E+02  0.00000E+00  9.000E+00
      21     1     1     2   502   511  6.651061820E+01 -2.043073034E+01 -2.440073386E+02  2.537334396E+02  3.814697266E-06  0.00000E+00  9.000E+00
#rwgt            1           1   2.1978011388745743E-002           1       94516           0
</event>
<event>
      5   9999  3.79277E-02  1.20223E+02 -1.00000E+00  1.20334E-01
      -1    -1     0     0     0   501  0.000000000E+00  0.000000000E+00  4.057389954E+02  4.057389954E+02  0.000000000E+00  0.00000E+00  9.000E+00
      21    -1     0     0   501   502  0.000000000E+00  0.000000000E+00 -3.630297905E+02  3.630297905E+02  0.000000000E+00  0.00000E+00  9.000E+00
      25     1     1     2     0     0  4.325822241E+01 -1.245212340E+02  4.722234455E+01  1.877012556E+02  1.250000000E+02  0.00000E+00  9.000E+00
      25     1     1     2     0     0 -1.051364075E+02  2.144544474E+01 -2.547927794E+02  3.034105004E+02  1.250000000E+02  0.00000E+00  9.000E+00
      -1     1     1     2     0   502  6.187818514E+01  1.030757893E+02  2.502796398E+02  2.776570299E+02  3.814697266E-06  0.00000E+00  9.000E+00
#rwgt            1           1   3.7525155926308118E-002           1       94606           0
</event>
<event>
      5   9999  3.79277E-02  1.04092E+02 -1.00000E+00  1.23050E-01
      21    -1     0     0   511   501  0.000000000E+00  0.000000000E+00  6.003837597E+02  6.003837597E+02  0.000000000E+00  0.00000E+00  9.000E+00
      21    -1     0     0   501   502  0.000000000E+00  0.000000000E+00 -1.548081054E+02  1.548081054E+02  0.000000000E+00  0.00000E+00  9.000E+00
      25     1     1     2     0     0  6.421390542E+01 -1.772735199E+02  3.474902555E+02  4.146369546E+02  1.250000000E+02  0.00000E+00  9.000E+00
      25     1     1     2     0     0 -1.089472221E+02  8.328429673E+01 -1.584820382E+01  1.862308698E+02  1.250000000E+02  0.00000E+00  9.000E+00
      21     1     1     2   511   502  4.473331671E+01  9.398922320E+01  1.139336027E+02  1.543240407E+02  0.000000000E+00  0.00000E+00  9.000E+00
#rwgt            1           1   1.6703807437263844E-002           1       94703           0
</event>
<event>
      5   9999  3.79277E-02  1.68807E+02 -1.00000E+00  1.14396E-01
      21    -1     0     0   502   501  0.000000000E+00  0.000000000E+00  1.663331222E+02  1.663331222E+02  0.000000000E+00  0.00000E+00  9.000E+00
      21    -1     0     0   512   502  0.000000000E+00  0.000000000E+00 -3.837072274E+02  3.837072274E+02  0.000000000E+00  0.00000E+00  9.000E+00
      25     1     1     2     0     0 -5.756246506E+01 -7.886466752E-03 -8.071480813E+01  1.595409593E+02  1.250000000E+02  0.00000E+00  9.000E+00
      25     1     1     2     0     0 -1.030370789E+02 -5.198758768E+01  4.888610218E+00  1.702006093E+02  1.250000000E+02  0.00000E+00  9.000E+00
      21     1     1     2   512   501  1.605995440E+02  5.199547414E+01 -1.415479072E+02  2.202987810E+02  1.907348633E-06  0.00000E+00  9.000E+00
#rwgt            2          11   1.4868987117832907E-003           1       94769           0
</event>
<event>
      5   9999  3.79277E-02  1.67248E+02 -1.00000E+00  1.14551E-01
      21    -1     0     0   502   501  0.000000000E+00  0.000000000E+00  7.719081950E+02  7.719081950E+02  0.000000000E+00  0.00000E+00  9.000E+00
      21    -1     0     0   511   502  0.000000000E+00  0.000000000E+00 -1.101963974E+02  1.101963974E+02  0.000000000E+00  0.00000E+00  9.000E+00
      25     1     1     2     0     0  1.713682288E+02  1.441582909E+02  2.201372674E+02  3.379853535E+02  1.250000000E+02  0.00000E+00  9.000E+00
      25     1     1     2     0     0 -2.135336537E+01 -7.021663255E+01  2.568603582E+02  2.949382737E+02  1.250000000E+02  0.00000E+00  9.000E+00
      21     1     1     2   511   501 -1.500148634E+02 -7.394165832E+01  1.847141719E+02  2.491809651E+02  3.814697266E-06  0.00000E+00  9.000E+00
#rwgt            1           1   3.4876283033888927E-002           1       94894           0
</event>
<event>
      5   9999  3.79277E-02  1.30484E+02 -1.00000E+00  1.18844E-01
      21    -1     0     0   512   501  0.000000000E+00  0.000000000E+00  5.504041371E+02  5.504041371E+02  0.000000000E+00  0.00000E+00  9.000E+00
      21    -1     0     0   501   502  0.000000000E+00  0.000000000E+00 -1.483658995E+02  1.483658995E+02  0.000000000E+00  0.00000E+00  9.000E+00
      25     1     1     2     0     0 -1.806057451E+02  1.451233130E+02  1.695364721E+02  3.131242988E+02  1.250000000E+02  0.00000E+00  9.000E+00
      25     1     1     2     0     0  8.397625962E+01 -5.743781494E+01  6.613406785E+01  1.742120251E+02  1.250000000E+02  0.00000E+00  9.000E+00
      21     1     1     2   512   502  9.662948551E+01 -8.768549807E+01  1.663676976E+02  2.114337127E+02  1.907348633E-06  0.00000E+00  9.000E+00
#rwgt            1           1   2.3354699195941995E-002           1       95009           0
</event>
<event>
      5   9999  3.79277E-02  1.79515E+02 -1.00000E+00  1.13384E-01
      21    -1     0     0   502   501  0.000000000E+00  0.000000000E+00  6.786678879E+02  6.786678879E+02  0.000000000E+00  0.00000E+00  9.000E+00
      21    -1     0     0   511   502  0.000000000E+00  0.000000000E+00 -2.864963752E+02  2.864963752E+02  0.000000000E+00  0.00000E+00  9.000E+00
      25     1     1     2     0     0  1.530922391E+02 -4.420358900E+01  1.553138137E+02  2.552225924E+02  1.250000000E+02  0.00000E+00  9.000E+00
      25     1     1     2     0     0 -1.940141107E+02  2.189923634E+02  3.688617182E+02  4.871171292E+02  1.250000000E+02  0.00000E+00  9.000E+00
      21     1     1     2   511   501  4.092187152E+01 -1.747887744E+02 -1.320040191E+02  2.228245415E+02  2.697398305E-06  0.00000E+00  9.000E+00
#rwgt            1           1   3.2243892532389559E-002           1       95161           0
</event>
<event>
      5   9999  3.79277E-02  2.23253E+01 -1.00000E+00  1.62522E-01
      21    -1     0     0   502   512  0.000000000E+00  0.000000000E+00  4.980004241E+02  4.980004241E+02  0.000000000E+00  0.00000E+00  9.000E+00
      21    -1     0     0   501   502  0.000000000E+00  0.000000000E+00 -2.302426980E+02  2.302426980E+02  0.000000000E+00  0.00000E+00  9.000E+00
      25     1     1     2     0     0 -1.310513122E+02 -2.428885968E+02  2.567534108E+02  3.971355320E+02  1.250000000E+02  0.00000E+00  9.000E+00
      25     1     1     2     0     0  1.126632005E+02  2.302278547E+02 -2.760882872E+01  2.865049899E+02  1.250000000E+02  0.00000E+00  9.000E+00
      21     1     1     2   501   512  1.838811169E+01  1.266074207E+01  3.861314402E+01  4.460260006E+01  4.768371582E-07  0.00000E+00  9.000E+00
#rwgt            1           1   5.2123109440253210E-002           1       95295           0
</event>
<event>
      5   9999  3.79277E-02  1.21572E+01 -1.00000E+00  1.86436E-01
      21    -1     0     0   502   501  0.000000000E+00  0.000000000E+00  3.538879872E+01  3.538879872E+01  0.000000000E+00  0.00000E+00  9.000E+00
      21    -1     0     0   501   511  0.000000000E+00  0.000000000E+00 -1.011103243E+03  1.011103243E+03  0.000000000E+00  0.00000E+00  9.000E+00
      25     1     1     2     0     0  2.991498368E+00 -1.650374107E+01 -1.151368378E+02  1.707712328E+02  1.250000000E+02  0.00000E+00  9.000E+00
      25     1     1     2     0     0 -1.471471078E+01  1.972285166E+01 -5.366369350E+02  5.515520951E+02  1.250000000E+02  0.00000E+00  9.000E+00
      21     1     1     2   502   511  1.172321241E+01 -3.219110590E+00 -3.239406720E+02  3.241687143E+02  5.394796609E-06  0.00000E+00  9.000E+00
#rwgt            1           1   4.3819964437269515E-002           1       95471           0
</event>
<event>
      5   9999  3.79277E-02  8.63022E+00 -1.00000E+00  2.03456E-01
      21    -1     0     0   502   501  0.000000000E+00  0.000000000E+00  1.560916281E+03  1.560916281E+03  0.000000000E+00  0.00000E+00  9.000E+00
      21    -1     0     0   501   512  0.000000000E+00  0.000000000E+00 -5.093958619E+01  5.093958619E+01  0.000000000E+00  0.00000E+00  9.000E+00
      25     1     1     2     0     0 -1.452444963E+02 -1.830053904E+01  4.233654469E+02  4.650743758E+02  1.250000000E+02  0.00000E+00  9.000E+00
      25     1     1     2     0     0  1.502726846E+02  1.128640671E+01  1.107241438E+03  1.124418900E+03  1.250000000E+02  0.00000E+00  9.000E+00
      21     1     1     2   502   512 -5.028188278E+00  7.014132323E+00 -2.063018983E+01  2.236259069E+01  5.331201500E-07  0.00000E+00  9.000E+00
#rwgt            1           1   6.0173499091759917E-002           1       95636           0
</event>
<event>
      5   9999  3.79277E-02  1.03718E+01 -1.00000E+00  1.93942E-01
      21    -1     0     0   502   501  0.000000000E+00  0.000000000E+00  7.903107642E+02  7.903107642E+02  0.000000000E+00  0.00000E+00  9.000E+00
       2    -1     0     0   501     0  0.000000000E+00  0.000000000E+00 -7.710464092E+02  7.710464092E+02  0.000000000E+00  0.00000E+00  9.000E+00
      25     1     1     2     0     0 -1.757002983E+02 -2.486367061E+01  5.112212800E+02  5.553926486E+02  1.250000000E+02  0.00000E+00  9.000E+00
      25     1     1     2     0     0  1.707721931E+02  1.573747983E+01  2.131506529E+02  3.007806693E+02  1.250000000E+02  0.00000E+00  9.000E+00
       2     1     1     2   502     0  4.928105162E+00  9.126190783E+00 -7.051075779E+02  7.051838555E+02  0.000000000E+00  0.00000E+00  9.000E+00
#rwgt            1           1   4.9535626227204789E-002           1       95998           0
</event>
<event>
      5   9999  3.79277E-02  6.54897E+01 -1.00000E+00  1.32703E-01
      21    -1     0     0   502   511  0.000000000E+00  0.000000000E+00  3.390235342E+02  3.390235342E+02  0.000000000E+00  0.00000E+00  9.000E+00
      21    -1     0     0   501   502  0.000000000E+00  0.000000000E+00 -2.640456606E+02  2.640456606E+02  0.000000000E+00  0.00000E+00  9.000E+00
      25     1     1     2     0     0 -8.682709167E+01 -6.565445837E+01 -1.799592212E+02  2.446625697E+02  1.250000000E+02  0.00000E+00  9.000E+00
      25     1     1     2     0     0  1.322904671E+02  1.851658629E+01  1.598054898E+02  2.429123838E+02  1.250000000E+02  0.00000E+00  9.000E+00
      21     1     1     2   501   511 -4.546337542E+01  4.713787208E+01  9.513160491E+01  1.154942412E+02  1.907348633E-06  0.00000E+00  9.000E+00
#rwgt            1           1   3.5517747345846999E-002           1       96271           0
</event>
<event>
      5   9999  3.79277E-02  1.05873E+02 -1.00000E+00  1.22723E-01
      21    -1     0     0   502   501  0.000000000E+00  0.000000000E+00  4.086386385E+02  4.086386385E+02  0.000000000E+00  0.00000E+00  9.000E+00
      21    -1     0     0   512   502  0.000000000E+00  0.000000000E+00 -2.480185783E+02  2.480185783E+02  0.000000000E+00  0.00000E+00  9.000E+00
      25     1     1     2     0     0 -7.767286351E+01  9.590428613E+01  2.257467448E+02  2.860372329E+02  1.250000000E+02  0.00000E+00  9.000E+00
      25     1     1     2     0     0  1.818964620E+02 -1.145224971E+02 -8.523654004E+01  2.628535581E+02  1.250000000E+02  0.00000E+00  9.000E+00
      21     1     1     2   512   501 -1.042235985E+02  1.861821096E+01  2.010985545E+01  1.077664259E+02  2.119110684E-06  0.00000E+00  9.000E+00
#rwgt            1           1   6.8569618470396859E-002           1       96548           0
</event>
<event>
      5   9999  3.79277E-02  4.70787E+01 -1.00000E+00  1.40584E-01
      21    -1     0     0   502   511  0.000000000E+00  0.000000000E+00  5.104201299E+02  5.104201299E+02  0.000000000E+00  0.00000E+00  9.000E+00
      21    -1     0     0   501   502  0.000000000E+00  0.000000000E+00 -1.327876081E+02  1.327876081E+02  0.000000000E+00  0.00000E+00  9.000E+00
      25     1     1     2     0     0  1.372279790E+02  9.678271838E+01  1.597713216E+02  2.633444284E+02  1.250000000E+02  0.00000E+00  9.000E+00
      25     1     1     2     0     0 -1.049251431E+02 -1.310307598E+02  6.384726207E+01  2.188145757E+02  1.250000000E+02  0.00000E+00  9.000E+00
      21     1     1     2   501   511 -3.230283588E+01  3.424804140E+01  1.540139381E+02  1.610487339E+02  2.697398305E-06  0.00000E+00  9.000E+00
#rwgt            1           1   8.2397772860249879E-002           1       96638           0
</event>
<event>
      5   9999 -3.79277E-02  2.85472E+01 -1.00000E+00  1.54552E-01
      21    -1     0     0   502   512  0.000000000E+00  0.000000000E+00  4.076539128E+02  4.076539128E+02  0.000000000E+00  0.00000E+00  9.000E+00
      21    -1     0     0   501   502  0.000000000E+00  0.000000000E+00 -1.040317533E+02  1.040317533E+02  0.000000000E+00  0.00000E+00  9.000E+00
      25     1     1     2     0     0 -2.259435336E+01  1.231431941E+02  1.875706412E+02  2.578419991E+02  1.250000000E+02  0.00000E+00  9.000E+00
      25     1     1     2     0     0  4.129523066E+01 -1.015742057E+02  3.775912118E+01  1.705091392E+02  1.250000000E+02  0.00000E+00  9.000E+00
      21     1     1     2   501   512 -1.870087730E+01 -2.156898849E+01  7.829239711E+01  8.333452779E+01  1.348699152E-06  0.00000E+00  9.000E+00
#rwgt            1           1  -9.0581718144392837E-002           1       96700           0
</event>
<event>
      5   9999  3.79277E-02  5.64092E+01 -1.00000E+00  1.36151E-01
      21    -1     0     0   511   501  0.000000000E+00  0.000000000E+00  1.794568376E+03  1.794568376E+03  0.000000000E+00  0.00000E+00  9.000E+00
      21    -1     0     0   501   502  0.000000000E+00  0.000000000E+00 -2.210193368E+01  2.210193368E+01  0.000000000E+00  0.00000E+00  9.000E+00
      25     1     1     2     0     0 -2.402603769E+01 -7.199020180E+01  8.689903551E+02  8.812088725E+02  1.250000000E+02  0.00000E+00  9.000E+00
      25     1     1     2     0     0  7.990980466E+01  7.967159403E+01  4.894297914E+02  5.175902438E+02  1.250000000E+02  0.00000E+00  9.000E+00
      21     1     1     2   511   502 -5.588376697E+01 -7.681392229E+00  4.140462953E+02  4.178711929E+02  0.000000000E+00  0.00000E+00  9.000E+00
#rwgt            1           1   5.5831893477922188E-002           1       96814           0
</event>
<event>
      5   9999  3.79277E-02  2.47541E+01 -1.00000E+00  1.59073E-01
      21    -1     0     0   502   501  0.000000000E+00  0.000000000E+00  7.022500258E+01  7.022500258E+01  0.000000000E+00  0.00000E+00  9.000E+00
      21    -1     0     0   501   512  0.000000000E+00  0.000000000E+00 -1.045505325E+03  1.045505325E+03  0.000000000E+00  0.00000E+00  9.000E+00
      25     1     1     2     0     0  8.241354267E+00  1.511792561E+02 -7.178319827E+02  7.441981207E+02  1.250000000E+02  0.00000E+00  9.000E+00
      25     1     1     2     0     0  7.585603869E+00 -1.321458413E+02 -9.151889767E+01  2.037664678E+02  1.250000000E+02  0.00000E+00  9.000E+00
      21     1     1     2   502   512 -1.582695814E+01 -1.903341481E+01 -1.659294423E+02  1.677657394E+02  2.697398305E-06  0.00000E+00  9.000E+00
#rwgt            1           1   4.3099121991211131E-002           1       96924           0
</event>
<event>
      5   9999  3.79277E-02  6.51731E+01 -1.00000E+00  1.32812E-01
      21    -1     0     0   502   501  0.000000000E+00  0.000000000E+00  1.877653479E+03  1.877653479E+03  0.000000000E+00  0.00000E+00  9.000E+00
      21    -1     0     0   511   502  0.000000000E+00  0.000000000E+00 -3.931013463E+01  3.931013463E+01  0.000000000E+00  0.00000E+00  9.000E+00
      25     1     1     2     0     0 -1.680592302E+02  5.157778519E+00  1.114185232E+03  1.133712590E+03  1.250000000E+02  0.00000E+00  9.000E+00
      25     1     1     2     0     0  1.833329950E+02 -6.851584792E+01  5.913009071E+02  6.352693690E+02  1.250000000E+02  0.00000E+00  9.000E+00
      21     1     1     2   511   501 -1.527376479E+01  6.335806940E+01  1.328572053E+02  1.479816538E+02  1.907348633E-06  0.00000E+00  9.000E+00
#rwgt            1           1   5.0776208447130732E-002           1       97175           0
</event>
<event>
      5   9999  3.79277E-02  2.86395E+02  7.55638E-03  1.06251E-01
       2    -1     0     0   501     0  0.000000000E+00  0.000000000E+00  1.159026399E+03  1.159026399E+03  0.000000000E+00  0.00000E+00  9.000E+00
      -2    -1     0     0     0   502  0.000000000E+00  0.000000000E+00 -1.147560905E+02  1.147560905E+02  0.000000000E+00  0.00000E+00  9.000E+00
      25     1     1     2     0     0  1.187823194E+02  5.585954192E+01  3.581694062E+02  4.014222855E+02  1.250000000E+02  0.00000E+00  9.000E+00
      25     1     1     2     0     0  8.029640504E+00  2.009301142E+02  4.161435260E+02  4.787878655E+02  1.250000000E+02  0.00000E+00  9.000E+00
      21     1     1     2   501   502 -1.268119599E+02 -2.567896561E+02  2.699573767E+02  3.935723389E+02  8.529922400E-06  0.00000E+00  9.000E+00
#rwgt            3           7   5.1076170314532168E-004           1       97318           0
</event>
<event>
      5   9999  3.79277E-02  3.49116E+01  7.55638E-03  1.48603E-01
      -2    -1     0     0     0   501  0.000000000E+00  0.000000000E+00  5.544791902E+01  5.544791902E+01  0.000000000E+00  0.00000E+00  9.000E+00
       2    -1     0     0   502     0  0.000000000E+00  0.000000000E+00 -5.616159609E+02  5.616159609E+02  0.000000000E+00  0.00000E+00  9.000E+00
      25     1     1     2     0     0 -3.549168183E+01  3.289038989E+01 -8.638130108E+01  1.594621159E+02  1.250000000E+02  0.00000E+00  9.000E+00
      25     1     1     2     0     0  1.360495251E+01 -5.691350849E+00 -2.092380089E+02  2.441782762E+02  1.250000000E+02  0.00000E+00  9.000E+00
      21     1     1     2   502   501  2.188672932E+01 -2.719903904E+01 -2.105487319E+02  2.134234878E+02  4.672030912E-06  0.00000E+00  9.000E+00
#rwgt            3           4   4.6486614262211229E-004           1       97337           0
</event>
<event>
      5   9999  3.79277E-02  6.51437E+01 -1.00000E+00  1.32822E-01
      21    -1     0     0   502   501  0.000000000E+00  0.000000000E+00  3.578430282E+02  3.578430282E+02  0.000000000E+00  0.00000E+00  9.000E+00
      21    -1     0     0   511   502  0.000000000E+00  0.000000000E+00 -4.583857525E+02  4.583857525E+02  0.000000000E+00  0.00000E+00  9.000E+00
      25     1     1     2     0     0  2.344932264E+01  3.116167427E+01 -2.986458208E+02  3.260908569E+02  1.250000000E+02  0.00000E+00  9.000E+00
      25     1     1     2     0     0 -1.840432384E+01 -9.610976767E+01  3.170207870E+02  3.545461690E+02  1.250000000E+02  0.00000E+00  9.000E+00
      21     1     1     2   511   501 -5.044998796E+00  6.494809340E+01 -1.189176904E+02  1.355917547E+02  0.000000000E+00  0.00000E+00  9.000E+00
#rwgt            1           1   4.5473007168441687E-002           1       97371           0
</event>
<event>
      5   9999  3.79277E-02  1.51449E+02 -1.00000E+00  1.16228E-01
       2    -1     0     0   502     0  0.000000000E+00  0.000000000E+00  1.760667301E+03  1.760667301E+03  0.000000000E+00  0.00000E+00  9.000E+00
      21    -1     0     0   501   502  0.000000000E+00  0.000000000E+00 -2.424610757E+02  2.424610757E+02  0.000000000E+00  0.00000E+00  9.000E+00
      25     1     1     2     0     0  5.322413651E+01  2.717086853E+02 -4.649075392E+00  3.038174325E+02  1.250000000E+02  0.00000E+00  9.000E+00
      25     1     1     2     0     0 -1.917669415E+02 -2.105305793E+02  2.043389289E+02  3.721250899E+02  1.250000000E+02  0.00000E+00  9.000E+00
       2     1     1     2   501     0  1.385428050E+02 -6.117810594E+01  1.318516372E+03  1.327185854E+03  0.000000000E+00  0.00000E+00  9.000E+00
#rwgt            1           1   2.9960270395574737E-002           1       97525           0
</event>
<event>
      5   9999  3.79277E-02  7.54096E+01 -1.00000E+00  1.29604E-01
       2    -1     0     0   502     0  0.000000000E+00  0.000000000E+00  5.780862734E+02  5.780862734E+02  0.000000000E+00  0.00000E+00  9.000E+00
      21    -1     0     0   501   502  0.000000000E+00  0.000000000E+00 -3.736863787E+02  3.736863787E+02  0.000000000E+00  0.00000E+00  9.000E+00
      25     1     1     2     0     0  1.563939144E+02 -2.455522202E+02 -1.730049388E+02  3.609856758E+02  1.250000000E+02  0.00000E+00  9.000E+00
      25     1     1     2     0     0 -1.966291070E+02  1.817733827E+02  1.139033428E+02  3.167073410E+02  1.250000000E+02  0.00000E+00  9.000E+00
       2     1     1     2   501     0  4.023519262E+01  6.377883751E+01  2.635014908E+02  2.740796353E+02  3.814697266E-06  0.00000E+00  9.000E+00
#rwgt            1           1   3.7325108907436184E-002           1       97801           0
</event>
<event>
      5   9999 -3.79277E-02  2.71182E+01 -1.00000E+00  1.56150E-01
      21    -1     0     0   502   501  0.000000000E+00  0.000000000E+00  2.519999734E+02  2.519999734E+02  0.000000000E+00  0.00000E+00  9.000E+00
      21    -1     0     0   511   502  0.000000000E+00  0.000000000E+00 -8.028839423E+02  8.028839423E+02  0.000000000E+00  0.00000E+00  9.000E+00
      25     1     1     2     0     0  8.435646853E+01  1.333414974E+02  2.771550632E+01  2.031972391E+02  1.250000000E+02  0.00000E+00  9.000E+00
      25     1     1     2     0     0 -7.829633145E+01 -1.069090907E+02  7.537855737E+01  1.971466361E+02  1.250000000E+02  0.00000E+00  9.000E+00
      21     1     1     2   511   501 -6.060137081E+00 -2.643240662E+01 -6.539780327E+02  6.545400405E+02  0.000000000E+00  0.00000E+00  9.000E+00
#rwgt            1           1 -0.23247329299500238                1       97914           0
</event>
<event>
      5   9999  3.79277E-02  2.09479E+01 -1.00000E+00  1.64727E-01
      21    -1     0     0   502   501  0.000000000E+00  0.000000000E+00  7.274676757E+02  7.274676757E+02  0.000000000E+00  0.00000E+00  9.000E+00
       5    -1     0     0   501     0  0.000000000E+00  0.000000000E+00 -1.094293542E+03  1.094293542E+03  0.000000000E+00  0.00000E+00  9.000E+00
      25     1     1     2     0     0  2.237830756E+02 -1.835659540E+02  4.578877907E+02  5.559330475E+02  1.250000000E+02  0.00000E+00  9.000E+00
      25     1     1     2     0     0 -2.084787947E+02  1.978695135E+02  1.090252842E+02  3.318542825E+02  1.250000000E+02  0.00000E+00  9.000E+00
       5     1     1     2   502     0 -1.530428089E+01 -1.430355950E+01 -9.337389413E+02  9.339738880E+02  1.078959322E-05  0.00000E+00  9.000E+00
#rwgt            1           1   4.3964841399856548E-002           1       98074           0
</event>
<event>
      5   9999  3.79277E-02  2.32470E+01 -1.00000E+00  1.61153E-01
       2    -1     0     0   502     0  0.000000000E+00  0.000000000E+00  3.719943862E+03  3.719943862E+03  0.000000000E+00  0.00000E+00  9.000E+00
      21    -1     0     0   501   502  0.000000000E+00  0.000000000E+00 -2.919856665E+01  2.919856665E+01  0.000000000E+00  0.00000E+00  9.000E+00
      25     1     1     2     0     0  1.082056739E+01  8.229647542E+01  1.228927019E+03  1.238053478E+03  1.250000000E+02  0.00000E+00  9.000E+00
      25     1     1     2     0     0 -3.155733264E+01 -9.280408074E+01  2.321264170E+02  2.812759075E+02  1.250000000E+02  0.00000E+00  9.000E+00
       2     1     1     2   501     0  2.073676525E+01  1.050760532E+01  2.229691859E+03  2.229813043E+03  0.000000000E+00  0.00000E+00  9.000E+00
#rwgt            1           1   4.3063936430372665E-002           1       98369           0
</event>
<event>
      5   9999  3.79277E-02  3.36863E+01 -1.00000E+00  1.49624E-01
      21    -1     0     0   502   501  0.000000000E+00  0.000000000E+00  3.355784488E+01  3.355784488E+01  0.000000000E+00  0.00000E+00  9.000E+00
      21    -1     0     0   511   502  0.000000000E+00  0.000000000E+00 -2.283829981E+03  2.283829981E+03  0.000000000E+00  0.00000E+00  9.000E+00
      25     1     1     2     0     0  1.183642374E+01  4.433739240E+01 -1.915225297E+03  1.919848652E+03  1.250000000E+02  0.00000E+00  9.000E+00
      25     1     1     2     0     0  6.080445153E+00 -1.581107291E+01 -1.024211083E+02  1.624870618E+02  1.250000000E+02  0.00000E+00  9.000E+00
      21     1     1     2   511   501 -1.791686890E+01 -2.852631949E+01 -2.326257307E+02  2.350521127E+02  2.697398305E-06  0.00000E+00  9.000E+00
#rwgt            1           1  0.16049954257979426                1       98565           0
</event>
<event>
      5   9999  3.79277E-02  1.86482E+02 -1.00000E+00  1.12766E-01
      21    -1     0     0   502   501  0.000000000E+00  0.000000000E+00  1.969302934E+02  1.969302934E+02  0.000000000E+00  0.00000E+00  9.000E+00
       2    -1     0     0   501     0  0.000000000E+00  0.000000000E+00 -9.855992167E+02  9.855992167E+02  0.000000000E+00  0.00000E+00  9.000E+00
      25     1     1     2     0     0 -1.682437920E+02  3.696014394E+01 -2.758169873E+02  3.483848968E+02  1.250000000E+02  0.00000E+00  9.000E+00
      25     1     1     2     0     0  2.136693007E+01  7.794305287E+01  1.092841883E+02  1.846610381E+02  1.250000000E+02  0.00000E+00  9.000E+00
       2     1     1     2   502     0  1.468768620E+02 -1.149031968E+02 -6.221361243E+02  6.494835752E+02  7.629394531E-06  0.00000E+00  9.000E+00
#rwgt            1           1   2.7737677027496282E-002           1       98747           0
</event>
<event>
      5   9999  3.79277E-02  1.83213E+01 -1.00000E+00  1.69573E-01
      21    -1     0     0   511   501  0.000000000E+00  0.000000000E+00  1.724164659E+02  1.724164659E+02  0.000000000E+00  0.00000E+00  9.000E+00
      21    -1     0     0   501   502  0.000000000E+00  0.000000000E+00 -4.502155408E+02  4.502155408E+02  0.000000000E+00  0.00000E+00  9.000E+00
      25     1     1     2     0     0 -6.400197543E+01  9.395089984E+01  8.942995796E+01  1.911694061E+02  1.250000000E+02  0.00000E+00  9.000E+00
      25     1     1     2     0     0  5.225912103E+01 -7.988759845E+01 -3.785508287E+02  4.099253274E+02  1.250000000E+02  0.00000E+00  9.000E+00
      21     1     1     2   511   502  1.174285440E+01 -1.406330139E+01  1.132179586E+01  2.153727320E+01  4.460403188E-07  0.00000E+00  9.000E+00
#rwgt            1           1   4.3054578644205824E-002           1       98972           0
</event>
<event>
      5   9999  3.79277E-02  6.31306E+01 -1.00000E+00  1.33534E-01
      21    -1     0     0   502   512  0.000000000E+00  0.000000000E+00  3.590490748E+02  3.590490748E+02  0.000000000E+00  0.00000E+00  9.000E+00
      21    -1     0     0   501   502  0.000000000E+00  0.000000000E+00 -2.053560593E+02  2.053560593E+02  0.000000000E+00  0.00000E+00  9.000E+00
      25     1     1     2     0     0  1.963726152E+00  1.727298313E+02  9.761270905E+01  2.345052064E+02  1.250000000E+02  0.00000E+00  9.000E+00
      25     1     1     2     0     0  4.049088819E+01 -2.194532374E+02  1.854379280E+01  2.564529346E+02  1.250000000E+02  0.00000E+00  9.000E+00
      21     1     1     2   501   512 -4.245461434E+01  4.672340605E+01  3.753651360E+01  7.344699316E+01  8.259061849E-07  0.00000E+00  9.000E+00
#rwgt            1           1   2.3861062995990015E-002           1       99165           0
</event>
<event>
      5   9999  3.79277E-02  1.94949E+01 -1.00000E+00  1.67291E-01
      21    -1     0     0   511   501  0.000000000E+00  0.000000000E+00  4.249037407E+03  4.249037407E+03  0.000000000E+00  0.00000E+00  9.000E+00
      21    -1     0     0   501   502  0.000000000E+00  0.000000000E+00 -1.239535856E+01  1.239535856E+01  0.000000000E+00  0.00000E+00  9.000E+00
      25     1     1     2     0     0  4.084712363E+01  1.547861100E+02  1.250675594E+03  1.267060247E+03  1.250000000E+02  0.00000E+00  9.000E+00
      25     1     1     2     0     0 -2.140233570E+01 -1.561835235E+02  2.528737093E+03  2.536727743E+03  1.250000000E+02  0.00000E+00  9.000E+00
      21     1     1     2   511   502 -1.944478794E+01  1.397413484E+00  4.572293610E+02  4.576447761E+02  0.000000000E+00  0.00000E+00  9.000E+00
#rwgt            1           1   8.7505472370977069E-003           1       99315           0
</event>
<event>
      5   9999  3.79277E-02  2.17566E+01 -1.00000E+00  1.63408E-01
      21    -1     0     0   502   512  0.000000000E+00  0.000000000E+00  8.277242965E+01  8.277242965E+01  0.000000000E+00  0.00000E+00  9.000E+00
      21    -1     0     0   501   502  0.000000000E+00  0.000000000E+00 -8.332313027E+02  8.332313027E+02  0.000000000E+00  0.00000E+00  9.000E+00
      25     1     1     2     0     0 -1.094101198E+02 -4.577155252E+01 -3.965599440E+02  4.323776110E+02  1.250000000E+02  0.00000E+00  9.000E+00
      25     1     1     2     0     0  1.286499420E+02  3.561377187E+01 -3.960264449E+02  4.362122114E+02  1.250000000E+02  0.00000E+00  9.000E+00
      21     1     1     2   501   512 -1.923982224E+01  1.015778065E+01  4.212751582E+01  4.741390995E+01  0.000000000E+00  0.00000E+00  9.000E+00
#rwgt            1           1   4.7463538838033996E-002           1       99566           0
</event>
<event>
      5   9999  3.79277E-02  3.86896E+01 -1.00000E+00  1.45743E-01
      21    -1     0     0   502   511  0.000000000E+00  0.000000000E+00  7.555091408E+02  7.555091408E+02  0.000000000E+00  0.00000E+00  9.000E+00
      21    -1     0     0   501   502  0.000000000E+00  0.000000000E+00 -6.886603744E+01  6.886603744E+01  0.000000000E+00  0.00000E+00  9.000E+00
      25     1     1     2     0     0 -1.040614013E+02  1.511172899E+02  2.950557409E+02  3.692534371E+02  1.250000000E+02  0.00000E+00  9.000E+00
      25     1     1     2     0     0  7.512823600E+01 -1.254316191E+02  3.101166489E+02  3.649310604E+02  1.250000000E+02  0.00000E+00  9.000E+00
      21     1     1     2   501   511  2.893316529E+01 -2.568567080E+01  8.147071351E+01  9.019068077E+01  0.000000000E+00  0.00000E+00  9.000E+00
#rwgt            1           1   4.1050199828435191E-002           1       99708           0
</event>
<event>
      5   9999  3.79277E-02  1.60168E+01 -1.00000E+00  1.74741E-01
      21    -1     0     0   502   501  0.000000000E+00  0.000000000E+00  5.230620289E+02  5.230620289E+02  0.000000000E+00  0.00000E+00  9.000E+00
      21    -1     0     0   512   502  0.000000000E+00  0.000000000E+00 -1.861233972E+02  1.861233972E+02  0.000000000E+00  0.00000E+00  9.000E+00
      25     1     1     2     0     0  3.156083928E-01  1.586848278E+02  1.298372978E+02  2.401326677E+02  1.250000000E+02  0.00000E+00  9.000E+00
      25     1     1     2     0     0  1.363097929E+01 -1.508088086E+02  3.088880537E+02  3.660135654E+02  1.250000000E+02  0.00000E+00  9.000E+00
      21     1     1     2   512   501 -1.394658769E+01 -7.876019245E+00 -1.017867197E+02  1.030391930E+02  1.907348633E-06  0.00000E+00  9.000E+00
#rwgt            1           1   3.3417786353393653E-002           1       99767           0
</event>
<event>
      5   9999  3.79277E-02  3.45502E+01 -1.00000E+00  1.48899E-01
      21    -1     0     0   502   511  0.000000000E+00  0.000000000E+00  2.085779642E+02  2.085779642E+02  0.000000000E+00  0.00000E+00  9.000E+00
      21    -1     0     0   501   502  0.000000000E+00  0.000000000E+00 -1.020815232E+03  1.020815232E+03  0.000000000E+00  0.00000E+00  9.000E+00
      25     1     1     2     0     0  1.056905435E+02  2.110819549E+02 -4.600416339E+02  5.319674685E+02  1.250000000E+02  0.00000E+00  9.000E+00
      25     1     1     2     0     0 -7.282853945E+01 -2.217500599E+02 -4.891339206E+02  5.561960783E+02  1.250000000E+02  0.00000E+00  9.000E+00
      21     1     1     2   501   511 -3.286200401E+01  1.066810506E+01  1.369382862E+02  1.412296499E+02  5.394796609E-06  0.00000E+00  9.000E+00
#rwgt            1           1   4.2950996981996684E-002           1       99996           0
</event>
<event>
      5   9999  3.79277E-02  2.56586E+01 -1.00000E+00  1.57910E-01
      21    -1     0     0   512   501  0.000000000E+00  0.000000000E+00  1.337434357E+02  1.337434357E+02  0.000000000E+00  0.00000E+00  9.000E+00
      21    -1     0     0   501   502  0.000000000E+00  0.000000000E+00 -7.836333037E+02  7.836333037E+02  0.000000000E+00  0.00000E+00  9.000E+00
      25     1     1     2     0     0  7.278629259E+01  6.035203283E+00 -5.431005550E+02  5.620653707E+02  1.250000000E+02  0.00000E+00  9.000E+00
      25     1     1     2     0     0 -9.351622624E+01  9.085490613E+00 -2.027112412E+02  2.560169487E+02  1.250000000E+02  0.00000E+00  9.000E+00
      21     1     1     2   512   502  2.072993365E+01 -1.512069390E+01  9.592192821E+01  9.929442001E+01  2.336015456E-06  0.00000E+00  9.000E+00
#rwgt            1           1   3.9832200675020774E-002           1      100257           0
</event>
<event>
      5   9999  3.79277E-02  4.61369E+01 -1.00000E+00  1.41098E-01
      21    -1     0     0   502   511  0.000000000E+00  0.000000000E+00  6.669676127E+02  6.669676127E+02  0.000000000E+00  0.00000E+00  9.000E+00
      21    -1     0     0   501   502  0.000000000E+00  0.000000000E+00 -1.690233663E+02  1.690233663E+02  0.000000000E+00  0.00000E+00  9.000E+00
      25     1     1     2     0     0  2.527329100E+01 -1.602197231E+02  3.011371671E+02  3.641671214E+02  1.250000000E+02  0.00000E+00  9.000E+00
      25     1     1     2     0     0 -6.905037576E+01  1.456532549E+02 -5.864175759E+01  2.122420335E+02  1.250000000E+02  0.00000E+00  9.000E+00
      21     1     1     2   501   511  4.377708476E+01  1.456646812E+01  2.554488369E+02  2.595818241E+02  0.000000000E+00  0.00000E+00  9.000E+00
#rwgt            1           1   4.2103162389622056E-002           1      100357           0
</event>
<event>
      5   9999  3.79277E-02  2.40437E+01 -1.00000E+00  1.60030E-01
      21    -1     0     0   512   501  0.000000000E+00  0.000000000E+00  2.153270332E+02  2.153270332E+02  0.000000000E+00  0.00000E+00  9.000E+00
      21    -1     0     0   501   502  0.000000000E+00  0.000000000E+00 -1.663202444E+02  1.663202444E+02  0.000000000E+00  0.00000E+00  9.000E+00
      25     1     1     2     0     0  5.415176984E+00  9.635814021E+01  4.311623603E+01  1.637016345E+02  1.250000000E+02  0.00000E+00  9.000E+00
      25     1     1     2     0     0  1.777501346E+01 -1.027073412E+02 -3.869224596E+01  1.672926745E+02  1.250000000E+02  0.00000E+00  9.000E+00
      21     1     1     2   512   502 -2.319019045E+01  6.349200968E+00  4.458279879E+01  5.065296866E+01  4.768371582E-07  0.00000E+00  9.000E+00
#rwgt            1           1   5.0584323348943402E-002           1      100546           0
</event>
<event>
      5   9999  3.79277E-02  1.34042E+01 -1.00000E+00  1.82113E-01
      21    -1     0     0   502   501  0.000000000E+00  0.000000000E+00  1.857902951E+02  1.857902951E+02  0.000000000E+00  0.00000E+00  9.000E+00
      21    -1     0     0   501   511  0.000000000E+00  0.000000000E+00 -6.386535954E+02  6.386535954E+02  0.000000000E+00  0.00000E+00  9.000E+00
      25     1     1     2     0     0  9.032280525E+01 -2.209398681E+02  1.738263999E+01  2.699996123E+02  1.250000000E+02  0.00000E+00  9.000E+00
      25     1     1     2     0     0 -8.811403609E+01  2.077189305E+02 -3.571629982E+02  4.405696820E+02  1.250000000E+02  0.00000E+00  9.000E+00
      21     1     1     2   502   511 -2.208769156E+00  1.322093753E+01 -1.130829421E+02  1.138745961E+02  1.348699152E-06  0.00000E+00  9.000E+00
#rwgt            1           1   4.3367596283550164E-002           1      100715           0
</event>
<event>
      5   9999  3.79277E-02  5.55316E+01 -1.00000E+00  1.36524E-01
      21    -1     0     0   502   501  0.000000000E+00  0.000000000E+00  1.854157315E+02  1.854157315E+02  0.000000000E+00  0.00000E+00  9.000E+00
       2    -1     0     0   501     0  0.000000000E+00  0.000000000E+00 -5.333845811E+02  5.333845811E+02  0.000000000E+00  0.00000E+00  9.000E+00
      25     1     1     2     0     0 -1.088656523E+02 -6.261582179E+01  9.398098854E+01  2.005739205E+02  1.250000000E+02  0.00000E+00  9.000E+00
      25     1     1     2     0     0  1.328639464E+02  1.253748824E+01 -2.043136594E+02  2.741880528E+02  1.250000000E+02  0.00000E+00  9.000E+00
       2     1     1     2   502     0 -2.399829405E+01  5.007833355E+01 -2.376361787E+02  2.440383393E+02  3.814697266E-06  0.00000E+00  9.000E+00
#rwgt            1           1   3.4117843098424999E-002           1      101019           0
</event>
<event>
      5   9999  3.79277E-02  2.31514E+01 -1.00000E+00  1.61291E-01
      21    -1     0     0   502   511  0.000000000E+00  0.000000000E+00  8.094759542E+02  8.094759542E+02  0.000000000E+00  0.00000E+00  9.000E+00
      21    -1     0     0   501   502  0.000000000E+00  0.000000000E+00 -1.308878660E+02  1.308878660E+02  0.000000000E+00  0.00000E+00  9.000E+00
      25     1     1     2     0     0 -1.198471582E+02  2.558845743E+02  2.105978393E+02  3.739207224E+02  1.250000000E+02  0.00000E+00  9.000E+00
      25     1     1     2     0     0  1.170120054E+02 -2.329074286E+02  3.923619161E+02  4.873505441E+02  1.250000000E+02  0.00000E+00  9.000E+00
      21     1     1     2   501   511  2.835152816E+00 -2.297714579E+01  7.562833287E+01  7.909255371E+01  1.651812370E-06  0.00000E+00  9.000E+00
#rwgt            1           1   3.0871670777176237E-002           1      101106           0
</event>
<event>
      5   9999  3.79277E-02  1.64160E+02 -1.00000E+00  1.14862E-01
      21    -1     0     0   502   501  0.000000000E+00  0.000000000E+00  2.268347185E+02  2.268347185E+02  0.000000000E+00  0.00000E+00  9.000E+00
       2    -1     0     0   501     0  0.000000000E+00  0.000000000E+00 -1.809523903E+03  1.809523903E+03  0.000000000E+00  0.00000E+00  9.000E+00
      25     1     1     2     0     0 -2.110979895E+02  1.291879746E+02  1.002428704E+02  2.948313535E+02  1.250000000E+02  0.00000E+00  9.000E+00
      25     1     1     2     0     0  7.523611823E+01 -2.213299397E+02 -7.805959642E+02  8.243800550E+02  1.250000000E+02  0.00000E+00  9.000E+00
       2     1     1     2   502     0  1.358618712E+02  9.214196501E+01 -9.023360905E+02  9.171472128E+02  1.078959322E-05  0.00000E+00  9.000E+00
#rwgt            2          13   8.7854465980260631E-004           1      101380           0
</event>
<event>
      5   9999  3.79277E-02  1.16697E+01 -1.00000E+00  1.88311E-01
      21    -1     0     0   502   511  0.000000000E+00  0.000000000E+00  6.533648510E+01  6.533648510E+01  0.000000000E+00  0.00000E+00  9.000E+00
      21    -1     0     0   501   502  0.000000000E+00  0.000000000E+00 -1.547335967E+03  1.547335967E+03  0.000000000E+00  0.00000E+00  9.000E+00
      25     1     1     2     0     0 -2.721991092E+02 -2.500811734E+01 -7.247701719E+02  7.846238354E+02  1.250000000E+02  0.00000E+00  9.000E+00
      25     1     1     2     0     0  2.820323121E+02  3.129228761E+01 -7.549654856E+02  8.161613301E+02  1.250000000E+02  0.00000E+00  9.000E+00
      21     1     1     2   501   511 -9.833202850E+00 -6.284170270E+00 -2.263824018E+00  1.188728621E+01  3.024605383E-07  0.00000E+00  9.000E+00
#rwgt            1           1   2.1938173442268529E-002           1      101519           0
</event>
<event>
      5   9999  3.79277E-02  1.88927E+01 -1.00000E+00  1.68436E-01
      21    -1     0     0   502   501  0.000000000E+00  0.000000000E+00  9.646922320E+01  9.646922320E+01  0.000000000E+00  0.00000E+00  9.000E+00
      21    -1     0     0   501   512  0.000000000E+00  0.000000000E+00 -7.359600050E+02  7.359600050E+02  0.000000000E+00  0.00000E+00  9.000E+00
      25     1     1     2     0     0 -6.725903022E+01  1.754516531E+02 -1.156280869E+02  2.535782211E+02  1.250000000E+02  0.00000E+00  9.000E+00
      25     1     1     2     0     0  8.519366080E+01 -1.695118235E+02 -4.778385610E+02  5.291000931E+02  1.250000000E+02  0.00000E+00  9.000E+00
      21     1     1     2   502   512 -1.793463058E+01 -5.939829594E+00 -4.602413388E+01  4.975091405E+01  6.743495762E-07  0.00000E+00  9.000E+00
#rwgt            1           1  0.15660872386887875                1      101777           0
</event>
<event>
      5   9999  3.79277E-02  3.56032E+01 -1.00000E+00  1.48048E-01
      21    -1     0     0   502   501  0.000000000E+00  0.000000000E+00  1.756907431E+02  1.756907431E+02  0.000000000E+00  0.00000E+00  9.000E+00
       2    -1     0     0   501     0  0.000000000E+00  0.000000000E+00 -1.278424505E+03  1.278424505E+03  0.000000000E+00  0.00000E+00  9.000E+00
      25     1     1     2     0     0  3.123177961E+01  2.512532700E+02 -9.562690491E+01  2.981159752E+02  1.250000000E+02  0.00000E+00  9.000E+00
      25     1     1     2     0     0 -1.245255029E+01 -2.210055432E+02 -1.440100661E+02  2.921684707E+02  1.250000000E+02  0.00000E+00  9.000E+00
       2     1     1     2   502     0 -1.877922931E+01 -3.024772674E+01 -8.630967910E+02  8.638308023E+02  0.000000000E+00  0.00000E+00  9.000E+00
#rwgt            1           1   3.9594963783044550E-002           1      101987           0
</event>
<event>
      5   9999  3.79277E-02  6.82500E+01 -1.00000E+00  1.31780E-01
      21    -1     0     0   502   501  0.000000000E+00  0.000000000E+00  1.355172994E+03  1.355172994E+03  0.000000000E+00  0.00000E+00  9.000E+00
      21    -1     0     0   511   502  0.000000000E+00  0.000000000E+00 -5.707163957E+01  5.707163957E+01  0.000000000E+00  0.00000E+00  9.000E+00
      25     1     1     2     0     0 -6.962171039E+01  4.329044292E+01  1.165342143E+02  1.895427870E+02  1.250000000E+02  0.00000E+00  9.000E+00
      25     1     1     2     0     0  3.765356234E+00 -6.120698223E+01  1.126321223E+03  1.134894255E+03  1.250000000E+02  0.00000E+00  9.000E+00
      21     1     1     2   511   501  6.585635416E+01  1.791653931E+01  5.524591680E+01  8.780759128E+01  2.023048729E-06  0.00000E+00  9.000E+00
#rwgt            1           1   5.2140029404778659E-002           1      102107           0
</event>
<event>
      5   9999  3.79277E-02  5.54266E+01 -1.00000E+00  1.36570E-01
      21    -1     0     0   502   512  0.000000000E+00  0.000000000E+00  2.556717263E+02  2.556717263E+02  0.000000000E+00  0.00000E+00  9.000E+00
      21    -1     0     0   501   502  0.000000000E+00  0.000000000E+00 -7.867011492E+02  7.867011492E+02  0.000000000E+00  0.00000E+00  9.000E+00
      25     1     1     2     0     0 -5.581850161E+01 -4.178615146E+02 -2.378930661E+02  4.999420580E+02  1.250000000E+02  0.00000E+00  9.000E+00
      25     1     1     2     0     0  2.040840990E+01  3.752207266E+02 -2.812877582E+02  4.857518912E+02  1.250000000E+02  0.00000E+00  9.000E+00
      21     1     1     2   501   512  3.541009171E+01  4.264078801E+01 -1.184859858E+01  5.667892629E+01  1.316709640E-06  0.00000E+00  9.000E+00
#rwgt            1           1   3.7317511079113019E-002           1      102213           0
</event>
<event>
      5   9999  3.79277E-02  5.31185E+01 -1.00000E+00  1.37593E-01
      21    -1     0     0   502   511  0.000000000E+00  0.000000000E+00  1.416066889E+02  1.416066889E+02  0.000000000E+00  0.00000E+00  9.000E+00
      21    -1     0     0   501   502  0.000000000E+00  0.000000000E+00 -5.374436025E+02  5.374436025E+02  0.000000000E+00  0.00000E+00  9.000E+00
      25     1     1     2     0     0 -1.960162317E+02  4.463601140E+01 -9.471712711E+01  2.549726863E+02  1.250000000E+02  0.00000E+00  9.000E+00
      25     1     1     2     0     0  1.947119523E+02  8.466444040E+00 -2.876860991E+02  3.692867675E+02  1.250000000E+02  0.00000E+00  9.000E+00
      21     1     1     2   501   511  1.304279440E+00 -5.310245544E+01 -1.343368739E+01  5.479083751E+01  6.078504936E-07  0.00000E+00  9.000E+00
#rwgt            1           1   4.2111086672643891E-002           1      102366           0
</event>
<event>
      5   9999  3.79277E-02  7.42364E+01 -1.00000E+00  1.29941E-01
      21    -1     0     0   502   501  0.000000000E+00  0.000000000E+00  1.027852864E+02  1.027852864E+02  0.000000000E+00  0.00000E+00  9.000E+00
      21    -1     0     0   501   512  0.000000000E+00  0.000000000E+00 -4.335712137E+02  4.335712137E+02  0.000000000E+00  0.00000E+00  9.000E+00
      25     1     1     2     0     0  8.016385659E+00  7.313709360E+01 -6.715819689E+01  1.598390450E+02  1.250000000E+02  0.00000E+00  9.000E+00
      25     1     1     2     0     0  1.867567923E+01 -3.865297801E+00 -2.805096341E+01  1.295205701E+02  1.250000000E+02  0.00000E+00  9.000E+00
      21     1     1     2   502   512 -2.669206489E+01 -6.927179580E+01 -2.355767670E+02  2.469968850E+02  4.672030912E-06  0.00000E+00  9.000E+00
#rwgt            1           1   1.4204244329346690E-002           1      102453           0
</event>
<event>
      5   9999  3.79277E-02  4.84051E+01 -1.00000E+00  1.39884E-01
      21    -1     0     0   502   511  0.000000000E+00  0.000000000E+00  7.858309935E+01  7.858309935E+01  0.000000000E+00  0.00000E+00  9.000E+00
      21    -1     0     0   501   502  0.000000000E+00  0.000000000E+00 -1.022711262E+03  1.022711262E+03  0.000000000E+00  0.00000E+00  9.000E+00
      25     1     1     2     0     0 -1.307222880E+02 -4.369506165E+00 -1.061542111E+02  2.097644529E+02  1.250000000E+02  0.00000E+00  9.000E+00
      25     1     1     2     0     0  1.790761944E+02  2.142837415E+00 -8.020427776E+02  8.312463487E+02  1.250000000E+02  0.00000E+00  9.000E+00
      21     1     1     2   501   511 -4.835390636E+01  2.226668750E+00 -3.593117405E+01  6.028355981E+01  0.000000000E+00  0.00000E+00  9.000E+00
#rwgt            1           1   4.0488689933203779E-002           1      102565           0
</event>
<event>
      5   9999  3.79277E-02  1.59729E+01 -1.00000E+00  1.74851E-01
      21    -1     0     0   502   501  0.000000000E+00  0.000000000E+00  9.722559742E+01  9.722559742E+01  0.000000000E+00  0.00000E+00  9.000E+00
      21    -1     0     0   501   512  0.000000000E+00  0.000000000E+00 -4.241953369E+02  4.241953369E+02  0.000000000E+00  0.00000E+00  9.000E+00
      25     1     1     2     0     0  1.268858109E+02 -3.181134311E+01 -5.308411790E+01  1.885600544E+02  1.250000000E+02  0.00000E+00  9.000E+00
      25     1     1     2     0     0 -1.184349021E+02  1.825720360E+01 -2.491006756E+02  3.033748475E+02  1.250000000E+02  0.00000E+00  9.000E+00
      21     1     1     2   502   512 -8.450908766E+00  1.355413952E+01 -2.478494602E+01  2.948603239E+01  3.371747881E-07  0.00000E+00  9.000E+00
#rwgt            1           1   2.1354191163436908E-002           1      102614           0
</event>
<event>
      5   9999  3.79277E-02  3.24258E+01 -1.00000E+00  1.50731E-01
      21    -1     0     0   502   511  0.000000000E+00  0.000000000E+00  1.258564542E+03  1.258564542E+03  0.000000000E+00  0.00000E+00  9.000E+00
      21    -1     0     0   501   502  0.000000000E+00  0.000000000E+00 -1.080101131E+02  1.080101131E+02  0.000000000E+00  0.00000E+00  9.000E+00
      25     1     1     2     0     0  1.103554003E+02  1.166847586E+02  1.107924298E+02  2.317188161E+02  1.250000000E+02  0.00000E+00  9.000E+00
      25     1     1     2     0     0 -1.236227975E+02 -8.709747284E+01  1.564225962E+02  2.509214906E+02  1.250000000E+02  0.00000E+00  9.000E+00
      21     1     1     2   501   511  1.326739727E+01 -2.958728576E+01  8.833394029E+02  8.839343482E+02  1.078959322E-05  0.00000E+00  9.000E+00
#rwgt            1           1   4.6276354464333196E-002           1      102780           0
</event>
<event>
      5   9999  3.79277E-02  7.24665E+01 -1.00000E+00  1.30464E-01
      21    -1     0     0   502   501  0.000000000E+00  0.000000000E+00  1.626563980E+02  1.626563980E+02  0.000000000E+00  0.00000E+00  9.000E+00
       2    -1     0     0   501     0  0.000000000E+00  0.000000000E+00 -2.773125395E+03  2.773125395E+03  0.000000000E+00  0.00000E+00  9.000E+00
      25     1     1     2     0     0  1.292274013E+02  2.079087216E+02 -1.627081662E+02  3.194130634E+02  1.250000000E+02  0.00000E+00  9.000E+00
      25     1     1     2     0     0 -1.849054897E+02 -2.542913256E+02 -2.582098860E+02  4.256189183E+02  1.250000000E+02  0.00000E+00  9.000E+00
       2     1     1     2   502     0  5.567808842E+01  4.638260405E+01 -2.189550945E+03  2.190749812E+03  3.051757812E-05  0.00000E+00  9.000E+00
#rwgt            1           1   3.8128998533937981E-002           1      102953           0
</event>
<event>
      5   9999 -3.79277E-02  3.46256E+01 -1.00000E+00  1.48837E-01
      21    -1     0     0   502   511  0.000000000E+00  0.000000000E+00  2.714501200E+01  2.714501200E+01  0.000000000E+00  0.00000E+00  9.000E+00
      21    -1     0     0   501   502  0.000000000E+00  0.000000000E+00 -1.793346247E+03  1.793346247E+03  0.000000000E+00  0.00000E+00  9.000E+00
      25     1     1     2     0     0  1.044089647E+02  1.790558745E+01 -9.922936869E+02  1.005730383E+03  1.250000000E+02  0.00000E+00  9.000E+00
      25     1     1     2     0     0 -1.368694424E+02 -5.853632279E+00 -7.502357043E+02  7.728170038E+02  1.250000000E+02  0.00000E+00  9.000E+00
      21     1     1     2   501   511  3.246047775E+01 -1.205195517E+01 -2.367184375E+01  4.194387232E+01  1.907348633E-06  0.00000E+00  9.000E+00
#rwgt            1           1 -0.17226100566975072                1      103348           0
</event>
<event>
      5   9999  3.79277E-02  5.42394E+01 -1.00000E+00  1.37088E-01
      21    -1     0     0   512   501  0.000000000E+00  0.000000000E+00  6.481063737E+02  6.481063737E+02  0.000000000E+00  0.00000E+00  9.000E+00
      21    -1     0     0   501   502  0.000000000E+00  0.000000000E+00 -2.182313551E+02  2.182313551E+02  0.000000000E+00  0.00000E+00  9.000E+00
      25     1     1     2     0     0 -1.937757248E+02 -9.622218537E+01 -6.172219002E+01  2.573759297E+02  1.250000000E+02  0.00000E+00  9.000E+00
      25     1     1     2     0     0  2.446871045E+02  7.751537104E+01  3.192565871E+02  4.282874972E+02  1.250000000E+02  0.00000E+00  9.000E+00
      21     1     1     2   512   502 -5.091137975E+01  1.870681433E+01  1.723406216E+02  1.806743019E+02  1.907348633E-06  0.00000E+00  9.000E+00
#rwgt            2          11   1.4285239839770692E-003           1      103465           0
</event>
<event>
      5   9999  3.79277E-02  8.95885E+01 -1.00000E+00  1.26014E-01
      21    -1     0     0   511   501  0.000000000E+00  0.000000000E+00  1.038058674E+02  1.038058674E+02  0.000000000E+00  0.00000E+00  9.000E+00
      21    -1     0     0   501   502  0.000000000E+00  0.000000000E+00 -5.665670860E+02  5.665670860E+02  0.000000000E+00  0.00000E+00  9.000E+00
      25     1     1     2     0     0 -1.268652345E+02 -2.564956174E+01 -6.299972493E+01  1.906479821E+02  1.250000000E+02  0.00000E+00  9.000E+00
      25     1     1     2     0     0  3.744177970E+01  2.021436854E+01 -3.566389520E+02  3.802983692E+02  1.250000000E+02  0.00000E+00  9.000E+00
      21     1     1     2   511   502  8.942345482E+01  5.435193207E+00 -4.312254173E+01  9.942660208E+01  1.846782373E-06  0.00000E+00  9.000E+00
#rwgt            1           1   3.2361002049662579E-002           1      103590           0
</event>
<event>
      5   9999  3.79277E-02  1.48219E+01 -1.00000E+00  1.77874E-01
      21    -1     0     0   512   501  0.000000000E+00  0.000000000E+00  8.620969532E+02  8.620969532E+02  0.000000000E+00  0.00000E+00  9.000E+00
      21    -1     0     0   501   502  0.000000000E+00  0.000000000E+00 -7.594740522E+01  7.594740522E+01  0.000000000E+00  0.00000E+00  9.000E+00
      25     1     1     2     0     0 -2.263041081E+00 -1.506746362E+02  3.691355800E+02  4.178445211E+02  1.250000000E+02  0.00000E+00  9.000E+00
      25     1     1     2     0     0  2.656050440E-01  1.359879172E+02  1.144939365E+02  2.173169245E+02  1.250000000E+02  0.00000E+00  9.000E+00
      21     1     1     2   512   502  1.997436037E+00  1.468671893E+01  3.025200315E+02  3.028829129E+02  3.814697266E-06  0.00000E+00  9.000E+00
#rwgt            1           1   3.5714307247894581E-002           1      103687           0
</event>
<event>
      5   9999  3.79277E-02  1.16498E+02 -1.00000E+00  1.20917E-01
      21    -1     0     0   502   511  0.000000000E+00  0.000000000E+00  5.829857059E+02  5.829857059E+02  0.000000000E+00  0.00000E+00  9.000E+00
      21    -1     0     0   501   502  0.000000000E+00  0.000000000E+00 -1.224547729E+03  1.224547729E+03  0.000000000E+00  0.00000E+00  9.000E+00
      25     1     1     2     0     0 -1.525025668E+02  9.707721122E+01 -3.827796340E+02  4.413912845E+02  1.250000000E+02  0.00000E+00  9.000E+00
      25     1     1     2     0     0  2.612096720E+02 -5.519085588E+01 -7.790668584E+02  8.329746054E+02  1.250000000E+02  0.00000E+00  9.000E+00
      21     1     1     2   501   511 -1.087071051E+02 -4.188635535E+01  5.202844696E+02  5.331675447E+02  1.078959322E-05  0.00000E+00  9.000E+00
#rwgt            1           1   2.8004171882797500E-002           1      104071           0
</event>
<event>
      5   9999  3.79277E-02  9.23280E+01 -1.00000E+00  1.25407E-01
      21    -1     0     0   502   501  0.000000000E+00  0.000000000E+00  1.516534730E+02  1.516534730E+02  0.000000000E+00  0.00000E+00  9.000E+00
      21    -1     0     0   512   502  0.000000000E+00  0.000000000E+00 -4.971566020E+02  4.971566020E+02  0.000000000E+00  0.00000E+00  9.000E+00
      25     1     1     2     0     0 -9.821154278E+01 -9.462858956E+01 -1.306964918E+02  2.265097130E+02  1.250000000E+02  0.00000E+00  9.000E+00
      25     1     1     2     0     0  1.233834152E+02  1.834589524E+02 -9.527222046E+01  2.712608530E+02  1.250000000E+02  0.00000E+00  9.000E+00
      21     1     1     2   512   501 -2.517187239E+01 -8.883036288E+01 -1.195344167E+02  1.510395091E+02  1.907348633E-06  0.00000E+00  9.000E+00
#rwgt            1           1   2.9401280640126606E-002           1      104244           0
</event>
<event>
      5   9999  3.79277E-02  1.25378E+01 -1.00000E+00  1.85048E-01
      21    -1     0     0   502   511  0.000000000E+00  0.000000000E+00  4.002900966E+02  4.002900966E+02  0.000000000E+00  0.00000E+00  9.000E+00
      21    -1     0     0   501   502  0.000000000E+00  0.000000000E+00 -1.851948945E+02  1.851948945E+02  0.000000000E+00  0.00000E+00  9.000E+00
      25     1     1     2     0     0 -2.314643398E+01  2.159108976E+02  1.392267620E+02  2.866397816E+02  1.250000000E+02  0.00000E+00  9.000E+00
      25     1     1     2     0     0  3.502593924E+01 -2.199200205E+02  3.704611491E+01  2.580485351E+02  1.250000000E+02  0.00000E+00  9.000E+00
      21     1     1     2   501   511 -1.187950525E+01  4.009122902E+00  3.882232511E+01  4.079667436E+01  6.743495762E-07  0.00000E+00  9.000E+00
#rwgt            1           1   2.5550608395715105E-002           1      104296           0
</event>
<event>
      5   9999  3.79277E-02  9.48591E+01 -1.00000E+00  1.24868E-01
      21    -1     0     0   502   501  0.000000000E+00  0.000000000E+00  2.873314283E+02  2.873314283E+02  0.000000000E+00  0.00000E+00  9.000E+00
       2    -1     0     0   501     0  0.000000000E+00  0.000000000E+00 -1.726644907E+03  1.726644907E+03  0.000000000E+00  0.00000E+00  9.000E+00
      25     1     1     2     0     0  2.933468208E+02 -9.958032586E+01  1.363641787E+01  3.343344889E+02  1.250000000E+02  0.00000E+00  9.000E+00
      25     1     1     2     0     0 -3.046941536E+02  5.402395088E+00 -1.312928257E+02  3.545849957E+02  1.250000000E+02  0.00000E+00  9.000E+00
       2     1     1     2   502     0  1.134733284E+01  9.417793077E+01 -1.321657071E+03  1.325056851E+03  1.525878906E-05  0.00000E+00  9.000E+00
#rwgt            2          13   2.1869408575360188E-003           1      104691           0
</event>
<event>
      5   9999  3.79277E-02  1.04046E+01 -1.00000E+00  1.93787E-01
      21    -1     0     0   502   511  0.000000000E+00  0.000000000E+00  2.087999272E+03  2.087999272E+03  0.000000000E+00  0.00000E+00  9.000E+00
      21    -1     0     0   501   502  0.000000000E+00  0.000000000E+00 -8.197709849E+01  8.197709849E+01  0.000000000E+00  0.00000E+00  9.000E+00
      25     1     1     2     0     0  7.856244943E+01  6.190868646E+01  2.779338929E+02  3.207444353E+02  1.250000000E+02  0.00000E+00  9.000E+00
      25     1     1     2     0     0 -8.086609244E+01 -5.176229469E+01  4.200941963E+01  1.631209717E+02  1.250000000E+02  0.00000E+00  9.000E+00
      21     1     1     2   501   511  2.303643004E+00 -1.014639177E+01  1.686078861E+03  1.686110964E+03  3.051757812E-05  0.00000E+00  9.000E+00
#rwgt            1           1   3.7462593929157836E-002           1      104740           0
</event>
<event>
      5   9999  3.79277E-02  1.44035E+01 -1.00000E+00  1.79060E-01
      21    -1     0     0   502   501  0.000000000E+00  0.000000000E+00  5.684077431E+02  5.684077431E+02  0.000000000E+00  0.00000E+00  9.000E+00
      21    -1     0     0   512   502  0.000000000E+00  0.000000000E+00 -4.372184013E+02  4.372184013E+02  0.000000000E+00  0.00000E+00  9.000E+00
      25     1     1     2     0     0  2.040470403E+02  1.723756190E+02  7.227346986E+01  3.036395942E+02  1.250000000E+02  0.00000E+00  9.000E+00
      25     1     1     2     0     0 -1.898479966E+02 -1.699575097E+02  3.272987962E+02  4.332174038E+02  1.250000000E+02  0.00000E+00  9.000E+00
      21     1     1     2   512   501 -1.419904370E+01 -2.418109312E+00 -2.683829242E+02  2.687691465E+02  3.814697266E-06  0.00000E+00  9.000E+00
#rwgt            1           1   3.7995878892012745E-002           1      105092           0
</event>
<event>
      5   9999  3.79277E-02  1.27219E+02 -1.00000E+00  1.19301E-01
      21    -1     0     0   502   501  0.000000000E+00  0.000000000E+00  1.567066557E+02  1.567066557E+02  0.000000000E+00  0.00000E+00  9.000E+00
      21    -1     0     0   501   511  0.000000000E+00  0.000000000E+00 -1.257098006E+03  1.257098006E+03  0.000000000E+00  0.00000E+00  9.000E+00
      25     1     1     2     0     0 -2.714711928E+02 -1.570365586E+01 -9.409178626E+01  3.137219750E+02  1.250000000E+02  0.00000E+00  9.000E+00
      25     1     1     2     0     0  1.544828820E+02  6.568848165E+01 -2.203612155E+02  3.039144662E+02  1.250000000E+02  0.00000E+00  9.000E+00
      21     1     1     2   502   511  1.169883108E+02 -4.998482579E+01 -7.859383483E+02  7.961682203E+02  0.000000000E+00  0.00000E+00  9.000E+00
#rwgt            1           1   2.9144725988815501E-002           1      105357           0
</event>
<event>
      5   9999  3.79277E-02  2.69819E+01 -1.00000E+00  1.56309E-01
      21    -1     0     0   512   501  0.000000000E+00  0.000000000E+00  2.780940228E+02  2.780940228E+02  0.000000000E+00  0.00000E+00  9.000E+00
      21    -1     0     0   501   502  0.000000000E+00  0.000000000E+00 -9.022259130E+02  9.022259130E+02  0.000000000E+00  0.00000E+00  9.000E+00
      25     1     1     2     0     0 -6.945024018E+01 -8.809728901E+00 -8.069997623E+02  8.196185476E+02  1.250000000E+02  0.00000E+00  9.000E+00
      25     1     1     2     0     0  9.637568230E+01  7.065515886E+00 -1.710114981E+01  1.589202409E+02  1.250000000E+02  0.00000E+00  9.000E+00
      21     1     1     2   512   502 -2.692544212E+01  1.744213015E+00  1.999690219E+02  2.017811474E+02  2.697398305E-06  0.00000E+00  9.000E+00
#rwgt            1           1   4.6497184713394098E-002           1      105491           0
</event>
<event>
      5   9999  3.79277E-02  7.24563E+01 -1.00000E+00  1.30467E-01
      21    -1     0     0   502   501  0.000000000E+00  0.000000000E+00  1.407801150E+02  1.407801150E+02  0.000000000E+00  0.00000E+00  9.000E+00
       2    -1     0     0   501     0  0.000000000E+00  0.000000000E+00 -1.671361140E+03  1.671361140E+03  0.000000000E+00  0.00000E+00  9.000E+00
      25     1     1     2     0     0 -7.433231603E+00  1.511587550E+02 -4.909591183E+01  2.023354410E+02  1.250000000E+02  0.00000E+00  9.000E+00
      25     1     1     2     0     0 -5.722937988E+01 -1.838490694E+02 -1.453591667E+02  2.717167084E+02  1.250000000E+02  0.00000E+00  9.000E+00
       2     1     1     2   502     0  6.466261149E+01  3.269031447E+01 -1.336125947E+03  1.338089106E+03  1.525878906E-05  0.00000E+00  9.000E+00
#rwgt            1           1   4.2226857100529085E-002           1      105608           0
</event>
<event>
      5   9999  3.79277E-02  8.39867E+01 -1.00000E+00  1.27335E-01
      21    -1     0     0   502   501  0.000000000E+00  0.000000000E+00  2.566734334E+02  2.566734334E+02  0.000000000E+00  0.00000E+00  9.000E+00
      21    -1     0     0   501   511  0.000000000E+00  0.000000000E+00 -3.850913405E+02  3.850913405E+02  0.000000000E+00  0.00000E+00  9.000E+00
      25     1     1     2     0     0 -1.597888497E+02 -5.875780089E+01  7.359601514E+01  2.236656636E+02  1.250000000E+02  0.00000E+00  9.000E+00
      25     1     1     2     0     0  2.213246968E+02  1.159164548E+02 -1.759607449E+02  3.301642465E+02  1.250000000E+02  0.00000E+00  9.000E+00
      21     1     1     2   502   511 -6.153584715E+01 -5.715865394E+01 -2.605317735E+01  8.793486370E+01  1.581489940E-06  0.00000E+00  9.000E+00
#rwgt            1           1   4.9347853387312554E-002           1      105861           0
</event>
<event>
      5   9999  3.79277E-02  6.49091E+01 -1.00000E+00  1.32903E-01
      21    -1     0     0   502   501  0.000000000E+00  0.000000000E+00  8.381078012E+01  8.381078012E+01  0.000000000E+00  0.00000E+00  9.000E+00
      21    -1     0     0   512   502  0.000000000E+00  0.000000000E+00 -7.664850490E+02  7.664850490E+02  0.000000000E+00  0.00000E+00  9.000E+00
      25     1     1     2     0     0 -5.739932471E+01 -1.107889438E+02 -5.212981898E+02  5.504050102E+02  1.250000000E+02  0.00000E+00  9.000E+00
      25     1     1     2     0     0 -3.884460123E+00  8.940007681E+01 -3.476426781E+01  1.576103330E+02  1.250000000E+02  0.00000E+00  9.000E+00
      21     1     1     2   512   501  6.128378484E+01  2.138886702E+01 -1.266118112E+02  1.422804859E+02  1.348699152E-06  0.00000E+00  9.000E+00
#rwgt            1           1   4.2235230239068999E-002           1      105946           0
</event>
<event>
      5   9999  3.79277E-02  5.89883E+01 -1.00000E+00  1.35099E-01
      21    -1     0     0   502   501  0.000000000E+00  0.000000000E+00  7.207478854E+01  7.207478854E+01  0.000000000E+00  0.00000E+00  9.000E+00
       1    -1     0     0   501     0  0.000000000E+00  0.000000000E+00 -1.553480551E+03  1.553480551E+03  0.000000000E+00  0.00000E+00  9.000E+00
      25     1     1     2     0     0 -7.333724805E+01  1.033653926E+02 -7.193091544E+01  1.919943044E+02  1.250000000E+02  0.00000E+00  9.000E+00
      25     1     1     2     0     0  1.560169428E+01 -1.154578071E+02 -6.597652911E+02  6.815344140E+02  1.250000000E+02  0.00000E+00  9.000E+00
       1     1     1     2   502     0  5.773555377E+01  1.209241449E+01 -7.497095555E+02  7.520266207E+02  1.078959322E-05  0.00000E+00  9.000E+00
#rwgt            1           1   3.0937526437783913E-002           1      106035           0
</event>
<event>
      5   9999  3.79277E-02  1.24038E+02 -1.00000E+00  1.19761E-01
      21    -1     0     0   502   501  0.000000000E+00  0.000000000E+00  3.919762598E+02  3.919762598E+02  0.000000000E+00  0.00000E+00  9.000E+00
      21    -1     0     0   511   502  0.000000000E+00  0.000000000E+00 -1.821221048E+02  1.821221048E+02  0.000000000E+00  0.00000E+00  9.000E+00
      25     1     1     2     0     0 -5.272265911E+00  1.825696911E+02  6.525768163E+01  2.307445642E+02  1.250000000E+02  0.00000E+00  9.000E+00
      25     1     1     2     0     0  9.488339604E+01 -9.680625829E+01  1.094747714E+02  2.144388865E+02  1.250000000E+02  0.00000E+00  9.000E+00
      21     1     1     2   511   501 -8.961113012E+01 -8.576343285E+01  3.512170194E+01  1.289149138E+02  2.132480600E-06  0.00000E+00  9.000E+00
#rwgt            1           1   3.4418498712680004E-002           1      106208           0
</event>
<event>
      5   9999 -3.79277E-02  1.65905E+01 -1.00000E+00  1.73357E-01
      21    -1     0     0   512   501  0.000000000E+00  0.000000000E+00  5.582282685E+02  5.582282685E+02  0.000000000E+00  0.00000E+00  9.000E+00
      21    -1     0     0   501   502  0.000000000E+00  0.000000000E+00 -8.431924888E+01  8.431924888E+01  0.000000000E+00  0.00000E+00  9.000E+00
      25     1     1     2     0     0 -1.388022234E+02  3.264121558E+01  2.019406455E+02  2.770135926E+02  1.250000000E+02  0.00000E+00  9.000E+00
      25     1     1     2     0     0  1.461241593E+02 -1.775384085E+01  1.556297872E+02  2.480183450E+02  1.250000000E+02  0.00000E+00  9.000E+00
      21     1     1     2   512   502 -7.321935914E+00 -1.488737473E+01  1.163385870E+02  1.175155798E+02  1.907348633E-06  0.00000E+00  9.000E+00
#rwgt            1           1  -2.1803246421138137E-002           1      106267           0
</event>
<event>
      5   9999  3.79277E-02  2.07827E+01 -1.00000E+00  1.65005E-01
      21    -1     0     0   502   501  0.000000000E+00  0.000000000E+00  6.182674067E+01  6.182674067E+01  0.000000000E+00  0.00000E+00  9.000E+00
      21    -1     0     0   501   511  0.000000000E+00  0.000000000E+00 -2.332981988E+03  2.332981988E+03  0.000000000E+00  0.00000E+00  9.000E+00
      25     1     1     2     0     0  3.745279012E+01  1.712174064E+01 -1.195154293E+03  1.202378746E+03  1.250000000E+02  0.00000E+00  9.000E+00
      25     1     1     2     0     0 -4.817508366E+01 -3.492488672E+01 -2.433943676E+01  1.405631338E+02  1.250000000E+02  0.00000E+00  9.000E+00
      21     1     1     2   502   511  1.072229354E+01  1.780314608E+01 -1.051661518E+03  1.051866849E+03  1.525878906E-05  0.00000E+00  9.000E+00
#rwgt            1           1   3.4372482331482115E-002           1      106508           0
</event>
<event>
      5   9999  3.79277E-02  1.67120E+02 -1.00000E+00  1.14563E-01
      21    -1     0     0   502   512  0.000000000E+00  0.000000000E+00  1.042876367E+02  1.042876367E+02  0.000000000E+00  0.00000E+00  9.000E+00
      21    -1     0     0   501   502  0.000000000E+00  0.000000000E+00 -1.681065043E+03  1.681065043E+03  0.000000000E+00  0.00000E+00  9.000E+00
      25     1     1     2     0     0 -1.891058035E+02 -8.153870351E+01 -1.249164356E+03  1.272181651E+03  1.250000000E+02  0.00000E+00  9.000E+00
      25     1     1     2     0     0  5.064579562E+01  1.751229506E+02 -1.387244595E+02  2.609645955E+02  1.250000000E+02  0.00000E+00  9.000E+00
      21     1     1     2   501   512  1.384600079E+02 -9.358424714E+01 -1.888885903E+02  2.522064326E+02  3.814697266E-06  0.00000E+00  9.000E+00
#rwgt            2          11   2.2535539789766074E-003           1      106740           0
</event>
<event>
      5   9999  3.79277E-02  4.67105E+00 -1.00000E+00  2.48547E-01
      21    -1     0     0   511   501  0.000000000E+00  0.000000000E+00  6.749618427E+01  6.749618427E+01  0.000000000E+00  0.00000E+00  9.000E+00
      21    -1     0     0   501   502  0.000000000E+00  0.000000000E+00 -1.268581466E+03  1.268581466E+03  0.000000000E+00  0.00000E+00  9.000E+00
      25     1     1     2     0     0  3.736367128E+01  2.415352412E+02 -3.783113065E+02  4.674181867E+02  1.250000000E+02  0.00000E+00  9.000E+00
      25     1     1     2     0     0 -3.737067815E+01 -2.368641933E+02 -8.194773413E+02  8.629422498E+02  1.250000000E+02  0.00000E+00  9.000E+00
      21     1     1     2   511   502  7.006867913E-03 -4.671047905E+00 -3.296634108E+00  5.717213838E+00  9.424321831E-08  0.00000E+00  9.000E+00
#rwgt            1           1   4.1737343765067422E-002           1      106925           0
</event>
<event>
      5   9999  3.79277E-02  1.41539E+02 -1.00000E+00  1.17402E-01
      21    -1     0     0   502   512  0.000000000E+00  0.000000000E+00  1.649487321E+03  1.649487321E+03  0.000000000E+00  0.00000E+00  9.000E+00
      21    -1     0     0   501   502  0.000000000E+00  0.000000000E+00 -1.256559459E+02  1.256559459E+02  0.000000000E+00  0.00000E+00  9.000E+00
      25     1     1     2     0     0 -6.600353271E+01  4.070534336E+02  6.140800709E+02  7.501788438E+02  1.250000000E+02  0.00000E+00  9.000E+00
      25     1     1     2     0     0  1.119558253E+02 -2.731814675E+02  5.267457343E+02  6.166427569E+02  1.250000000E+02  0.00000E+00  9.000E+00
      21     1     1     2   501   512 -4.595229262E+01 -1.338719662E+02  3.830055694E+02  4.083216657E+02  0.000000000E+00  0.00000E+00  9.000E+00
#rwgt            1           1   2.4219148007144260E-002           1      107462           0
</event>
<event>
      5   9999  3.79277E-02  2.27793E+02 -1.00000E+00  1.09629E-01
      21    -1     0     0   502   501  0.000000000E+00  0.000000000E+00  2.103383868E+02  2.103383868E+02  0.000000000E+00  0.00000E+00  9.000E+00
      21    -1     0     0   501   511  0.000000000E+00  0.000000000E+00 -3.337140951E+03  3.337140951E+03  0.000000000E+00  0.00000E+00  9.000E+00
      25     1     1     2     0     0 -5.465781319E+02  5.651476538E+02 -1.368448677E+03  1.583166544E+03  1.250000000E+02  0.00000E+00  9.000E+00
      25     1     1     2     0     0  4.737238453E+02 -3.493197647E+02 -9.504413119E+02  1.124901003E+03  1.250000000E+02  0.00000E+00  9.000E+00
      21     1     1     2   502   511  7.285428666E+01 -2.158278890E+02 -8.079125751E+02  8.394117903E+02  1.868812365E-05  0.00000E+00  9.000E+00
#rwgt            1           1   2.1520299938261954E-002           1      107570           0
</event>
<event>
      5   9999  3.79277E-02  2.67152E+02 -1.00000E+00  1.07255E-01
      21    -1     0     0   512   501  0.000000000E+00  0.000000000E+00  1.347917490E+03  1.347917490E+03  0.000000000E+00  0.00000E+00  9.000E+00
      21    -1     0     0   501   502  0.000000000E+00  0.000000000E+00 -2.325689654E+02  2.325689654E+02  0.000000000E+00  0.00000E+00  9.000E+00
      25     1     1     2     0     0  3.749314216E+01  2.696857367E+02  3.231259706E+02  4.406489818E+02  1.250000000E+02  0.00000E+00  9.000E+00
      25     1     1     2     0     0 -3.460917516E+01 -5.368223196E+02  5.256075564E+02  7.624069131E+02  1.250000000E+02  0.00000E+00  9.000E+00
      21     1     1     2   512   502 -2.883966995E+00  2.671365829E+02  2.666149980E+02  3.774305609E+02  5.394796609E-06  0.00000E+00  9.000E+00
#rwgt            1           1   4.0272840731596989E-002           1      107628           0
</event>
<event>
      5   9999  3.79277E-02  1.56433E+02 -1.00000E+00  1.15675E-01
      21    -1     0     0   502   501  0.000000000E+00  0.000000000E+00  1.047335761E+03  1.047335761E+03  0.000000000E+00  0.00000E+00  9.000E+00
      21    -1     0     0   501   511  0.000000000E+00  0.000000000E+00 -1.623298525E+02  1.623298525E+02  0.000000000E+00  0.00000E+00  9.000E+00
      25     1     1     2     0     0 -2.813880589E+02 -9.182221164E+01  6.811172764E+02  7.530978040E+02  1.250000000E+02  0.00000E+00  9.000E+00
      25     1     1     2     0     0  1.388942840E+02  1.563730541E+02  1.683168589E+02  2.961413837E+02  1.250000000E+02  0.00000E+00  9.000E+00
      21     1     1     2   502   511  1.424937749E+02 -6.455084248E+01  3.557177373E+01  1.604264263E+02  2.900487199E-06  0.00000E+00  9.000E+00
#rwgt            2          11   2.6919616113621264E-003           1      107781           0
</event>
<event>
      5   9999  3.79277E-02  3.04878E+01 -1.00000E+00  1.52555E-01
      21    -1     0     0   502   501  0.000000000E+00  0.000000000E+00  1.677091435E+02  1.677091435E+02  0.000000000E+00  0.00000E+00  9.000E+00
      21    -1     0     0   512   502  0.000000000E+00  0.000000000E+00 -4.329329488E+02  4.329329488E+02  0.000000000E+00  0.00000E+00  9.000E+00
      25     1     1     2     0     0  3.583975534E+01 -1.773867613E+02 -9.014396469E+01  2.377004113E+02  1.250000000E+02  0.00000E+00  9.000E+00
      25     1     1     2     0     0 -3.255357572E+01  1.470765752E+02 -1.100088338E+01  1.960542622E+02  1.250000000E+02  0.00000E+00  9.000E+00
      21     1     1     2   512   501 -3.286179615E+00  3.031018609E+01 -1.640789573E+02  1.668874189E+02  1.907348633E-06  0.00000E+00  9.000E+00
#rwgt            1           1   3.9564616765510915E-002           1      107861           0
</event>
<event>
      5   9999  3.79277E-02  6.43247E+00 -1.00000E+00  2.20878E-01
      21    -1     0     0   502   511  0.000000000E+00  0.000000000E+00  2.672074967E+02  2.672074967E+02  0.000000000E+00  0.00000E+00  9.000E+00
      21    -1     0     0   501   502  0.000000000E+00  0.000000000E+00 -2.918061257E+02  2.918061257E+02  0.000000000E+00  0.00000E+00  9.000E+00
      25     1     1     2     0     0  1.140088152E+02  7.553348165E+01 -2.931135024E+01  1.875832403E+02  1.250000000E+02  0.00000E+00  9.000E+00
      25     1     1     2     0     0 -1.111466798E+02 -6.977285087E+01 -1.384840771E+02  2.280891816E+02  1.250000000E+02  0.00000E+00  9.000E+00
      21     1     1     2   501   511 -2.862135393E+00 -5.760630785E+00  1.431967984E+02  1.433412005E+02  1.907348633E-06  0.00000E+00  9.000E+00
#rwgt            1           1   3.8352787722089242E-002           1      107998           0
</event>
<event>
      5   9999  3.79277E-02  1.09147E+02 -1.00000E+00  1.22142E-01
      21    -1     0     0   502   501  0.000000000E+00  0.000000000E+00  4.061471954E+02  4.061471954E+02  0.000000000E+00  0.00000E+00  9.000E+00
      21    -1     0     0   512   502  0.000000000E+00  0.000000000E+00 -2.931367673E+02  2.931367673E+02  0.000000000E+00  0.00000E+00  9.000E+00
      25     1     1     2     0     0  7.977926181E+01  1.386249791E+02 -1.207402425E+02  2.361881064E+02  1.250000000E+02  0.00000E+00  9.000E+00
      25     1     1     2     0     0 -1.887450222E+02 -1.323337282E+02  2.376318691E+02  3.538796466E+02  1.250000000E+02  0.00000E+00  9.000E+00
      21     1     1     2   512   501  1.089657604E+02 -6.291250845E+00 -3.881198495E+00  1.092162098E+02  1.499030154E-06  0.00000E+00  9.000E+00
#rwgt            1           1   3.7321939707018838E-002           1      108323           0
</event>
<event>
      5   9999  3.79277E-02  1.13610E+02 -1.00000E+00  1.21386E-01
      21    -1     0     0   502   501  0.000000000E+00  0.000000000E+00  6.771687475E+01  6.771687475E+01  0.000000000E+00  0.00000E+00  9.000E+00
      21    -1     0     0   511   502  0.000000000E+00  0.000000000E+00 -1.366701105E+03  1.366701105E+03  0.000000000E+00  0.00000E+00  9.000E+00
      25     1     1     2     0     0 -8.097797362E+01 -5.957720728E+01 -1.391179641E+02  2.123338969E+02  1.250000000E+02  0.00000E+00  9.000E+00
      25     1     1     2     0     0  1.805748504E+02  4.917549598E+00 -4.242797297E+02  4.777758344E+02  1.250000000E+02  0.00000E+00  9.000E+00
      21     1     1     2   511   501 -9.959687683E+01  5.465965768E+01 -7.355865361E+02  7.443082481E+02  1.078959322E-05  0.00000E+00  9.000E+00
#rwgt            1           1  0.20978593052083339                1      108403           0
</event>
<event>
      5   9999  3.79277E-02  1.15307E+02 -1.00000E+00  1.21108E-01
      21    -1     0     0   502   512  0.000000000E+00  0.000000000E+00  7.832236036E+02  7.832236036E+02  0.000000000E+00  0.00000E+00  9.000E+00
      21    -1     0     0   501   502  0.000000000E+00  0.000000000E+00 -2.158242664E+02  2.158242664E+02  0.000000000E+00  0.00000E+00  9.000E+00
      25     1     1     2     0     0  8.568665212E+01  3.282331297E+02  2.226002566E+02  4.245645581E+02  1.250000000E+02  0.00000E+00  9.000E+00
      25     1     1     2     0     0  2.753493299E+01 -3.064018018E+02  1.937512068E+02  3.844538552E+02  1.250000000E+02  0.00000E+00  9.000E+00
      21     1     1     2   501   512 -1.132215851E+02 -2.183132786E+01  1.510478738E+02  1.900294567E+02  1.907348633E-06  0.00000E+00  9.000E+00
#rwgt            1           1   3.9390344748305044E-002           1      108463           0
</event>
<event>
      5   9999  3.79277E-02  6.06989E+01 -1.00000E+00  1.34435E-01
      21    -1     0     0   502   501  0.000000000E+00  0.000000000E+00  2.390018499E+02  2.390018499E+02  0.000000000E+00  0.00000E+00  9.000E+00
      21    -1     0     0   511   502  0.000000000E+00  0.000000000E+00 -4.056603131E+02  4.056603131E+02  0.000000000E+00  0.00000E+00  9.000E+00
      25     1     1     2     0     0  7.541746211E+01  5.738127597E+01  1.816644758E+02  2.400153874E+02  1.250000000E+02  0.00000E+00  9.000E+00
      25     1     1     2     0     0 -2.127114879E+01 -2.994892834E+01 -2.999733699E+02  3.270449858E+02  1.250000000E+02  0.00000E+00  9.000E+00
      21     1     1     2   511   501 -5.414631332E+01 -2.743234764E+01 -4.834956911E+01  7.760178977E+01  1.348699152E-06  0.00000E+00  9.000E+00
#rwgt            1           1   4.3887090606501693E-002           1      108555           0
</event>
<event>
      5   9999  3.79277E-02  1.27928E+01 -1.00000E+00  1.84153E-01
      21    -1     0     0   502   501  0.000000000E+00  0.000000000E+00  1.268993929E+03  1.268993929E+03  0.000000000E+00  0.00000E+00  9.000E+00
      21    -1     0     0   512   502  0.000000000E+00  0.000000000E+00 -4.458508557E+01  4.458508557E+01  0.000000000E+00  0.00000E+00  9.000E+00
      25     1     1     2     0     0  2.490728961E+01 -5.623762141E+01  3.084281173E+02  3.384315982E+02  1.250000000E+02  0.00000E+00  9.000E+00
      25     1     1     2     0     0 -2.510583221E+01  6.902888361E+01  9.382928014E+02  9.494280756E+02  1.250000000E+02  0.00000E+00  9.000E+00
      21     1     1     2   512   501  1.985426007E-01 -1.279126220E+01 -2.231207503E+01  2.571934097E+01  8.596304120E-07  0.00000E+00  9.000E+00
#rwgt            1           1   4.3463830479001757E-002           1      108660           0
</event>
<event>
      5   9999  3.79277E-02  3.69864E+01 -1.00000E+00  1.46982E-01
      21    -1     0     0   502   501  0.000000000E+00  0.000000000E+00  4.691786942E+01  4.691786942E+01  0.000000000E+00  0.00000E+00  9.000E+00
      21    -1     0     0   501   511  0.000000000E+00  0.000000000E+00 -1.714578438E+03  1.714578438E+03  0.000000000E+00  0.00000E+00  9.000E+00
      25     1     1     2     0     0  2.371513269E+01 -1.744195089E+02 -2.936875899E+02  3.645023636E+02  1.250000000E+02  0.00000E+00  9.000E+00
      25     1     1     2     0     0 -8.513074517E+00  1.407017393E+02 -8.022133481E+02  8.240392635E+02  1.250000000E+02  0.00000E+00  9.000E+00
      21     1     1     2   502   511 -1.520205817E+01  3.371776962E+01 -5.717596305E+02  5.729546803E+02  7.629394531E-06  0.00000E+00  9.000E+00
#rwgt            1           1   4.5441467772126057E-002           1      108871           0
</event>
<event>
      5   9999  3.79277E-02  3.27733E+01 -1.00000E+00  1.50420E-01
      21    -1     0     0   502   512  0.000000000E+00  0.000000000E+00  1.360660287E+03  1.360660287E+03  0.000000000E+00  0.00000E+00  9.000E+00
      21    -1     0     0   501   502  0.000000000E+00  0.000000000E+00 -2.451210067E+01  2.451210067E+01  0.000000000E+00  0.00000E+00  9.000E+00
      25     1     1     2     0     0  7.361243758E+00 -1.016689517E+02  4.666653037E+02  4.937532474E+02  1.250000000E+02  0.00000E+00  9.000E+00
      25     1     1     2     0     0  2.540303649E+01  1.024366634E+02  7.100374452E+02  7.286403487E+02  1.250000000E+02  0.00000E+00  9.000E+00
      21     1     1     2   501   512 -3.276428025E+01 -7.677117314E-01  1.594454372E+02  1.627787912E+02  1.907348633E-06  0.00000E+00  9.000E+00
#rwgt            1           1   3.3569813984738253E-002           1      109070           0
</event>
<event>
      5   9999  3.79277E-02  1.57434E+01 -1.00000E+00  1.75427E-01
      21    -1     0     0   502   501  0.000000000E+00  0.000000000E+00  6.502744342E+01  6.502744342E+01  0.000000000E+00  0.00000E+00  9.000E+00
      21    -1     0     0   511   502  0.000000000E+00  0.000000000E+00 -1.490972098E+03  1.490972098E+03  0.000000000E+00  0.00000E+00  9.000E+00
      25     1     1     2     0     0 -1.204621663E+02 -1.476795279E+02 -1.945897705E+02  2.996840924E+02  1.250000000E+02  0.00000E+00  9.000E+00
      25     1     1     2     0     0  1.047237618E+02  1.472832102E+02 -9.739812856E+02  9.984607929E+02  1.250000000E+02  0.00000E+00  9.000E+00
      21     1     1     2   511   501  1.573840455E+01  3.963176477E-01 -2.573735989E+02  2.578546564E+02  0.000000000E+00  0.00000E+00  9.000E+00
#rwgt            1           1   3.4365923872828837E-002           1      109228           0
</event>
<event>
      5   9999  3.79277E-02  6.85540E+01 -1.00000E+00  1.31681E-01
      21    -1     0     0   512   501  0.000000000E+00  0.000000000E+00  1.077715183E+03  1.077715183E+03  0.000000000E+00  0.00000E+00  9.000E+00
      21    -1     0     0   501   502  0.000000000E+00  0.000000000E+00 -1.381682553E+02  1.381682553E+02  0.000000000E+00  0.00000E+00  9.000E+00
      25     1     1     2     0     0  2.286727808E+02 -1.178422226E+02  2.818486391E+02  4.015491072E+02  1.250000000E+02  0.00000E+00  9.000E+00
      25     1     1     2     0     0 -2.777223495E+02  1.657357857E+02  3.269985751E+02  4.766037371E+02  1.250000000E+02  0.00000E+00  9.000E+00
      21     1     1     2   512   502  4.904956870E+01 -4.789356311E+01  3.306997132E+02  3.377305936E+02  6.607249480E-06  0.00000E+00  9.000E+00
#rwgt            1           1   3.2545358021589872E-002           1      109454           0
</event>
<event>
      5   9999 -3.79277E-02  1.04585E+02 -1.00000E+00  1.22959E-01
      21    -1     0     0   511   501  0.000000000E+00  0.000000000E+00  7.290402824E+01  7.290402824E+01  0.000000000E+00  0.00000E+00  9.000E+00
      21    -1     0     0   501   502  0.000000000E+00  0.000000000E+00 -1.688628284E+03  1.688628284E+03  0.000000000E+00  0.00000E+00  9.000E+00
      25     1     1     2     0     0 -1.110830172E+02 -1.302422705E+02 -4.965751517E+02  5.399207043E+02  1.250000000E+02  0.00000E+00  9.000E+00
      25     1     1     2     0     0  2.035333615E+02  1.791397127E+02 -1.060452464E+03  1.101681121E+03  1.250000000E+02  0.00000E+00  9.000E+00
      21     1     1     2   511   502 -9.245034430E+01 -4.889744223E+01 -5.869664100E+01  1.199304869E+02  2.236564522E-06  0.00000E+00  9.000E+00
#rwgt            1           1 -0.33984405167285398                1      109502           0
</event>
<event>
      5   9999  3.79277E-02  3.79918E+01 -1.00000E+00  1.46241E-01
      21    -1     0     0   502   512  0.000000000E+00  0.000000000E+00  3.549601709E+02  3.549601709E+02  0.000000000E+00  0.00000E+00  9.000E+00
      21    -1     0     0   501   502  0.000000000E+00  0.000000000E+00 -1.668355922E+03  1.668355922E+03  0.000000000E+00  0.00000E+00  9.000E+00
      25     1     1     2     0     0 -4.961480808E+02 -4.683351959E+02 -2.492261685E+02  7.370477983E+02  1.250000000E+02  0.00000E+00  9.000E+00
      25     1     1     2     0     0  5.095926969E+02  4.328018417E+02 -1.034472242E+03  1.238046837E+03  1.250000000E+02  0.00000E+00  9.000E+00
      21     1     1     2   501   512 -1.344461610E+01  3.553335425E+01 -2.969734073E+01  4.822145801E+01  5.840038640E-07  0.00000E+00  9.000E+00
#rwgt            2          11   1.3488735032750289E-002           1      109571           0
</event>
<event>
      5   9999 -3.79277E-02  3.95792E+01 -1.00000E+00  1.45126E-01
      21    -1     0     0   511   501  0.000000000E+00  0.000000000E+00  6.208983945E+02  6.208983945E+02  0.000000000E+00  0.00000E+00  9.000E+00
      21    -1     0     0   501   502  0.000000000E+00  0.000000000E+00 -1.719952222E+02  1.719952222E+02  0.000000000E+00  0.00000E+00  9.000E+00
      25     1     1     2     0     0 -1.394921466E+02 -1.788872286E+02 -4.209231347E+00  2.590394123E+02  1.250000000E+02  0.00000E+00  9.000E+00
      25     1     1     2     0     0  1.000255535E+02  1.818708151E+02  3.991178910E+02  4.669070525E+02  1.250000000E+02  0.00000E+00  9.000E+00
      21     1     1     2   511   502  3.946659303E+01 -2.983586455E+00  5.399451263E+01  6.694715190E+01  6.743495762E-07  0.00000E+00  9.000E+00
#rwgt            1           1  -2.0944566255607016E-002           1      109711           0
</event>
<event>
      5   9999  3.79277E-02  2.46759E+01 -1.00000E+00  1.59177E-01
      21    -1     0     0   502   501  0.000000000E+00  0.000000000E+00  1.754818599E+02  1.754818599E+02  0.000000000E+00  0.00000E+00  9.000E+00
      21    -1     0     0   501   512  0.000000000E+00  0.000000000E+00 -6.394522942E+02  6.394522942E+02  0.000000000E+00  0.00000E+00  9.000E+00
      25     1     1     2     0     0 -4.114229590E+01 -9.445226186E+00  1.118915478E+02  1.729931191E+02  1.250000000E+02  0.00000E+00  9.000E+00
      25     1     1     2     0     0  6.573089577E+01  7.371209790E+00 -1.201718790E+02  1.855833125E+02  1.250000000E+02  0.00000E+00  9.000E+00
      21     1     1     2   502   512 -2.458859987E+01  2.074016396E+00 -4.556901030E+02  4.563577224E+02  0.000000000E+00  0.00000E+00  9.000E+00
#rwgt            1           1   4.5757606609739536E-002           1      109813           0
</event>
<event>
      5   9999  3.79277E-02  1.12768E+02 -1.00000E+00  1.21525E-01
      21    -1     0     0   511   501  0.000000000E+00  0.000000000E+00  1.780912078E+02  1.780912078E+02  0.000000000E+00  0.00000E+00  9.000E+00
      21    -1     0     0   501   502  0.000000000E+00  0.000000000E+00 -9.955574094E+02  9.955574094E+02  0.000000000E+00  0.00000E+00  9.000E+00
      25     1     1     2     0     0 -3.006471104E+01 -4.577304357E+01 -6.658287507E+02  6.796704963E+02  1.250000000E+02  0.00000E+00  9.000E+00
      25     1     1     2     0     0  5.727603369E+01  1.552082916E+02 -2.633908440E+02  3.352161907E+02  1.250000000E+02  0.00000E+00  9.000E+00
      21     1     1     2   511   502 -2.721132266E+01 -1.094352480E+02  1.117533931E+02  1.587619301E+02  2.336015456E-06  0.00000E+00  9.000E+00
#rwgt            1           1   4.1433363504128649E-002           1      109958           0
</event>
<event>
      5   9999  3.79277E-02  2.69936E+01 -1.00000E+00  1.56295E-01
      21    -1     0     0   512   501  0.000000000E+00  0.000000000E+00  2.795227181E+03  2.795227181E+03  0.000000000E+00  0.00000E+00  9.000E+00
      21    -1     0     0   501   502  0.000000000E+00  0.000000000E+00 -2.467606373E+01  2.467606373E+01  0.000000000E+00  0.00000E+00  9.000E+00
      25     1     1     2     0     0  2.004876714E+01  1.576495162E+02  1.071232413E+03  1.090146415E+03  1.250000000E+02  0.00000E+00  9.000E+00
      25     1     1     2     0     0  6.826626714E+00 -1.601725257E+02  6.718245918E+02  7.019082013E+02  1.250000000E+02  0.00000E+00  9.000E+00
      21     1     1     2   512   502 -2.687539385E+01  2.523009568E+00  1.027494112E+03  1.027848629E+03  0.000000000E+00  0.00000E+00  9.000E+00
#rwgt            1           1   7.8977185834194844E-002           1      110044           0
</event>
<event>
      5   9999 -3.79277E-02  1.35467E+01 -1.00000E+00  1.81657E-01
      21    -1     0     0   502   501  0.000000000E+00  0.000000000E+00  5.522118260E+02  5.522118260E+02  0.000000000E+00  0.00000E+00  9.000E+00
       1    -1     0     0   501     0  0.000000000E+00  0.000000000E+00 -2.313283759E+02  2.313283759E+02  0.000000000E+00  0.00000E+00  9.000E+00
      25     1     1     2     0     0  3.417649498E+01 -6.024913199E+01  3.449772742E+02  3.734063610E+02  1.250000000E+02  0.00000E+00  9.000E+00
      25     1     1     2     0     0 -4.767786138E+01  6.135610432E+01  1.646843202E+02  2.208702680E+02  1.250000000E+02  0.00000E+00  9.000E+00
       1     1     1     2   502     0  1.350136640E+01 -1.106972338E+00 -1.887781442E+02  1.892635729E+02  3.814697266E-06  0.00000E+00  9.000E+00
#rwgt            1           1  -8.3533918557439871E-002           1      110329           0
</event>
<event>
      5   9999  3.79277E-02  8.52113E+01 -1.00000E+00  1.27037E-01
      21    -1     0     0   502   511  0.000000000E+00  0.000000000E+00  8.593213448E+02  8.593213448E+02  0.000000000E+00  0.00000E+00  9.000E+00
      21    -1     0     0   501   502  0.000000000E+00  0.000000000E+00 -8.256569403E+01  8.256569403E+01  0.000000000E+00  0.00000E+00  9.000E+00
      25     1     1     2     0     0  9.727422639E+00 -3.674735881E+01  8.666871685E+00  1.309393210E+02  1.250000000E+02  0.00000E+00  9.000E+00
      25     1     1     2     0     0 -5.679373243E+00  1.218624274E+02  5.333052711E+02  5.611793107E+02  1.250000000E+02  0.00000E+00  9.000E+00
      21     1     1     2   501   511 -4.048049397E+00 -8.511506855E+01  2.347835079E+02  2.497684071E+02  3.814697266E-06  0.00000E+00  9.000E+00
#rwgt            1           1   4.5541463846052406E-002           1      110643           0
</event>
<event>
      5   9999  3.79277E-02  8.11803E+01 -1.00000E+00  1.28042E-01
      21    -1     0     0   512   501  0.000000000E+00  0.000000000E+00  7.119967281E+02  7.119967281E+02  0.000000000E+00  0.00000E+00  9.000E+00
      21    -1     0     0   501   502  0.000000000E+00  0.000000000E+00 -2.109521200E+02  2.109521200E+02  0.000000000E+00  0.00000E+00  9.000E+00
      25     1     1     2     0     0 -2.656423083E+02 -1.209621869E+02  3.115839784E+02  4.448676906E+02  1.250000000E+02  0.00000E+00  9.000E+00
      25     1     1     2     0     0  1.872308073E+02  1.419829724E+02 -6.219786247E+00  2.662296478E+02  1.250000000E+02  0.00000E+00  9.000E+00
      21     1     1     2   512   502  7.841150096E+01 -2.102078551E+01  1.956804160E+02  2.118515096E+02  4.672030912E-06  0.00000E+00  9.000E+00
#rwgt            1           1   3.7499867201883856E-002           1      110931           0
</event>
<event>
      5   9999 -3.79277E-02  8.60819E+01 -1.00000E+00  1.26828E-01
      -1    -1     0     0     0   501  0.000000000E+00  0.000000000E+00  2.712739242E+02  2.712739242E+02  0.000000000E+00  0.00000E+00  9.000E+00
      21    -1     0     0   501   502  0.000000000E+00  0.000000000E+00 -2.100258579E+02  2.100258579E+02  0.000000000E+00  0.00000E+00  9.000E+00
      25     1     1     2     0     0  1.781587259E+02  2.815892996E+00  2.875704822E+01  2.195459603E+02  1.250000000E+02  0.00000E+00  9.000E+00
      25     1     1     2     0     0 -9.574394408E+01  2.204159289E+01 -2.105369289E+01  1.603776563E+02  1.250000000E+02  0.00000E+00  9.000E+00
      -1     1     1     2     0   502 -8.241478177E+01 -2.485748589E+01  5.354471107E+01  1.013761656E+02  9.536743164E-07  0.00000E+00  9.000E+00
#rwgt            1           1  -1.4613984095150931E-002           1      111068           0
</event>
<event>
      5   9999  3.79277E-02  7.80726E+01 -1.00000E+00  1.28864E-01
      21    -1     0     0   502   511  0.000000000E+00  0.000000000E+00  1.056528970E+02  1.056528970E+02  0.000000000E+00  0.00000E+00  9.000E+00
      21    -1     0     0   501   502  0.000000000E+00  0.000000000E+00 -8.426629574E+02  8.426629574E+02  0.000000000E+00  0.00000E+00  9.000E+00
      25     1     1     2     0     0  9.416101809E+01 -1.681457224E+02 -3.686911907E+02  4.343932267E+02  1.250000000E+02  0.00000E+00  9.000E+00
      25     1     1     2     0     0 -1.709858687E+02  1.820482757E+02 -3.034935132E+02  4.124452140E+02  1.250000000E+02  0.00000E+00  9.000E+00
      21     1     1     2   501   511  7.682485056E+01 -1.390255330E+01 -6.482535645E+01  1.014774137E+02  9.536743164E-07  0.00000E+00  9.000E+00
#rwgt            1           1   2.6382260387548276E-002           1      111226           0
</event>
<event>
      5   9999  3.79277E-02  7.77344E+01 -1.00000E+00  1.28956E-01
      21    -1     0     0   502   501  0.000000000E+00  0.000000000E+00  1.002213262E+03  1.002213262E+03  0.000000000E+00  0.00000E+00  9.000E+00
      21    -1     0     0   501   512  0.000000000E+00  0.000000000E+00 -1.535019382E+02  1.535019382E+02  0.000000000E+00  0.00000E+00  9.000E+00
      25     1     1     2     0     0 -2.624138938E+02  4.667223106E+01  6.991701594E+02  7.586193120E+02  1.250000000E+02  0.00000E+00  9.000E+00
      25     1     1     2     0     0  2.225224403E+02 -1.133903687E+02  7.449482481E+01  2.890468666E+02  1.250000000E+02  0.00000E+00  9.000E+00
      21     1     1     2   502   512  3.989145349E+01  6.671813763E+01  7.504633922E+01  1.080490212E+02  1.651812370E-06  0.00000E+00  9.000E+00
#rwgt            1           1   1.7177676242360312E-002           1      111298           0
</event>
<event>
      5   9999  3.79277E-02  3.08003E+01 -1.00000E+00  1.52250E-01
      21    -1     0     0   502   501  0.000000000E+00  0.000000000E+00  8.340503454E+01  8.340503454E+01  0.000000000E+00  0.00000E+00  9.000E+00
      21    -1     0     0   501   511  0.000000000E+00  0.000000000E+00 -7.873106302E+02  7.873106302E+02  0.000000000E+00  0.00000E+00  9.000E+00
      25     1     1     2     0     0 -7.030451478E+01 -2.025168428E+02 -4.089478747E+02  4.783504580E+02  1.250000000E+02  0.00000E+00  9.000E+00
      25     1     1     2     0     0  6.696419287E+01  1.718982524E+02 -2.287851973E+02  3.193757643E+02  1.250000000E+02  0.00000E+00  9.000E+00
      21     1     1     2   502   511  3.340321910E+00  3.061859043E+01 -6.617252356E+01  7.298944242E+01  1.348699152E-06  0.00000E+00  9.000E+00
#rwgt            1           1   3.4186609248835223E-002           1      111567           0
</event>
<event>
      5   9999  3.79277E-02  5.26747E+01 -1.00000E+00  1.37796E-01
      21    -1     0     0   512   501  0.000000000E+00  0.000000000E+00  2.126063600E+02  2.126063600E+02  0.000000000E+00  0.00000E+00  9.000E+00
      21    -1     0     0   501   502  0.000000000E+00  0.000000000E+00 -7.669634234E+02  7.669634234E+02  0.000000000E+00  0.00000E+00  9.000E+00
      25     1     1     2     0     0  9.887706685E+01 -1.724749288E+02  8.479551387E+01  2.496789030E+02  1.250000000E+02  0.00000E+00  9.000E+00
      25     1     1     2     0     0 -1.052481019E+02  1.201869399E+02 -6.456981727E+02  6.768110473E+02  1.250000000E+02  0.00000E+00  9.000E+00
      21     1     1     2   512   502  6.371035087E+00  5.228798886E+01  6.545595433E+00  5.307983315E+01  7.679521279E-07  0.00000E+00  9.000E+00
#rwgt            1           1   4.2212807769157756E-002           1      111729           0
</event>
<event>
      5   9999  3.79277E-02  2.67016E+01 -1.00000E+00  1.56638E-01
       1    -1     0     0   502     0  0.000000000E+00  0.000000000E+00  2.201796257E+03  2.201796257E+03  0.000000000E+00  0.00000E+00  9.000E+00
      21    -1     0     0   501   502  0.000000000E+00  0.000000000E+00 -2.346344528E+01  2.346344528E+01  0.000000000E+00  0.00000E+00  9.000E+00
      25     1     1     2     0     0 -7.631716570E+01  1.540616541E+02  7.783652380E+02  8.068684817E+02  1.250000000E+02  0.00000E+00  9.000E+00
      25     1     1     2     0     0  5.094534822E+01 -1.457403385E+02  1.153304708E+03  1.170287325E+03  1.250000000E+02  0.00000E+00  9.000E+00
       1     1     1     2   501     0  2.537181748E+01 -8.321315595E+00  2.466628653E+02  2.481038946E+02  5.394796609E-06  0.00000E+00  9.000E+00
#rwgt            1           1   8.8951644363452292E-002           1      111848           0
</event>
<event>
      5   9999  3.79277E-02  8.43746E+00 -1.00000E+00  2.04693E-01
      21    -1     0     0   502   501  0.000000000E+00  0.000000000E+00  6.324625371E+01  6.324625371E+01  0.000000000E+00  0.00000E+00  9.000E+00
      21    -1     0     0   511   502  0.000000000E+00  0.000000000E+00 -1.306277740E+03  1.306277740E+03  0.000000000E+00  0.00000E+00  9.000E+00
      25     1     1     2     0     0 -6.520129822E+01  1.940937987E+02 -2.473205737E+02  3.445519963E+02  1.250000000E+02  0.00000E+00  9.000E+00
      25     1     1     2     0     0  5.872529907E+01 -1.886852640E+02 -9.741158281E+02  1.001787121E+03  1.250000000E+02  0.00000E+00  9.000E+00
      21     1     1     2   511   501  6.475999145E+00 -5.408534677E+00 -2.159508455E+01  2.318487630E+01  2.384185791E-07  0.00000E+00  9.000E+00
#rwgt            1           1   2.1209994396963028E-002           1      111950           0
</event>
<event>
      5   9999  3.79277E-02  2.06040E+01 -1.00000E+00  1.65310E-01
      21    -1     0     0   502   512  0.000000000E+00  0.000000000E+00  2.750593721E+02  2.750593721E+02  0.000000000E+00  0.00000E+00  9.000E+00
      21    -1     0     0   501   502  0.000000000E+00  0.000000000E+00 -1.742557493E+02  1.742557493E+02  0.000000000E+00  0.00000E+00  9.000E+00
      25     1     1     2     0     0 -8.453815846E+01 -7.307849519E+01 -7.916089899E+01  1.854147098E+02  1.250000000E+02  0.00000E+00  9.000E+00
      25     1     1     2     0     0  7.543034423E+01  9.156015705E+01  1.582842770E+02  2.339912638E+02  1.250000000E+02  0.00000E+00  9.000E+00
      21     1     1     2   501   512  9.107814226E+00 -1.848166186E+01  2.168024479E+01  2.990914775E+01  3.371747881E-07  0.00000E+00  9.000E+00
#rwgt            1           1   3.5448958719447636E-002           1      112197           0
</event>
<event>
      5   9999  3.79277E-02  1.20438E+02 -1.00000E+00  1.20301E-01
      21    -1     0     0   511   501  0.000000000E+00  0.000000000E+00  2.111666416E+02  2.111666416E+02  0.000000000E+00  0.00000E+00  9.000E+00
      21    -1     0     0   501   502  0.000000000E+00  0.000000000E+00 -3.746847148E+02  3.746847148E+02  0.000000000E+00  0.00000E+00  9.000E+00
      25     1     1     2     0     0 -2.570352018E+01 -1.150997193E+02 -2.138653094E+00  1.718667803E+02  1.250000000E+02  0.00000E+00  9.000E+00
      25     1     1     2     0     0  1.200793272E+02  1.899224047E+02 -1.360876986E+02  2.909199655E+02  1.250000000E+02  0.00000E+00  9.000E+00
      21     1     1     2   511   502 -9.437580705E+01 -7.482268535E+01 -2.529172153E+01  1.230646106E+02  1.581489940E-06  0.00000E+00  9.000E+00
#rwgt            1           1   3.3064134644448774E-002           1      112404           0
</event>
<event>
      5   9999  3.79277E-02  2.66096E+01 -1.00000E+00  1.56748E-01
      21    -1     0     0   502   501  0.000000000E+00  0.000000000E+00  2.479371751E+02  2.479371751E+02  0.000000000E+00  0.00000E+00  9.000E+00
      21    -1     0     0   512   502  0.000000000E+00  0.000000000E+00 -2.519428269E+02  2.519428269E+02  0.000000000E+00  0.00000E+00  9.000E+00
      25     1     1     2     0     0  1.286357512E+02 -8.786805135E+01  4.272230470E+01  2.042502050E+02  1.250000000E+02  0.00000E+00  9.000E+00
      25     1     1     2     0     0 -1.084351285E+02  1.051886605E+02  4.410424707E+01  2.009801383E+02  1.250000000E+02  0.00000E+00  9.000E+00
      21     1     1     2   512   501 -2.020062272E+01 -1.732060915E+01 -9.083220365E+01  9.464965864E+01  1.348699152E-06  0.00000E+00  9.000E+00
#rwgt            1           1   3.5204977562737202E-002           1      112465           0
</event>
<event>
      5   9999  3.79277E-02  1.15956E+02 -1.00000E+00  1.21004E-01
       2    -1     0     0   502     0  0.000000000E+00  0.000000000E+00  4.972477719E+02  4.972477719E+02  0.000000000E+00  0.00000E+00  9.000E+00
      21    -1     0     0   501   502  0.000000000E+00  0.000000000E+00 -6.863027638E+02  6.863027638E+02  0.000000000E+00  0.00000E+00  9.000E+00
      25     1     1     2     0     0 -9.269445207E+01 -1.484323461E+02 -5.656382152E+02  6.051413168E+02  1.250000000E+02  0.00000E+00  9.000E+00
      25     1     1     2     0     0  1.833345108E+02  7.611286361E+01  6.127422046E+01  2.424546163E+02  1.250000000E+02  0.00000E+00  9.000E+00
       2     1     1     2   501     0 -9.064005875E+01  7.231948254E+01  3.153090028E+02  3.359546027E+02  6.607249480E-06  0.00000E+00  9.000E+00
#rwgt            1           1   3.0670095743986311E-002           1      112608           0
</event>
<event>
      5   9999  3.79277E-02  4.16228E+01 -1.00000E+00  1.43777E-01
      21    -1     0     0   511   501  0.000000000E+00  0.000000000E+00  7.892013730E+02  7.892013730E+02  0.000000000E+00  0.00000E+00  9.000E+00
      21    -1     0     0   501   502  0.000000000E+00  0.000000000E+00 -1.371312097E+02  1.371312097E+02  0.000000000E+00  0.00000E+00  9.000E+00
      25     1     1     2     0     0  1.600314603E+02 -5.621061428E+01 -9.370695616E+00  2.109087750E+02  1.250000000E+02  0.00000E+00  9.000E+00
      25     1     1     2     0     0 -1.750240995E+02  1.738173989E+01  4.394908559E+02  4.896047107E+02  1.250000000E+02  0.00000E+00  9.000E+00
      21     1     1     2   511   502  1.499263917E+01  3.882887439E+01  2.219500030E+02  2.258190970E+02  2.697398305E-06  0.00000E+00  9.000E+00
#rwgt            1           1   4.0627918740125030E-002           1      112648           0
</event>
<event>
      5   9999  3.79277E-02  1.76692E+01 -1.00000E+00  1.70935E-01
      21    -1     0     0   502   512  0.000000000E+00  0.000000000E+00  2.173236038E+02  2.173236038E+02  0.000000000E+00  0.00000E+00  9.000E+00
      21    -1     0     0   501   502  0.000000000E+00  0.000000000E+00 -4.087697707E+02  4.087697707E+02  0.000000000E+00  0.00000E+00  9.000E+00
      25     1     1     2     0     0 -2.174044088E+01  6.986801662E+01 -3.651332913E+02  3.928123049E+02  1.250000000E+02  0.00000E+00  9.000E+00
      25     1     1     2     0     0  9.626974090E+00 -5.700469602E+01  1.487177790E+02  2.026923575E+02  1.250000000E+02  0.00000E+00  9.000E+00
      21     1     1     2   501   512  1.211346679E+01 -1.286332060E+01  2.496934542E+01  3.058871206E+01  3.371747881E-07  0.00000E+00  9.000E+00
#rwgt            1           1   4.4734814019982097E-002           1      112741           0
</event>
<event>
      5   9999  3.79277E-02  5.20398E+01 -1.00000E+00  1.38092E-01
      21    -1     0     0   511   501  0.000000000E+00  0.000000000E+00  1.884499132E+02  1.884499132E+02  0.000000000E+00  0.00000E+00  9.000E+00
      21    -1     0     0   501   502  0.000000000E+00  0.000000000E+00 -2.843751177E+02  2.843751177E+02  0.000000000E+00  0.00000E+00  9.000E+00
      25     1     1     2     0     0  2.503669603E+01 -8.573424346E+01 -1.212022190E+00  1.536348452E+02  1.250000000E+02  0.00000E+00  9.000E+00
      25     1     1     2     0     0 -5.808038291E+01  1.259368780E+02 -1.527578177E+02  2.412330388E+02  1.250000000E+02  0.00000E+00  9.000E+00
      21     1     1     2   511   502  3.304368688E+01 -4.020263458E+01  5.804463536E+01  7.795714697E+01  6.743495762E-07  0.00000E+00  9.000E+00
#rwgt            1           1   4.0605420334924168E-002           1      113059           0
</event>
<event>
      5   9999  3.79277E-02  1.96637E+01 -1.00000E+00  1.66979E-01
      21    -1     0     0   502   501  0.000000000E+00  0.000000000E+00  6.878540456E+01  6.878540456E+01  0.000000000E+00  0.00000E+00  9.000E+00
      21    -1     0     0   501   512  0.000000000E+00  0.000000000E+00 -8.204163307E+02  8.204163307E+02  0.000000000E+00  0.00000E+00  9.000E+00
      25     1     1     2     0     0  2.016696568E+01 -8.245855417E+01 -6.102869310E+02  6.287139714E+02  1.250000000E+02  0.00000E+00  9.000E+00
      25     1     1     2     0     0 -1.433156816E+01  6.368065391E+01 -2.589262806E+01  1.433738041E+02  1.250000000E+02  0.00000E+00  9.000E+00
      21     1     1     2   502   512 -5.835397526E+00  1.877790026E+01 -1.154513671E+02  1.171139597E+02  0.000000000E+00  0.00000E+00  9.000E+00
#rwgt            1           1   3.2747308639332028E-002           1      113158           0
</event>
<event>
      5   9999  3.79277E-02  2.69919E+01 -1.00000E+00  1.56297E-01
      21    -1     0     0   511   501  0.000000000E+00  0.000000000E+00  5.737277412E+01  5.737277412E+01  0.000000000E+00  0.00000E+00  9.000E+00
      21    -1     0     0   501   502  0.000000000E+00  0.000000000E+00 -5.735818138E+02  5.735818138E+02  0.000000000E+00  0.00000E+00  9.000E+00
      25     1     1     2     0     0  1.012494909E+02 -1.219045887E+01 -2.176465175E+02  2.709152511E+02  1.250000000E+02  0.00000E+00  9.000E+00
      25     1     1     2     0     0 -1.210797417E+02 -6.121409129E+00 -2.621048559E+02  3.146771853E+02  1.250000000E+02  0.00000E+00  9.000E+00
      21     1     1     2   511   502  1.983025082E+01  1.831186800E+01 -3.645766635E+01  4.536215155E+01  6.743495762E-07  0.00000E+00  9.000E+00
#rwgt            1           1   2.0602481837555947E-002           1      113342           0
</event>
<event>
      5   9999  3.79277E-02  3.31563E+01 -1.00000E+00  1.50082E-01
      21    -1     0     0   502   501  0.000000000E+00  0.000000000E+00  6.264751720E+02  6.264751720E+02  0.000000000E+00  0.00000E+00  9.000E+00
      21    -1     0     0   501   512  0.000000000E+00  0.000000000E+00 -2.362159562E+02  2.362159562E+02  0.000000000E+00  0.00000E+00  9.000E+00
      25     1     1     2     0     0  9.260101461E+01 -3.096137378E+02  1.228973206E+02  3.676470671E+02  1.250000000E+02  0.00000E+00  9.000E+00
      25     1     1     2     0     0 -1.110968353E+02  3.371318297E+02  2.677916107E+02  4.618849685E+02  1.250000000E+02  0.00000E+00  9.000E+00
      21     1     1     2   502   512  1.849582065E+01 -2.751809184E+01 -4.297155038E-01  3.315909251E+01  7.366849870E-07  0.00000E+00  9.000E+00
#rwgt            1           1   3.1029107385471412E-002           1      113548           0
</event>
<event>
      5   9999  3.79277E-02  4.81756E+01 -1.00000E+00  1.40003E-01
      21    -1     0     0   502   511  0.000000000E+00  0.000000000E+00  2.644361686E+02  2.644361686E+02  0.000000000E+00  0.00000E+00  9.000E+00
      21    -1     0     0   501   502  0.000000000E+00  0.000000000E+00 -3.164274240E+02  3.164274240E+02  0.000000000E+00  0.00000E+00  9.000E+00
      25     1     1     2     0     0 -1.885912081E+02 -6.946318420E+00 -1.794952849E+02  2.888917659E+02  1.250000000E+02  0.00000E+00  9.000E+00
      25     1     1     2     0     0  1.643138459E+02  4.855760207E+01  8.780441859E+01  2.295462843E+02  1.250000000E+02  0.00000E+00  9.000E+00
      21     1     1     2   501   511  2.427736216E+01 -4.161128365E+01  3.969961092E+01  6.242554243E+01  6.743495762E-07  0.00000E+00  9.000E+00
#rwgt            1           1   1.7956703004470231E-002           1      113891           0
</event>
<event>
      5   9999  3.79277E-02  2.30499E+02 -1.00000E+00  1.09449E-01
      21    -1     0     0   502   501  0.000000000E+00  0.000000000E+00  2.247511817E+02  2.247511817E+02  0.000000000E+00  0.00000E+00  9.000E+00
      21    -1     0     0   512   502  0.000000000E+00  0.000000000E+00 -6.581653975E+02  6.581653975E+02  0.000000000E+00  0.00000E+00  9.000E+00
      25     1     1     2     0     0 -9.432455966E+01 -3.089364464E+02 -2.084000134E+02  4.042207516E+02  1.250000000E+02  0.00000E+00  9.000E+00
      25     1     1     2     0     0  1.212675409E+02  8.001745059E+01 -9.240530338E+01  2.127729987E+02  1.250000000E+02  0.00000E+00  9.000E+00
      21     1     1     2   512   501 -2.694298125E+01  2.289189958E+02 -1.326088990E+02  2.659228290E+02  5.046370146E-06  0.00000E+00  9.000E+00
#rwgt            1           1   4.4238642637587491E-002           1      113983           0
</event>
<event>
      5   9999  3.79277E-02  1.75226E+01 -1.00000E+00  1.71251E-01
      21    -1     0     0   502   501  0.000000000E+00  0.000000000E+00  2.472606014E+02  2.472606014E+02  0.000000000E+00  0.00000E+00  9.000E+00
      21    -1     0     0   511   502  0.000000000E+00  0.000000000E+00 -3.148470140E+02  3.148470140E+02  0.000000000E+00  0.00000E+00  9.000E+00
      25     1     1     2     0     0 -2.680375090E+00  2.266356435E+02  2.248225171E+01  2.598102211E+02  1.250000000E+02  0.00000E+00  9.000E+00
      25     1     1     2     0     0 -8.465658848E+00 -2.401562606E+02 -8.705447030E+01  2.845174471E+02  1.250000000E+02  0.00000E+00  9.000E+00
      21     1     1     2   511   501  1.114603394E+01  1.352061711E+01 -3.014193991E+00  1.777994727E+01  1.115100797E-07  0.00000E+00  9.000E+00
#rwgt            1           1   6.9053033599521599E-002           1      114037           0
</event>
<event>
      5   9999  3.79277E-02  1.62687E+01 -1.00000E+00  1.74125E-01
      21    -1     0     0   502   501  0.000000000E+00  0.000000000E+00  1.008342211E+03  1.008342211E+03  0.000000000E+00  0.00000E+00  9.000E+00
      21    -1     0     0   501   512  0.000000000E+00  0.000000000E+00 -1.223311633E+02  1.223311633E+02  0.000000000E+00  0.00000E+00  9.000E+00
      25     1     1     2     0     0  7.515904304E+01 -1.025441821E+02  1.888065939E+02  2.596865821E+02  1.250000000E+02  0.00000E+00  9.000E+00
      25     1     1     2     0     0 -9.132682131E+01  1.043537296E+02  7.720966934E+02  7.943479043E+02  1.250000000E+02  0.00000E+00  9.000E+00
      21     1     1     2   502   512  1.616777827E+01 -1.809547478E+00 -7.489223978E+01  7.663888762E+01  1.907348633E-06  0.00000E+00  9.000E+00
#rwgt            1           1   3.6376150885500856E-002           1      114305           0
</event>
<event>
      5   9999  3.79277E-02  6.41704E+01 -1.00000E+00  1.33162E-01
      21    -1     0     0   502   501  0.000000000E+00  0.000000000E+00  1.411765851E+02  1.411765851E+02  0.000000000E+00  0.00000E+00  9.000E+00
       1    -1     0     0   501     0  0.000000000E+00  0.000000000E+00 -8.495940879E+02  8.495940879E+02  0.000000000E+00  0.00000E+00  9.000E+00
      25     1     1     2     0     0 -1.523105862E+02  1.902967096E+01  2.070489383E+01  1.990335039E+02  1.250000000E+02  0.00000E+00  9.000E+00
      25     1     1     2     0     0  1.007211981E+02 -5.719219736E+01 -2.184950450E+02  2.770934713E+02  1.250000000E+02  0.00000E+00  9.000E+00
       1     1     1     2   502     0  5.158938814E+01  3.816252639E+01 -5.106273516E+02  5.146436978E+02  7.629394531E-06  0.00000E+00  9.000E+00
#rwgt            1           1   4.1159720851453738E-002           1      114477           0
</event>
<event>
      5   9999  3.79277E-02  7.83616E+01 -1.00000E+00  1.28786E-01
      21    -1     0     0   502   511  0.000000000E+00  0.000000000E+00  9.001659740E+02  9.001659740E+02  0.000000000E+00  0.00000E+00  9.000E+00
      21    -1     0     0   501   502  0.000000000E+00  0.000000000E+00 -1.385713411E+02  1.385713411E+02  0.000000000E+00  0.00000E+00  9.000E+00
      25     1     1     2     0     0 -1.233932041E+02  7.725951558E+01  7.100618417E+01  2.046015488E+02  1.250000000E+02  0.00000E+00  9.000E+00
      25     1     1     2     0     0  1.213604328E+02 -1.555947149E+02  1.284767863E+02  2.665883616E+02  1.250000000E+02  0.00000E+00  9.000E+00
      21     1     1     2   501   511  2.032771349E+00  7.833519929E+01  5.621116625E+02  5.675474048E+02  7.629394531E-06  0.00000E+00  9.000E+00
#rwgt            1           1   2.9798220069245880E-002           1      114798           0
</event>
<event>
      5   9999  3.79277E-02  1.16956E+01 -1.00000E+00  1.88209E-01
      21    -1     0     0   502   501  0.000000000E+00  0.000000000E+00  8.655724957E+02  8.655724957E+02  0.000000000E+00  0.00000E+00  9.000E+00
      21    -1     0     0   512   502  0.000000000E+00  0.000000000E+00 -6.813071305E+01  6.813071305E+01  0.000000000E+00  0.00000E+00  9.000E+00
      25     1     1     2     0     0 -1.933553373E+02  2.662052889E+01  5.207297559E+02  5.699819451E+02  1.250000000E+02  0.00000E+00  9.000E+00
      25     1     1     2     0     0  1.851638587E+02 -1.827266920E+01  2.661106355E+02  3.479359357E+02  1.250000000E+02  0.00000E+00  9.000E+00
      21     1     1     2   512   501  8.191478658E+00 -8.347859685E+00  1.060139122E+01  1.578532799E+01  3.371747881E-07  0.00000E+00  9.000E+00
#rwgt            1           1   3.9470190501550373E-002           1      114846           0
</event>
<event>
      5   9999  3.79277E-02  1.22077E+02 -1.00000E+00  1.20053E-01
      21    -1     0     0   502   501  0.000000000E+00  0.000000000E+00  2.584010285E+02  2.584010285E+02  0.000000000E+00  0.00000E+00  9.000E+00
      21    -1     0     0   501   511  0.000000000E+00  0.000000000E+00 -7.601423204E+02  7.601423204E+02  0.000000000E+00  0.00000E+00  9.000E+00
      25     1     1     2     0     0 -1.825905111E+02  3.631480512E+02 -2.669479860E+02  5.020976290E+02  1.250000000E+02  0.00000E+00  9.000E+00
      25     1     1     2     0     0  1.754319836E+02 -2.412811667E+02 -1.094134105E+02  3.414517194E+02  1.250000000E+02  0.00000E+00  9.000E+00
      21     1     1     2   502   511  7.158527477E+00 -1.218668845E+02 -1.253798955E+02  1.749940006E+02  1.907348633E-06  0.00000E+00  9.000E+00
#rwgt            1           1   3.6390552685280048E-002           1      115394           0
</event>
<event>
      5   9999  3.79277E-02  1.51420E+01 -1.00000E+00  1.76999E-01
      21    -1     0     0   502   512  0.000000000E+00  0.000000000E+00  2.240043403E+03  2.240043403E+03  0.000000000E+00  0.00000E+00  9.000E+00
      21    -1     0     0   501   502  0.000000000E+00  0.000000000E+00 -5.151001313E+01  5.151001313E+01  0.000000000E+00  0.00000E+00  9.000E+00
      25     1     1     2     0     0  1.613857765E+02  1.657803836E+02  4.715278985E+02  5.399000496E+02  1.250000000E+02  0.00000E+00  9.000E+00
      25     1     1     2     0     0 -1.723638021E+02 -1.762092822E+02  1.090912631E+03  1.125377430E+03  1.250000000E+02  0.00000E+00  9.000E+00
      21     1     1     2   501   512  1.097802551E+01  1.042889855E+01  6.260928603E+02  6.262759365E+02  7.629394531E-06  0.00000E+00  9.000E+00
#rwgt            1           1   4.4663541159491990E-002           1      115496           0
</event>
<event>
      5   9999  3.79277E-02  1.80768E+02 -1.00000E+00  1.13270E-01
      21    -1     0     0   511   501  0.000000000E+00  0.000000000E+00  2.287464339E+02  2.287464339E+02  0.000000000E+00  0.00000E+00  9.000E+00
      21    -1     0     0   501   502  0.000000000E+00  0.000000000E+00 -6.533239946E+02  6.533239946E+02  0.000000000E+00  0.00000E+00  9.000E+00
      25     1     1     2     0     0 -3.697949999E+01  2.766712269E+01 -4.572077770E+02  4.762319860E+02  1.250000000E+02  0.00000E+00  9.000E+00
      25     1     1     2     0     0  7.760557799E+01  1.484766872E+02 -3.670976894E+01  2.122276125E+02  1.250000000E+02  0.00000E+00  9.000E+00
      21     1     1     2   511   502 -4.062607801E+01 -1.761438098E+02  6.933998526E+01  1.936108301E+02  9.536743164E-07  0.00000E+00  9.000E+00
#rwgt            1           1   4.5131969494136691E-002           1      115825           0
</event>
<event>
      5   9999  3.79277E-02  1.48482E+01 -1.00000E+00  1.77801E-01
      21    -1     0     0   502   501  0.000000000E+00  0.000000000E+00  3.631304395E+02  3.631304395E+02  0.000000000E+00  0.00000E+00  9.000E+00
      21    -1     0     0   501   512  0.000000000E+00  0.000000000E+00 -3.146206695E+02  3.146206695E+02  0.000000000E+00  0.00000E+00  9.000E+00
      25     1     1     2     0     0 -1.317540085E+02  1.196473133E+02  1.550396347E+02  2.670896604E+02  1.250000000E+02  0.00000E+00  9.000E+00
      25     1     1     2     0     0  1.200965636E+02 -1.104509593E+02  8.218460491E+01  2.213637465E+02  1.250000000E+02  0.00000E+00  9.000E+00
      21     1     1     2   502   512  1.165744492E+01 -9.196353993E+00 -1.887144697E+02  1.892977021E+02  2.697398305E-06  0.00000E+00  9.000E+00
#rwgt            1           1   4.6191188179200232E-002           1      115905           0
</event>
<event>
      5   9999  3.79277E-02  6.01043E+01 -1.00000E+00  1.34663E-01
       2    -1     0     0   502     0  0.000000000E+00  0.000000000E+00  8.466421684E+02  8.466421684E+02  0.000000000E+00  0.00000E+00  9.000E+00
      21    -1     0     0   501   502  0.000000000E+00  0.000000000E+00 -1.772168873E+02  1.772168873E+02  0.000000000E+00  0.00000E+00  9.000E+00
      25     1     1     2     0     0 -1.470135796E+02  1.118706998E+02 -3.475341376E+01  2.257450904E+02  1.250000000E+02  0.00000E+00  9.000E+00
      25     1     1     2     0     0  9.043950795E+01 -9.157521938E+01  1.318896334E+02  2.226773468E+02  1.250000000E+02  0.00000E+00  9.000E+00
       2     1     1     2   501     0  5.657407167E+01 -2.029548038E+01  5.722890614E+02  5.754366185E+02  7.629394531E-06  0.00000E+00  9.000E+00
#rwgt            1           1   3.2506787966709548E-002           1      116062           0
</event>
<event>
      5   9999  3.79277E-02  1.70928E+01 -1.00000E+00  1.72202E-01
      21    -1     0     0   502   501  0.000000000E+00  0.000000000E+00  2.305783423E+02  2.305783423E+02  0.000000000E+00  0.00000E+00  9.000E+00
      21    -1     0     0   501   511  0.000000000E+00  0.000000000E+00 -1.837611646E+02  1.837611646E+02  0.000000000E+00  0.00000E+00  9.000E+00
      25     1     1     2     0     0  1.320073593E+02 -6.419924607E+01  7.167595030E+00  1.929348608E+02  1.250000000E+02  0.00000E+00  9.000E+00
      25     1     1     2     0     0 -1.221432441E+02  7.815853244E+01  5.418278256E+01  1.989685960E+02  1.250000000E+02  0.00000E+00  9.000E+00
      21     1     1     2   502   511 -9.864115193E+00 -1.395928637E+01 -1.453319986E+01  2.243605007E+01  4.460403188E-07  0.00000E+00  9.000E+00
#rwgt            1           1   4.1738165472532847E-002           1      116139           0
</event>
<event>
      5   9999  3.79277E-02  1.19347E+02 -1.00000E+00  1.20469E-01
      21    -1     0     0   502   501  0.000000000E+00  0.000000000E+00  3.394258097E+02  3.394258097E+02  0.000000000E+00  0.00000E+00  9.000E+00
      21    -1     0     0   512   502  0.000000000E+00  0.000000000E+00 -3.528749078E+02  3.528749078E+02  0.000000000E+00  0.00000E+00  9.000E+00
      25     1     1     2     0     0 -2.323547866E+01  8.189817770E+01  2.284114182E+02  2.739415538E+02  1.250000000E+02  0.00000E+00  9.000E+00
      25     1     1     2     0     0  1.347181068E+02 -1.245040309E+02 -1.544337508E+02  2.704163556E+02  1.250000000E+02  0.00000E+00  9.000E+00
      21     1     1     2   512   501 -1.114826281E+02  4.260585318E+01 -8.742676548E+01  1.479428080E+02  9.536743164E-07  0.00000E+00  9.000E+00
#rwgt            2          11   2.3642097199228877E-003           1      116303           0
</event>
<event>
      5   9999  3.79277E-02  9.93163E+01 -1.00000E+00  1.23962E-01
      21    -1     0     0   511   501  0.000000000E+00  0.000000000E+00  3.952806048E+02  3.952806048E+02  0.000000000E+00  0.00000E+00  9.000E+00
      21    -1     0     0   501   502  0.000000000E+00  0.000000000E+00 -1.095947755E+03  1.095947755E+03  0.000000000E+00  0.00000E+00  9.000E+00
      25     1     1     2     0     0  1.712376954E+02 -1.674755969E+00 -9.911003862E+02  1.013523620E+03  1.250000000E+02  0.00000E+00  9.000E+00
      25     1     1     2     0     0 -2.318652508E+02  8.033881453E+01  2.445538000E+02  3.683033814E+02  1.250000000E+02  0.00000E+00  9.000E+00
      21     1     1     2   511   502  6.062755540E+01 -7.866405856E+01  4.587943589E+01  1.094013584E+02  1.348699152E-06  0.00000E+00  9.000E+00
#rwgt            1           1   2.7049082506112286E-002           1      116398           0
</event>
<event>
      5   9999  3.79277E-02  3.88185E+00 -1.00000E+00  2.66577E-01
      21    -1     0     0   502   501  0.000000000E+00  0.000000000E+00  1.227237390E+02  1.227237390E+02  0.000000000E+00  0.00000E+00  9.000E+00
      21    -1     0     0   501   512  0.000000000E+00  0.000000000E+00 -6.358096714E+02  6.358096714E+02  0.000000000E+00  0.00000E+00  9.000E+00
      25     1     1     2     0     0 -4.130330057E+01  2.590191480E+01 -5.675637314E+02  5.832070482E+02  1.250000000E+02  0.00000E+00  9.000E+00
      25     1     1     2     0     0  4.122653591E+01 -2.978301043E+01  7.503337754E+01  1.544074568E+02  1.250000000E+02  0.00000E+00  9.000E+00
      21     1     1     2   502   512  7.676466265E-02  3.881095625E+00 -2.055557847E+01  2.091890538E+01  2.384185791E-07  0.00000E+00  9.000E+00
#rwgt            1           1   4.2288852519198006E-002           1      116676           0
</event>
<event>
      5   9999  3.79277E-02  2.43773E+01 -1.00000E+00  1.59576E-01
      21    -1     0     0   502   511  0.000000000E+00  0.000000000E+00  8.744896616E+02  8.744896616E+02  0.000000000E+00  0.00000E+00  9.000E+00
      21    -1     0     0   501   502  0.000000000E+00  0.000000000E+00 -1.325261213E+02  1.325261213E+02  0.000000000E+00  0.00000E+00  9.000E+00
      25     1     1     2     0     0 -2.025664516E+02  1.190723998E+02  1.013893694E+02  2.848090728E+02  1.250000000E+02  0.00000E+00  9.000E+00
      25     1     1     2     0     0  1.782156611E+02 -1.202089945E+02  3.431123855E+02  4.237477237E+02  1.250000000E+02  0.00000E+00  9.000E+00
      21     1     1     2   501   511  2.435079053E+01  1.136594668E+00  2.974617854E+02  2.984589865E+02  5.394796609E-06  0.00000E+00  9.000E+00
#rwgt            1           1   4.8377532090256824E-002           1      117210           0
</event>
<event>
      5   9999  3.79277E-02  6.46358E+01 -1.00000E+00  1.32999E-01
      21    -1     0     0   512   501  0.000000000E+00  0.000000000E+00  1.616662221E+02  1.616662221E+02  0.000000000E+00  0.00000E+00  9.000E+00
      21    -1     0     0   501   502  0.000000000E+00  0.000000000E+00 -3.538162239E+02  3.538162239E+02  0.000000000E+00  0.00000E+00  9.000E+00
      25     1     1     2     0     0 -1.306468041E+02  7.049357888E+00 -9.231853842E+01  2.031403294E+02  1.250000000E+02  0.00000E+00  9.000E+00
      25     1     1     2     0     0  1.478231745E+02  5.526246775E+01 -1.313998473E+02  2.404091328E+02  1.250000000E+02  0.00000E+00  9.000E+00
      21     1     1     2   512   502 -1.717637035E+01 -6.231182564E+01  3.156838387E+01  7.193298391E+01  5.840038640E-07  0.00000E+00  9.000E+00
#rwgt            1           1   4.2670394510176415E-002           1      117433           0
</event>
<event>
      5   9999  3.79277E-02  1.51473E+02 -1.00000E+00  1.16226E-01
      21    -1     0     0   502   501  0.000000000E+00  0.000000000E+00  1.570220295E+02  1.570220295E+02  0.000000000E+00  0.00000E+00  9.000E+00
       2    -1     0     0   501     0  0.000000000E+00  0.000000000E+00 -9.086183250E+02  9.086183250E+02  0.000000000E+00  0.00000E+00  9.000E+00
      25     1     1     2     0     0 -3.441332385E+01 -8.321099875E+01 -4.347560319E+01  1.600733433E+02  1.250000000E+02  0.00000E+00  9.000E+00
      25     1     1     2     0     0  1.663219950E+02  1.576710580E+02 -1.011207455E+02  2.799528062E+02  1.250000000E+02  0.00000E+00  9.000E+00
       2     1     1     2   502     0 -1.319086711E+02 -7.446005926E+01 -6.069999469E+02  6.256142050E+02  7.629394531E-06  0.00000E+00  9.000E+00
#rwgt            1           1   4.2150409633154425E-002           1      117532           0
</event>
<event>
      5   9999  3.79277E-02  2.18761E+01 -1.00000E+00  1.63219E-01
      21    -1     0     0   502   511  0.000000000E+00  0.000000000E+00  1.759209242E+03  1.759209242E+03  0.000000000E+00  0.00000E+00  9.000E+00
      21    -1     0     0   501   502  0.000000000E+00  0.000000000E+00 -2.889714343E+01  2.889714343E+01  0.000000000E+00  0.00000E+00  9.000E+00
      25     1     1     2     0     0 -2.200350201E+01  1.166219395E+02  3.187336329E+02  3.623547427E+02  1.250000000E+02  0.00000E+00  9.000E+00
      25     1     1     2     0     0  3.663751662E+01 -1.003612227E+02  9.865264508E+02  1.000137051E+03  1.250000000E+02  0.00000E+00  9.000E+00
      21     1     1     2   501   511 -1.463401461E+01 -1.626071675E+01  4.250520149E+02  4.256145917E+02  7.629394531E-06  0.00000E+00  9.000E+00
#rwgt            1           1   5.9209729414334500E-002           1      117589           0
</event>
<event>
      5   9999  3.79277E-02  2.87277E+02 -1.00000E+00  1.06207E-01
      21    -1     0     0   512   501  0.000000000E+00  0.000000000E+00  4.187288115E+02  4.187288115E+02  0.000000000E+00  0.00000E+00  9.000E+00
      21    -1     0     0   501   502  0.000000000E+00  0.000000000E+00 -7.329063239E+02  7.329063239E+02  0.000000000E+00  0.00000E+00  9.000E+00
      25     1     1     2     0     0 -9.189704484E+01  2.099152566E+02 -4.625994186E+02  5.311616552E+02  1.250000000E+02  0.00000E+00  9.000E+00
      25     1     1     2     0     0 -1.051394099E+02 -8.584427926E-01 -1.387205605E+02  2.142975183E+02  1.250000000E+02  0.00000E+00  9.000E+00
      21     1     1     2   512   502  1.970364547E+02 -2.090568138E+02  2.871424667E+02  4.061759620E+02  3.814697266E-06  0.00000E+00  9.000E+00
#rwgt            1           1   3.8060166398648190E-002           1      117736           0
</event>
<event>
      5   9999  3.79277E-02  2.63672E+01 -1.00000E+00  1.57038E-01
      21    -1     0     0   502   501  0.000000000E+00  0.000000000E+00  7.822331267E+02  7.822331267E+02  0.000000000E+00  0.00000E+00  9.000E+00
      21    -1     0     0   511   502  0.000000000E+00  0.000000000E+00 -2.320594288E+02  2.320594288E+02  0.000000000E+00  0.00000E+00  9.000E+00
      25     1     1     2     0     0 -1.920524701E+02 -9.105402812E+01  2.936570959E+02  3.834507495E+02  1.250000000E+02  0.00000E+00  9.000E+00
      25     1     1     2     0     0  1.733476781E+02  7.247017614E+01  4.138152876E+02  4.713485294E+02  1.250000000E+02  0.00000E+00  9.000E+00
      21     1     1     2   511   501  1.870479197E+01  1.858385198E+01 -1.572986856E+02  1.594932766E+02  2.697398305E-06  0.00000E+00  9.000E+00
#rwgt            1           1   3.1860098964497763E-002           1      118008           0
</event>
<event>
      5   9999  3.79277E-02  3.13450E+01 -1.00000E+00  1.51729E-01
      21    -1     0     0   502   501  0.000000000E+00  0.000000000E+00  4.407425242E+01  4.407425242E+01  0.000000000E+00  0.00000E+00  9.000E+00
      21    -1     0     0   512   502  0.000000000E+00  0.000000000E+00 -1.144221515E+03  1.144221515E+03  0.000000000E+00  0.00000E+00  9.000E+00
      25     1     1     2     0     0  3.535884044E+01  1.024299825E+02 -7.007451033E+02  7.200075337E+02  1.250000000E+02  0.00000E+00  9.000E+00
      25     1     1     2     0     0 -6.641807534E+01 -9.820740979E+01 -1.896984903E+02  2.562548991E+02  1.250000000E+02  0.00000E+00  9.000E+00
      21     1     1     2   512   501  3.105923490E+01 -4.222572693E+00 -2.097036692E+02  2.120333348E+02  0.000000000E+00  0.00000E+00  9.000E+00
#rwgt            1           1   3.9156836289857520E-002           1      118189           0
</event>
<event>
      5   9999  3.79277E-02  9.79878E+01 -1.00000E+00  1.24226E-01
      21    -1     0     0   502   501  0.000000000E+00  0.000000000E+00  4.148608111E+02  4.148608111E+02  0.000000000E+00  0.00000E+00  9.000E+00
      21    -1     0     0   511   502  0.000000000E+00  0.000000000E+00 -7.137019648E+02  7.137019648E+02  0.000000000E+00  0.00000E+00  9.000E+00
      25     1     1     2     0     0 -8.180706574E+00  1.524103779E+02  2.007074786E+02  2.814326548E+02  1.250000000E+02  0.00000E+00  9.000E+00
      25     1     1     2     0     0  9.399825145E+01 -1.051139798E+02  1.176831864E+02  2.221687476E+02  1.250000000E+02  0.00000E+00  9.000E+00
      21     1     1     2   511   501 -8.581754488E+01 -4.729639806E+01 -6.172318187E+02  6.249613735E+02  7.629394531E-06  0.00000E+00  9.000E+00
#rwgt            1           1   2.7176211742184524E-002           1      118292           0
</event>
<event>
      5   9999  3.79277E-02  3.22953E+01 -1.00000E+00  1.50849E-01
      21    -1     0     0   502   501  0.000000000E+00  0.000000000E+00  6.744077115E+02  6.744077115E+02  0.000000000E+00  0.00000E+00  9.000E+00
      21    -1     0     0   501   512  0.000000000E+00  0.000000000E+00 -6.957933664E+01  6.957933664E+01  0.000000000E+00  0.00000E+00  9.000E+00
      25     1     1     2     0     0  4.258248609E+01 -1.159530476E+02  1.052034809E+02  2.048197983E+02  1.250000000E+02  0.00000E+00  9.000E+00
      25     1     1     2     0     0 -1.497149595E+01  9.920143388E+01  4.648607101E+02  4.917169409E+02  1.250000000E+02  0.00000E+00  9.000E+00
      21     1     1     2   502   512 -2.761099014E+01  1.675161374E+01  3.476418392E+01  4.745030899E+01  9.536743164E-07  0.00000E+00  9.000E+00
#rwgt            1           1   4.0415270019391200E-002           1      118356           0
</event>
<event>
      5   9999  3.79277E-02  1.79817E+01 -1.00000E+00  1.70273E-01
      21    -1     0     0   511   501  0.000000000E+00  0.000000000E+00  1.255678854E+03  1.255678854E+03  0.000000000E+00  0.00000E+00  9.000E+00
      21    -1     0     0   501   502  0.000000000E+00  0.000000000E+00 -4.555604534E+01  4.555604534E+01  0.000000000E+00  0.00000E+00  9.000E+00
      25     1     1     2     0     0  1.742508686E+01 -4.352879251E+01  1.079755922E+03  1.087978051E+03  1.250000000E+02  0.00000E+00  9.000E+00
      25     1     1     2     0     0 -1.428888641E+00  5.174231313E+01  7.424869683E+01  1.543281493E+02  1.250000000E+02  0.00000E+00  9.000E+00
      21     1     1     2   511   502 -1.599619821E+01 -8.213520621E+00  5.611818945E+01  5.892869814E+01  1.168007728E-06  0.00000E+00  9.000E+00
#rwgt            1           1   4.6049854730843380E-002           1      118546           0
</event>
<event>
      5   9999  3.79277E-02  3.12819E+01 -1.00000E+00  1.51788E-01
      21    -1     0     0   512   501  0.000000000E+00  0.000000000E+00  7.190534398E+02  7.190534398E+02  0.000000000E+00  0.00000E+00  9.000E+00
      21    -1     0     0   501   502  0.000000000E+00  0.000000000E+00 -9.128085765E+01  9.128085765E+01  0.000000000E+00  0.00000E+00  9.000E+00
      25     1     1     2     0     0  1.116237737E+01  1.546773185E+02  2.489409470E+02  3.188201164E+02  1.250000000E+02  0.00000E+00  9.000E+00
      25     1     1     2     0     0 -3.107406045E+01 -1.305508798E+02  9.608463512E+01  2.070419923E+02  1.250000000E+02  0.00000E+00  9.000E+00
      21     1     1     2   512   502  1.991168307E+01 -2.412643869E+01  2.827470000E+02  2.844721887E+02  5.394796609E-06  0.00000E+00  9.000E+00
#rwgt            1           1   4.2466314331854160E-002           1      118776           0
</event>
<event>
      5   9999  3.79277E-02  5.21369E+01 -1.00000E+00  1.38046E-01
      21    -1     0     0   502   501  0.000000000E+00  0.000000000E+00  6.850668769E+02  6.850668769E+02  0.000000000E+00  0.00000E+00  9.000E+00
      21    -1     0     0   511   502  0.000000000E+00  0.000000000E+00 -2.325956211E+02  2.325956211E+02  0.000000000E+00  0.00000E+00  9.000E+00
      25     1     1     2     0     0 -6.288034872E+01  4.061836476E+01  1.574191648E+02  2.144984458E+02  1.250000000E+02  0.00000E+00  9.000E+00
      25     1     1     2     0     0  7.213337021E+01  1.069082274E+01  4.850316585E+02  5.061602775E+02  1.250000000E+02  0.00000E+00  9.000E+00
      21     1     1     2   511   501 -9.253021497E+00 -5.130918749E+01 -1.899795675E+02  1.970037746E+02  2.697398305E-06  0.00000E+00  9.000E+00
#rwgt            1           1   3.8698826477874211E-002           1      119043           0
</event>
<event>
      5   9999  3.79277E-02  5.48861E+01 -1.00000E+00  1.36804E-01
      21    -1     0     0   512   501  0.000000000E+00  0.000000000E+00  4.398237038E+01  4.398237038E+01  0.000000000E+00  0.00000E+00  9.000E+00
      21    -1     0     0   501   502  0.000000000E+00  0.000000000E+00 -1.613672685E+03  1.613672685E+03  0.000000000E+00  0.00000E+00  9.000E+00
      25     1     1     2     0     0 -3.056811235E+01  2.781960311E+01 -9.338128071E+01  1.614106669E+02  1.250000000E+02  0.00000E+00  9.000E+00
      25     1     1     2     0     0  7.056839225E+01 -6.540235360E+01 -1.340721610E+03  1.349969186E+03  1.250000000E+02  0.00000E+00  9.000E+00
      21     1     1     2   512   502 -4.000027990E+01  3.758275048E+01 -1.355874238E+02  1.462752031E+02  1.907348633E-06  0.00000E+00  9.000E+00
#rwgt            2          11   3.5694835737424178E-003           1      119153           0
</event>
<event>
      5   9999  3.79277E-02  8.37144E+01 -1.00000E+00  1.27403E-01
      21    -1     0     0   502   501  0.000000000E+00  0.000000000E+00  1.291794256E+02  1.291794256E+02  0.000000000E+00  0.00000E+00  9.000E+00
       2    -1     0     0   501     0  0.000000000E+00  0.000000000E+00 -1.148172552E+03  1.148172552E+03  0.000000000E+00  0.00000E+00  9.000E+00
      25     1     1     2     0     0 -2.264936650E+01  1.864294114E+02 -1.602598518E+02  2.767257475E+02  1.250000000E+02  0.00000E+00  9.000E+00
      25     1     1     2     0     0  1.031099972E+02 -2.095420826E+02 -1.883191661E+02  3.250056372E+02  1.250000000E+02  0.00000E+00  9.000E+00
       2     1     1     2   502     0 -8.046063065E+01  2.311267120E+01 -6.704141081E+02  6.756205925E+02  0.000000000E+00  0.00000E+00  9.000E+00
#rwgt            2          13   4.2334934312477106E-004           1      119188           0
</event>
<event>
      5   9999  3.79277E-02  2.02644E+01 -1.00000E+00  1.65900E-01
      21    -1     0     0   502   501  0.000000000E+00  0.000000000E+00  1.104990631E+02  1.104990631E+02  0.000000000E+00  0.00000E+00  9.000E+00
      21    -1     0     0   501   511  0.000000000E+00  0.000000000E+00 -5.724779627E+02  5.724779627E+02  0.000000000E+00  0.00000E+00  9.000E+00
      25     1     1     2     0     0 -1.999370802E+02  7.191014418E+01 -1.829649779E+02  3.069968860E+02  1.250000000E+02  0.00000E+00  9.000E+00
      25     1     1     2     0     0  1.814919686E+02 -6.351822133E+01 -2.396671190E+02  3.317216107E+02  1.250000000E+02  0.00000E+00  9.000E+00
      21     1     1     2   502   511  1.844511165E+01 -8.391922850E+00 -3.934680267E+01  4.425852905E+01  6.743495762E-07  0.00000E+00  9.000E+00
#rwgt            1           1   3.5148703189937042E-002           1      119207           0
</event>
<event>
      5   9999  3.79277E-02  2.54075E+01 -1.00000E+00  1.58227E-01
      21    -1     0     0   502   512  0.000000000E+00  0.000000000E+00  1.551849487E+02  1.551849487E+02  0.000000000E+00  0.00000E+00  9.000E+00
      21    -1     0     0   501   502  0.000000000E+00  0.000000000E+00 -1.178815280E+03  1.178815280E+03  0.000000000E+00  0.00000E+00  9.000E+00
      25     1     1     2     0     0 -1.074995634E+02  9.139182226E+01 -8.535161245E+02  8.740843186E+02  1.250000000E+02  0.00000E+00  9.000E+00
      25     1     1     2     0     0  8.237955065E+01 -9.520337216E+01 -2.885818083E+02  3.387543838E+02  1.250000000E+02  0.00000E+00  9.000E+00
      21     1     1     2   501   512  2.512001270E+01  3.811549901E+00  1.184676013E+02  1.211615265E+02  2.697398305E-06  0.00000E+00  9.000E+00
#rwgt            1           1   4.5357863325254322E-002           1      119485           0
</event>
<event>
      5   9999  3.79277E-02  5.16577E+01 -1.00000E+00  1.38272E-01
      21    -1     0     0   502   501  0.000000000E+00  0.000000000E+00  6.291270977E+02  6.291270977E+02  0.000000000E+00  0.00000E+00  9.000E+00
      21    -1     0     0   511   502  0.000000000E+00  0.000000000E+00 -2.363809041E+02  2.363809041E+02  0.000000000E+00  0.00000E+00  9.000E+00
      25     1     1     2     0     0  2.335183281E+02 -7.601210918E+01  4.046539867E+02  4.895697083E+02  1.250000000E+02  0.00000E+00  9.000E+00
      25     1     1     2     0     0 -2.850008827E+02  8.026200860E+01  5.463846896E+00  3.214379362E+02  1.250000000E+02  0.00000E+00  9.000E+00
      21     1     1     2   511   501  5.148255464E+01 -4.249899419E+00 -1.737164002E+01  5.450035737E+01  3.371747881E-07  0.00000E+00  9.000E+00
#rwgt            1           1   2.8958941132618675E-002           1      119671           0
</event>
<event>
      5   9999  3.79277E-02  1.84314E+02 -1.00000E+00  1.12955E-01
       1    -1     0     0   502     0  0.000000000E+00  0.000000000E+00  1.886518747E+03  1.886518747E+03  0.000000000E+00  0.00000E+00  9.000E+00
      21    -1     0     0   501   502  0.000000000E+00  0.000000000E+00 -1.677740973E+02  1.677740973E+02  0.000000000E+00  0.00000E+00  9.000E+00
      25     1     1     2     0     0  4.159587248E+01  6.959949980E+00  3.924394445E+01  1.376362768E+02  1.250000000E+02  0.00000E+00  9.000E+00
      25     1     1     2     0     0 -1.635743923E+02  1.312175346E+02  1.781441190E+01  2.447794446E+02  1.250000000E+02  0.00000E+00  9.000E+00
       1     1     1     2   501     0  1.219785198E+02 -1.381774846E+02  1.661686294E+03  1.671877123E+03  2.157918644E-05  0.00000E+00  9.000E+00
#rwgt            2          17   5.2966562975607923E-004           1      119899           0
</event>
<event>
      5   9999 -3.79277E-02  6.29993E+01 -1.00000E+00  1.33581E-01
      21    -1     0     0   502   511  0.000000000E+00  0.000000000E+00  6.048959640E+02  6.048959640E+02  0.000000000E+00  0.00000E+00  9.000E+00
      21    -1     0     0   501   502  0.000000000E+00  0.000000000E+00 -1.162551728E+02  1.162551728E+02  0.000000000E+00  0.00000E+00  9.000E+00
      25     1     1     2     0     0  1.253026186E+02  8.652582957E+01  9.993132729E+01  2.209043585E+02  1.250000000E+02  0.00000E+00  9.000E+00
      25     1     1     2     0     0 -6.413084833E+01 -1.015898672E+02  9.072690292E+01  1.956773818E+02  1.250000000E+02  0.00000E+00  9.000E+00
      21     1     1     2   501   511 -6.117177029E+01  1.506403767E+01  2.979825609E+02  3.045693966E+02  5.394796609E-06  0.00000E+00  9.000E+00
#rwgt            1           1 -0.15990616441656072                1      119948           0
</event>
<event>
      5   9999 -3.79277E-02  6.97092E+01 -1.00000E+00  1.31312E-01
      21    -1     0     0   512   501  0.000000000E+00  0.000000000E+00  1.986230559E+02  1.986230559E+02  0.000000000E+00  0.00000E+00  9.000E+00
      21    -1     0     0   501   502  0.000000000E+00  0.000000000E+00 -4.365765310E+02  4.365765310E+02  0.000000000E+00  0.00000E+00  9.000E+00
      25     1     1     2     0     0 -1.444668272E+02  1.603961084E+02 -1.773902279E+02  3.060880081E+02  1.250000000E+02  0.00000E+00  9.000E+00
      25     1     1     2     0     0  8.632212856E+01 -1.988482107E+02 -6.716293897E+01  2.590906813E+02  1.250000000E+02  0.00000E+00  9.000E+00
      21     1     1     2   512   502  5.814469864E+01  3.845210224E+01  6.599691810E+00  7.002089744E+01  1.450243599E-06  0.00000E+00  9.000E+00
#rwgt            1           1  -2.7164586674028785E-002           1      120195           0
</event>
<event>
      5   9999  3.79277E-02  7.69984E+01 -1.00000E+00  1.29159E-01
      21    -1     0     0   502   501  0.000000000E+00  0.000000000E+00  9.292358317E+02  9.292358317E+02  0.000000000E+00  0.00000E+00  9.000E+00
      21    -1     0     0   501   511  0.000000000E+00  0.000000000E+00 -1.916194605E+02  1.916194605E+02  0.000000000E+00  0.00000E+00  9.000E+00
      25     1     1     2     0     0 -1.555334517E+01 -8.491481666E+01  1.188596924E+02  1.928861299E+02  1.250000000E+02  0.00000E+00  9.000E+00
      25     1     1     2     0     0  8.762013387E+01  1.120281044E+02  7.512402935E+02  7.747351565E+02  1.250000000E+02  0.00000E+00  9.000E+00
      21     1     1     2   502   511 -7.206678870E+01 -2.711328776E+01 -1.324836147E+02  1.532340059E+02  3.303624740E-06  0.00000E+00  9.000E+00
#rwgt            1           1   4.2673734689321681E-002           1      120255           0
</event>
<event>
      5   9999  3.79277E-02  1.81555E+01 -1.00000E+00  1.69913E-01
      21    -1     0     0   502   501  0.000000000E+00  0.000000000E+00  6.188714549E+01  6.188714549E+01  0.000000000E+00  0.00000E+00  9.000E+00
      21    -1     0     0   512   502  0.000000000E+00  0.000000000E+00 -7.452046942E+02  7.452046942E+02  0.000000000E+00  0.00000E+00  9.000E+00
      25     1     1     2     0     0 -1.330138473E+02 -2.709782951E+01 -1.669491178E+02  2.488453011E+02  1.250000000E+02  0.00000E+00  9.000E+00
      25     1     1     2     0     0  1.447116135E+02  1.321313428E+01 -4.434799268E+02  4.831309175E+02  1.250000000E+02  0.00000E+00  9.000E+00
      21     1     1     2   512   501 -1.169776618E+01  1.388469523E+01 -7.288850418E+01  7.511562112E+01  9.536743164E-07  0.00000E+00  9.000E+00
#rwgt            1           1   3.0461247346381160E-002           1      120319           0
</event>
<event>
      5   9999  3.79277E-02  4.69931E+01 -1.00000E+00  1.40630E-01
      21    -1     0     0   502   511  0.000000000E+00  0.000000000E+00  1.096759297E+03  1.096759297E+03  0.000000000E+00  0.00000E+00  9.000E+00
      21    -1     0     0   501   502  0.000000000E+00  0.000000000E+00 -1.925010229E+02  1.925010229E+02  0.000000000E+00  0.00000E+00  9.000E+00
      25     1     1     2     0     0  3.672350102E+01  1.116325743E+02 -1.324295928E+02  2.167326561E+02  1.250000000E+02  0.00000E+00  9.000E+00
      25     1     1     2     0     0 -7.409088176E+00 -7.490360207E+01  2.926608355E+02  3.270180558E+02  1.250000000E+02  0.00000E+00  9.000E+00
      21     1     1     2   501   511 -2.931441284E+01 -3.672897219E+01  7.440270310E+02  7.455096076E+02  1.078959322E-05  0.00000E+00  9.000E+00
#rwgt            1           1   3.2299141929431924E-002           1      120536           0
</event>
<event>
      5   9999  3.79277E-02  7.31883E+01 -1.00000E+00  1.30248E-01
      21    -1     0     0   502   512  0.000000000E+00  0.000000000E+00  3.538570668E+02  3.538570668E+02  0.000000000E+00  0.00000E+00  9.000E+00
      21    -1     0     0   501   502  0.000000000E+00  0.000000000E+00 -1.920373122E+02  1.920373122E+02  0.000000000E+00  0.00000E+00  9.000E+00
      25     1     1     2     0     0  7.957515701E+01 -1.215160867E+02  4.817495086E+00  1.916939571E+02  1.250000000E+02  0.00000E+00  9.000E+00
      25     1     1     2     0     0 -7.740241706E+01  1.946721075E+02  1.277940048E+02  2.753991127E+02  1.250000000E+02  0.00000E+00  9.000E+00
      21     1     1     2   501   512 -2.172739955E+00 -7.315602083E+01  2.920825477E+01  7.880130918E+01  1.617033478E-06  0.00000E+00  9.000E+00
#rwgt            2          11   3.0563468295655809E-003           1      120741           0
</event>
<event>
      5   9999  3.79277E-02  9.64859E+01 -1.00000E+00  1.24531E-01
      21    -1     0     0   502   501  0.000000000E+00  0.000000000E+00  3.168517876E+02  3.168517876E+02  0.000000000E+00  0.00000E+00  9.000E+00
       1    -1     0     0   501     0  0.000000000E+00  0.000000000E+00 -8.446811075E+02  8.446811075E+02  0.000000000E+00  0.00000E+00  9.000E+00
      25     1     1     2     0     0 -2.776069276E+01 -9.591638550E+01  1.524228918E+02  2.209713715E+02  1.250000000E+02  0.00000E+00  9.000E+00
      25     1     1     2     0     0  1.052580414E+02  1.533941085E+02  2.790640572E+01  2.258600790E+02  1.250000000E+02  0.00000E+00  9.000E+00
       1     1     1     2   502     0 -7.749734860E+01 -5.747772304E+01 -7.081586173E+02  7.147014446E+02  7.629394531E-06  0.00000E+00  9.000E+00
#rwgt            1           1   3.3788611669874180E-002           1      120776           0
</event>
<event>
      5   9999  3.79277E-02  1.41167E+01 -1.00000E+00  1.79903E-01
      21    -1     0     0   502   501  0.000000000E+00  0.000000000E+00  8.869272828E+02  8.869272828E+02  0.000000000E+00  0.00000E+00  9.000E+00
      21    -1     0     0   501   511  0.000000000E+00  0.000000000E+00 -1.016522670E+02  1.016522670E+02  0.000000000E+00  0.00000E+00  9.000E+00
      25     1     1     2     0     0 -6.710449607E+01 -2.404201318E+02  4.348862760E+02  5.167745410E+02  1.250000000E+02  0.00000E+00  9.000E+00
      25     1     1     2     0     0  6.383252500E+01  2.266878255E+02  3.646580719E+02  4.517327428E+02  1.250000000E+02  0.00000E+00  9.000E+00
      21     1     1     2   502   511  3.271971063E+00  1.373230631E+01 -1.426933204E+01  2.007226615E+01  4.768371582E-07  0.00000E+00  9.000E+00
#rwgt            1           1   4.6347599189764964E-002           1      120843           0
</event>
<event>
      5   9999  3.79277E-02  1.65302E+01 -1.00000E+00  1.73499E-01
       2    -1     0     0   502     0  0.000000000E+00  0.000000000E+00  3.470879937E+03  3.470879937E+03  0.000000000E+00  0.00000E+00  9.000E+00
      21    -1     0     0   501   502  0.000000000E+00  0.000000000E+00 -1.589654014E+01  1.589654014E+01  0.000000000E+00  0.00000E+00  9.000E+00
      25     1     1     2     0     0  2.170511904E+01  3.061293851E+00  2.044136054E+03  2.048071701E+03  1.250000000E+02  0.00000E+00  9.000E+00
      25     1     1     2     0     0 -1.642315865E+01 -1.872492307E+01  2.789805210E+02  3.067172542E+02  1.250000000E+02  0.00000E+00  9.000E+00
       2     1     1     2   501     0 -5.281960393E+00  1.566362922E+01  1.131866822E+03  1.131987522E+03  1.525878906E-05  0.00000E+00  9.000E+00
#rwgt            1           1   8.5351019165216188E-002           1      121141           0
</event>
<event>
      5   9999  3.79277E-02  1.98108E+01 -1.00000E+00  1.66710E-01
      21    -1     0     0   502   511  0.000000000E+00  0.000000000E+00  1.679583194E+02  1.679583194E+02  0.000000000E+00  0.00000E+00  9.000E+00
      21    -1     0     0   501   502  0.000000000E+00  0.000000000E+00 -5.666705458E+02  5.666705458E+02  0.000000000E+00  0.00000E+00  9.000E+00
      25     1     1     2     0     0  9.414878002E+01 -2.266066278E+02 -3.295036880E+02  4.294324591E+02  1.250000000E+02  0.00000E+00  9.000E+00
      25     1     1     2     0     0 -1.057273135E+02  2.105316929E+02 -8.494374863E+01  2.798969435E+02  1.250000000E+02  0.00000E+00  9.000E+00
      21     1     1     2   501   511  1.157853350E+01  1.607493488E+01  1.573521020E+01  2.529946263E+01  5.057621821E-07  0.00000E+00  9.000E+00
#rwgt            1           1   4.4180929649785525E-002           1      121302           0
</event>
<event>
      5   9999  3.79277E-02  1.33437E+02 -1.00000E+00  1.18444E-01
      21    -1     0     0   502   501  0.000000000E+00  0.000000000E+00  2.409184635E+02  2.409184635E+02  0.000000000E+00  0.00000E+00  9.000E+00
      21    -1     0     0   501   512  0.000000000E+00  0.000000000E+00 -4.418569038E+02  4.418569038E+02  0.000000000E+00  0.00000E+00  9.000E+00
      25     1     1     2     0     0 -1.687422874E+02 -7.105380030E+01 -2.223595981E+02  3.139926638E+02  1.250000000E+02  0.00000E+00  9.000E+00
      25     1     1     2     0     0  6.166197486E+01  1.506727859E+02  8.352888830E+01  2.216000062E+02  1.250000000E+02  0.00000E+00  9.000E+00
      21     1     1     2   502   512  1.070803125E+02 -7.961898559E+01 -6.210773060E+01  1.471826973E+02  1.784161275E-06  0.00000E+00  9.000E+00
#rwgt            1           1   3.0956321816743411E-002           1      121452           0
</event>
<event>
      5   9999  3.79277E-02  7.64724E+01 -1.00000E+00  1.29305E-01
      21    -1     0     0   502   511  0.000000000E+00  0.000000000E+00  3.995004559E+02  3.995004559E+02  0.000000000E+00  0.00000E+00  9.000E+00
      21    -1     0     0   501   502  0.000000000E+00  0.000000000E+00 -2.451743942E+02  2.451743942E+02  0.000000000E+00  0.00000E+00  9.000E+00
      25     1     1     2     0     0  3.141210953E+01  8.691784520E+01 -1.645143718E+02  2.263435684E+02  1.250000000E+02  0.00000E+00  9.000E+00
      25     1     1     2     0     0  2.654786496E+01 -1.368044771E+02  2.664295069E+02  3.256223829E+02  1.250000000E+02  0.00000E+00  9.000E+00
      21     1     1     2   501   511 -5.795997449E+01  4.988663193E+01  5.241092652E+01  9.270889875E+01  0.000000000E+00  0.00000E+00  9.000E+00
#rwgt            1           1   3.2575303173404201E-002           1      121579           0
</event>
<event>
      5   9999  3.79277E-02  2.50972E+01 -1.00000E+00  1.58625E-01
      21    -1     0     0   502   501  0.000000000E+00  0.000000000E+00  4.101415846E+02  4.101415846E+02  0.000000000E+00  0.00000E+00  9.000E+00
      21    -1     0     0   512   502  0.000000000E+00  0.000000000E+00 -2.338786022E+02  2.338786022E+02  0.000000000E+00  0.00000E+00  9.000E+00
      25     1     1     2     0     0  1.330556162E+02 -9.377870121E+01  1.050841538E+02  2.305773648E+02  1.250000000E+02  0.00000E+00  9.000E+00
      25     1     1     2     0     0 -1.570878698E+02  1.010118164E+02  1.885902495E+02  2.933790519E+02  1.250000000E+02  0.00000E+00  9.000E+00
      21     1     1     2   512   501  2.403225363E+01 -7.233115198E+00 -1.174114208E+02  1.200637702E+02  1.348699152E-06  0.00000E+00  9.000E+00
#rwgt            1           1   1.4972544494593861E-002           1      121821           0
</event>
<event>
      5   9999  3.79277E-02  4.25008E+01 -1.00000E+00  1.43225E-01
      21    -1     0     0   502   501  0.000000000E+00  0.000000000E+00  6.365179886E+02  6.365179886E+02  0.000000000E+00  0.00000E+00  9.000E+00
      21    -1     0     0   501   511  0.000000000E+00  0.000000000E+00 -1.532848074E+02  1.532848074E+02  0.000000000E+00  0.00000E+00  9.000E+00
      25     1     1     2     0     0  1.811737273E+02  1.151030614E+02  2.946535535E+02  3.853807867E+02  1.250000000E+02  0.00000E+00  9.000E+00
      25     1     1     2     0     0 -1.389436105E+02 -1.198924441E+02  2.470275428E+02  3.321552829E+02  1.250000000E+02  0.00000E+00  9.000E+00
      21     1     1     2   502   511 -4.223011680E+01  4.789382691E+00 -5.844791512E+01  7.226672632E+01  2.236564522E-06  0.00000E+00  9.000E+00
#rwgt            1           1   3.4575979805145818E-002           1      122060           0
</event>
<event>
      5   9999  3.79277E-02  4.00021E+01 -1.00000E+00  1.44839E-01
       1    -1     0     0   502     0  0.000000000E+00  0.000000000E+00  5.711333960E+02  5.711333960E+02  0.000000000E+00  0.00000E+00  9.000E+00
      21    -1     0     0   501   502  0.000000000E+00  0.000000000E+00 -2.009977983E+02  2.009977983E+02  0.000000000E+00  0.00000E+00  9.000E+00
      25     1     1     2     0     0  6.548372389E+01 -1.224346548E+02  1.819240137E+02  2.607675393E+02  1.250000000E+02  0.00000E+00  9.000E+00
      25     1     1     2     0     0 -5.534503093E+01  8.373875911E+01 -1.201989311E+02  2.003697464E+02  1.250000000E+02  0.00000E+00  9.000E+00
       1     1     1     2   501     0 -1.013869296E+01  3.869589566E+01  3.084105151E+02  3.109939087E+02  5.394796609E-06  0.00000E+00  9.000E+00
#rwgt            1           1   1.5496873817443645E-002           1      122193           0
</event>
<event>
      5   9999  3.79277E-02  1.18407E+02 -1.00000E+00  1.20615E-01
      21    -1     0     0   502   501  0.000000000E+00  0.000000000E+00  1.195237626E+02  1.195237626E+02  0.000000000E+00  0.00000E+00  9.000E+00
       2    -1     0     0   501     0  0.000000000E+00  0.000000000E+00 -6.541670576E+02  6.541670576E+02  0.000000000E+00  0.00000E+00  9.000E+00
      25     1     1     2     0     0  2.011026661E+00  1.844806797E+02 -2.201585933E+02  3.132602298E+02  1.250000000E+02  0.00000E+00  9.000E+00
      25     1     1     2     0     0  1.083784660E+02 -1.416510657E+02 -1.985529839E+02  2.947188554E+02  1.250000000E+02  0.00000E+00  9.000E+00
       2     1     1     2   502     0 -1.103894926E+02 -4.282961399E+01 -1.159317179E+02  1.657117350E+02  0.000000000E+00  0.00000E+00  9.000E+00
#rwgt            1           1   3.7450268196844848E-002           1      122283           0
</event>
<event>
      5   9999  3.79277E-02  9.40594E+01 -1.00000E+00  1.25036E-01
      21    -1     0     0   502   511  0.000000000E+00  0.000000000E+00  5.210694752E+02  5.210694752E+02  0.000000000E+00  0.00000E+00  9.000E+00
      21    -1     0     0   501   502  0.000000000E+00  0.000000000E+00 -5.678739218E+02  5.678739218E+02  0.000000000E+00  0.00000E+00  9.000E+00
      25     1     1     2     0     0  9.506990437E+01 -3.602278065E+02 -2.454447841E+02  4.633254810E+02  1.250000000E+02  0.00000E+00  9.000E+00
      25     1     1     2     0     0 -1.783969183E+02  3.165953918E+02 -2.285889191E+01  3.849748453E+02  1.250000000E+02  0.00000E+00  9.000E+00
      21     1     1     2   501   511  8.332701397E+01  4.363241467E+01  2.214992294E+02  2.406430707E+02  2.697398305E-06  0.00000E+00  9.000E+00
#rwgt            1           1   4.5076993185498557E-002           1      122337           0
</event>
<event>
      5   9999  3.79277E-02  3.16267E+01 -1.00000E+00  1.51464E-01
      21    -1     0     0   502   501  0.000000000E+00  0.000000000E+00  5.795376500E+02  5.795376500E+02  0.000000000E+00  0.00000E+00  9.000E+00
      21    -1     0     0   501   512  0.000000000E+00  0.000000000E+00 -2.078530901E+02  2.078530901E+02  0.000000000E+00  0.00000E+00  9.000E+00
      25     1     1     2     0     0 -1.759268380E+02  1.288486240E+02  1.567235268E+02  2.962085146E+02  1.250000000E+02  0.00000E+00  9.000E+00
      25     1     1     2     0     0  1.942945848E+02 -1.031022945E+02  3.046961421E+02  3.960368769E+02  1.250000000E+02  0.00000E+00  9.000E+00
      21     1     1     2   502   512 -1.836774675E+01 -2.574632947E+01 -8.973510896E+01  9.514534871E+01  1.907348633E-06  0.00000E+00  9.000E+00
#rwgt            1           1   3.4537894609342923E-002           1      122451           0
</event>
<event>
      5   9999  3.79277E-02  1.57050E+02 -1.00000E+00  1.15609E-01
      21    -1     0     0   502   501  0.000000000E+00  0.000000000E+00  8.175701284E+02  8.175701284E+02  0.000000000E+00  0.00000E+00  9.000E+00
      21    -1     0     0   511   502  0.000000000E+00  0.000000000E+00 -1.941356876E+03  1.941356876E+03  0.000000000E+00  0.00000E+00  9.000E+00
      25     1     1     2     0     0 -7.897168542E+01 -3.233904824E+02 -2.071032641E+02  4.115029687E+02  1.250000000E+02  0.00000E+00  9.000E+00
      25     1     1     2     0     0  1.119590335E+02  1.698436627E+02  6.915159587E+02  7.315743408E+02  1.250000000E+02  0.00000E+00  9.000E+00
      21     1     1     2   511   501 -3.298734806E+01  1.535468197E+02 -1.608199442E+03  1.615849694E+03  0.000000000E+00  0.00000E+00  9.000E+00
#rwgt            1           1   4.8203020832558827E-002           1      122764           0
</event>
<event>
      5   9999  3.79277E-02  1.89401E+01 -1.00000E+00  1.68344E-01
      21    -1     0     0   502   512  0.000000000E+00  0.000000000E+00  3.922192708E+02  3.922192708E+02  0.000000000E+00  0.00000E+00  9.000E+00
      21    -1     0     0   501   502  0.000000000E+00  0.000000000E+00 -1.724804273E+02  1.724804273E+02  0.000000000E+00  0.00000E+00  9.000E+00
      25     1     1     2     0     0 -2.057372479E+02  1.069645685E+01  1.009364434E+02  2.612573348E+02  1.250000000E+02  0.00000E+00  9.000E+00
      25     1     1     2     0     0  2.237675428E+02 -4.896880272E+00  9.587166294E+01  2.737010566E+02  1.250000000E+02  0.00000E+00  9.000E+00
      21     1     1     2   501   512 -1.803029486E+01 -5.799576575E+00  2.293073715E+01  2.974130675E+01  4.768371582E-07  0.00000E+00  9.000E+00
#rwgt            1           1   3.5740266321249520E-002           1      122948           0
</event>
<event>
      5   9999  3.79277E-02  1.29472E+02 -1.00000E+00  1.18984E-01
      21    -1     0     0   502   501  0.000000000E+00  0.000000000E+00  4.878023444E+02  4.878023444E+02  0.000000000E+00  0.00000E+00  9.000E+00
      21    -1     0     0   511   502  0.000000000E+00  0.000000000E+00 -3.124924382E+02  3.124924382E+02  0.000000000E+00  0.00000E+00  9.000E+00
      25     1     1     2     0     0 -1.415988618E+02  1.964235293E+02  1.158734660E+02  2.961150125E+02  1.250000000E+02  0.00000E+00  9.000E+00
      25     1     1     2     0     0  1.391357061E+02 -6.697496545E+01  2.209793937E+02  2.971553182E+02  1.250000000E+02  0.00000E+00  9.000E+00
      21     1     1     2   511   501  2.463155657E+00 -1.294485638E+02 -1.615429535E+02  2.070244518E+02  2.697398305E-06  0.00000E+00  9.000E+00
#rwgt            1           1   2.4735055024815596E-002           1      123109           0
</event>
<event>
      5   9999  3.79277E-02  3.00766E+01 -1.00000E+00  1.52963E-01
      -3    -1     0     0     0   501  0.000000000E+00  0.000000000E+00  7.887562548E+02  7.887562548E+02  0.000000000E+00  0.00000E+00  9.000E+00
      21    -1     0     0   501   502  0.000000000E+00  0.000000000E+00 -4.772377521E+01  4.772377521E+01  0.000000000E+00  0.00000E+00  9.000E+00
      25     1     1     2     0     0  6.177371868E+01  1.336635917E+01  1.510735244E+02  2.060166538E+02  1.250000000E+02  0.00000E+00  9.000E+00
      25     1     1     2     0     0 -7.617247874E+01 -3.977236214E+01  2.749084487E+02  3.139804811E+02  1.250000000E+02  0.00000E+00  9.000E+00
      -3     1     1     2     0   502  1.439876006E+01  2.640600298E+01  3.150505065E+02  3.164828951E+02  3.814697266E-06  0.00000E+00  9.000E+00
#rwgt            1           1   8.9459782955407754E-002           1      123226           0
</event>
<event>
      5   9999  3.79277E-02  2.81472E+01 -1.00000E+00  1.54988E-01
      21    -1     0     0   502   511  0.000000000E+00  0.000000000E+00  1.352710811E+03  1.352710811E+03  0.000000000E+00  0.00000E+00  9.000E+00
      21    -1     0     0   501   502  0.000000000E+00  0.000000000E+00 -6.186315614E+01  6.186315614E+01  0.000000000E+00  0.00000E+00  9.000E+00
      25     1     1     2     0     0  1.920570516E+02  7.917941437E+01  3.901389166E+02  4.593350248E+02  1.250000000E+02  0.00000E+00  9.000E+00
      25     1     1     2     0     0 -1.898655081E+02 -1.072411907E+02  5.653911360E+02  6.187420471E+02  1.250000000E+02  0.00000E+00  9.000E+00
      21     1     1     2   501   511 -2.191543496E+00  2.806177628E+01  3.353176020E+02  3.364968950E+02  3.814697266E-06  0.00000E+00  9.000E+00
#rwgt            1           1   3.0444204332612725E-002           1      123355           0
</event>
<event>
      5   9999  3.79277E-02  2.44636E+01 -1.00000E+00  1.59460E-01
      21    -1     0     0   502   501  0.000000000E+00  0.000000000E+00  3.424288777E+02  3.424288777E+02  0.000000000E+00  0.00000E+00  9.000E+00
      21    -1     0     0   512   502  0.000000000E+00  0.000000000E+00 -2.177476842E+02  2.177476842E+02  0.000000000E+00  0.00000E+00  9.000E+00
      25     1     1     2     0     0  7.474097016E+01  1.435959129E+02  2.000200795E+02  2.860752192E+02  1.250000000E+02  0.00000E+00  9.000E+00
      25     1     1     2     0     0 -5.180427109E+01 -1.350884776E+02  3.830204453E+00  1.912387245E+02  1.250000000E+02  0.00000E+00  9.000E+00
      21     1     1     2   512   501 -2.293669906E+01 -8.507435384E+00 -7.916909048E+01  8.286261828E+01  1.348699152E-06  0.00000E+00  9.000E+00
#rwgt            1           1   4.9002801545173405E-002           1      123566           0
</event>
<event>
      5   9999  3.79277E-02  5.84293E+01 -1.00000E+00  1.35322E-01
      21    -1     0     0   502   511  0.000000000E+00  0.000000000E+00  5.639369398E+02  5.639369398E+02  0.000000000E+00  0.00000E+00  9.000E+00
      21    -1     0     0   501   502  0.000000000E+00  0.000000000E+00 -1.794459697E+02  1.794459697E+02  0.000000000E+00  0.00000E+00  9.000E+00
      25     1     1     2     0     0  1.544979509E+02  9.235705282E+01  6.327893424E+01  2.280979298E+02  1.250000000E+02  0.00000E+00  9.000E+00
      25     1     1     2     0     0 -1.940699983E+02 -4.936829589E+01  5.453194414E+01  2.422790247E+02  1.250000000E+02  0.00000E+00  9.000E+00
      21     1     1     2   501   511  3.957204738E+01 -4.298875693E+01  2.666800917E+02  2.730059550E+02  0.000000000E+00  0.00000E+00  9.000E+00
#rwgt            1           1   3.3685898468093986E-002           1      123687           0
</event>
<event>
      5   9999  3.79277E-02  4.28090E+01 -1.00000E+00  1.43036E-01
      21    -1     0     0   502   501  0.000000000E+00  0.000000000E+00  1.352686365E+03  1.352686365E+03  0.000000000E+00  0.00000E+00  9.000E+00
      21    -1     0     0   501   512  0.000000000E+00  0.000000000E+00 -5.842165267E+01  5.842165267E+01  0.000000000E+00  0.00000E+00  9.000E+00
      25     1     1     2     0     0  2.148372351E+02 -2.083043590E+01  3.624913828E+02  4.400158488E+02  1.250000000E+02  0.00000E+00  9.000E+00
      25     1     1     2     0     0 -1.752760730E+02  3.718656243E+01  8.618157223E+02  8.890758580E+02  1.250000000E+02  0.00000E+00  9.000E+00
      21     1     1     2   502   512 -3.956116213E+01 -1.635612653E+01  6.995760742E+01  8.201631094E+01  1.348699152E-06  0.00000E+00  9.000E+00
#rwgt            1           1   1.1106280980914780E-002           1      123787           0
</event>
<event>
      5   9999  3.79277E-02  1.11027E+02 -1.00000E+00  1.21819E-01
      21    -1     0     0   502   501  0.000000000E+00  0.000000000E+00  3.501578463E+02  3.501578463E+02  0.000000000E+00  0.00000E+00  9.000E+00
      21    -1     0     0   501   511  0.000000000E+00  0.000000000E+00 -5.922123549E+02  5.922123549E+02  0.000000000E+00  0.00000E+00  9.000E+00
      25     1     1     2     0     0 -5.272797817E+01 -6.466926700E+01 -1.652220431E+02  2.233510182E+02  1.250000000E+02  0.00000E+00  9.000E+00
      25     1     1     2     0     0 -5.757594196E+01  7.731777569E+01  2.930347139E+02  3.328473690E+02  1.250000000E+02  0.00000E+00  9.000E+00
      21     1     1     2   502   511  1.103039201E+02 -1.264850869E+01 -3.698671794E+02  3.861718140E+02  5.394796609E-06  0.00000E+00  9.000E+00
#rwgt            2          11   1.7236368445086459E-003           1      123945           0
</event>
<event>
      5   9999  3.79277E-02  2.78506E+01 -1.00000E+00  1.55317E-01
       1    -1     0     0   502     0  0.000000000E+00  0.000000000E+00  1.314316349E+03  1.314316349E+03  0.000000000E+00  0.00000E+00  9.000E+00
      21    -1     0     0   501   502  0.000000000E+00  0.000000000E+00 -2.886080008E+01  2.886080008E+01  0.000000000E+00  0.00000E+00  9.000E+00
      25     1     1     2     0     0 -4.688397328E+01 -9.770369171E+01  7.152713865E+02  7.341541218E+02  1.250000000E+02  0.00000E+00  9.000E+00
      25     1     1     2     0     0  1.918976415E+01  1.006509142E+02  3.323933482E+02  3.696068066E+02  1.250000000E+02  0.00000E+00  9.000E+00
       1     1     1     2   501     0  2.769420913E+01 -2.947222517E+00  2.377908145E+02  2.394162208E+02  2.697398305E-06  0.00000E+00  9.000E+00
#rwgt            1           1   4.5235386604141309E-002           1      123965           0
</event>
<event>
      5   9999  3.79277E-02  3.04295E+01 -1.00000E+00  1.52612E-01
       2    -1     0     0   502     0  0.000000000E+00  0.000000000E+00  2.000892266E+02  2.000892266E+02  0.000000000E+00  0.00000E+00  9.000E+00
      21    -1     0     0   501   502  0.000000000E+00  0.000000000E+00 -2.793205522E+02  2.793205522E+02  0.000000000E+00  0.00000E+00  9.000E+00
      25     1     1     2     0     0  8.020627630E+00 -1.187998096E+02 -1.371893668E+02  2.205077041E+02  1.250000000E+02  0.00000E+00  9.000E+00
      25     1     1     2     0     0 -1.943270487E+01  9.059131974E+01 -3.636945570E+01  1.597878423E+02  1.250000000E+02  0.00000E+00  9.000E+00
       2     1     1     2   501     0  1.141207724E+01  2.820848984E+01  9.432749682E+01  9.911423239E+01  0.000000000E+00  0.00000E+00  9.000E+00
#rwgt            1           1   4.6930624117415602E-002           1      124052           0
</event>
<event>
      5   9999  3.79277E-02  1.90824E+01 -1.00000E+00  1.68070E-01
      21    -1     0     0   502   511  0.000000000E+00  0.000000000E+00  1.170878234E+03  1.170878234E+03  0.000000000E+00  0.00000E+00  9.000E+00
      21    -1     0     0   501   502  0.000000000E+00  0.000000000E+00 -6.766125937E+01  6.766125937E+01  0.000000000E+00  0.00000E+00  9.000E+00
      25     1     1     2     0     0 -1.860310936E+02 -9.741807994E+01  2.725956095E+02  3.661027402E+02  1.250000000E+02  0.00000E+00  9.000E+00
      25     1     1     2     0     0  1.975185616E+02  8.218074671E+01  7.722040516E+02  8.109817227E+02  1.250000000E+02  0.00000E+00  9.000E+00
      21     1     1     2   501   511 -1.148746798E+01  1.523733322E+01  5.841731354E+01  6.145503043E+01  0.000000000E+00  0.00000E+00  9.000E+00
#rwgt            1           1   3.0607348293540150E-002           1      124147           0
</event>
<event>
      5   9999  3.79277E-02  7.64181E+01 -1.00000E+00  1.29320E-01
      21    -1     0     0   502   512  0.000000000E+00  0.000000000E+00  5.635363227E+02  5.635363227E+02  0.000000000E+00  0.00000E+00  9.000E+00
      21    -1     0     0   501   502  0.000000000E+00  0.000000000E+00 -1.300718556E+02  1.300718556E+02  0.000000000E+00  0.00000E+00  9.000E+00
      25     1     1     2     0     0 -1.866276466E+02  9.568711038E+01  2.539677471E+02  3.522932275E+02  1.250000000E+02  0.00000E+00  9.000E+00
      25     1     1     2     0     0  1.164734997E+02 -1.259875950E+02  1.156877478E+02  2.417593953E+02  1.250000000E+02  0.00000E+00  9.000E+00
      21     1     1     2   501   512  7.015414688E+01  3.030048460E+01  6.380897216E+01  9.955555544E+01  1.784161275E-06  0.00000E+00  9.000E+00
#rwgt            2          11   2.9403092591685823E-003           1      124611           0
</event>
<event>
      5   9999  3.79277E-02  1.82243E+02 -1.00000E+00  1.13138E-01
      21    -1     0     0   502   501  0.000000000E+00  0.000000000E+00  4.101880501E+01  4.101880501E+01  0.000000000E+00  0.00000E+00  9.000E+00
      21    -1     0     0   511   502  0.000000000E+00  0.000000000E+00 -2.007593846E+03  2.007593846E+03  0.000000000E+00  0.00000E+00  9.000E+00
      25     1     1     2     0     0 -4.756852246E+01  3.606289567E+01 -8.255467871E+02  8.370876862E+02  1.250000000E+02  0.00000E+00  9.000E+00
      25     1     1     2     0     0 -9.237576004E+01 -1.528025514E+02 -5.079738777E+02  5.527606726E+02  1.250000000E+02  0.00000E+00  9.000E+00
      21     1     1     2   511   501  1.399442825E+02  1.167396557E+02 -6.330543766E+02  6.587642925E+02  0.000000000E+00  0.00000E+00  9.000E+00
#rwgt            2          11   1.3951276482820651E-003           1      124691           0
</event>
<event>
      5   9999  3.79277E-02  5.27468E+01 -1.00000E+00  1.37763E-01
      21    -1     0     0   502   512  0.000000000E+00  0.000000000E+00  1.778105954E+02  1.778105954E+02  0.000000000E+00  0.00000E+00  9.000E+00
      21    -1     0     0   501   502  0.000000000E+00  0.000000000E+00 -1.147743168E+03  1.147743168E+03  0.000000000E+00  0.00000E+00  9.000E+00
      25     1     1     2     0     0  3.796913211E+02  1.132530559E+02 -4.999963134E+02  6.500869691E+02  1.250000000E+02  0.00000E+00  9.000E+00
      25     1     1     2     0     0 -4.062629017E+02 -6.768794981E+01 -4.364957860E+02  6.130128669E+02  1.250000000E+02  0.00000E+00  9.000E+00
      21     1     1     2   501   512  2.657158055E+01 -4.556510610E+01 -3.344047290E+01  6.245392714E+01  4.768371582E-07  0.00000E+00  9.000E+00
#rwgt            1           1   3.2332444763589270E-002           1      124771           0
</event>
<event>
      5   9999  3.79277E-02  1.84004E+01 -1.00000E+00  1.69413E-01
      21    -1     0     0   502   511  0.000000000E+00  0.000000000E+00  1.328231591E+02  1.328231591E+02  0.000000000E+00  0.00000E+00  9.000E+00
      21    -1     0     0   501   502  0.000000000E+00  0.000000000E+00 -1.518940946E+03  1.518940946E+03  0.000000000E+00  0.00000E+00  9.000E+00
      25     1     1     2     0     0  1.181199994E+02  1.103896821E+01 -1.097812236E+03  1.111256450E+03  1.250000000E+02  0.00000E+00  9.000E+00
      25     1     1     2     0     0 -1.275317519E+02 -2.685017623E+01 -3.939002874E+02  4.333217235E+02  1.250000000E+02  0.00000E+00  9.000E+00
      21     1     1     2   501   511  9.411752502E+00  1.581120802E+01  1.055947366E+02  1.071859309E+02  3.568322551E-06  0.00000E+00  9.000E+00
#rwgt            1           1   4.0155554442043322E-002           1      124960           0
</event>
<event>
      5   9999  3.79277E-02  2.49628E+01 -1.00000E+00  1.58799E-01
      21    -1     0     0   502   501  0.000000000E+00  0.000000000E+00  1.464194264E+03  1.464194264E+03  0.000000000E+00  0.00000E+00  9.000E+00
      21    -1     0     0   501   512  0.000000000E+00  0.000000000E+00 -3.402983536E+01  3.402983536E+01  0.000000000E+00  0.00000E+00  9.000E+00
      25     1     1     2     0     0 -1.759824306E+02 -1.504913018E+01  7.694649309E+02  7.993106856E+02  1.250000000E+02  0.00000E+00  9.000E+00
      25     1     1     2     0     0  1.510217309E+02  1.537394276E+01  6.260594139E+02  6.562159028E+02  1.250000000E+02  0.00000E+00  9.000E+00
      21     1     1     2   502   512  2.496069965E+01 -3.248125867E-01  3.464008339E+01  4.269751055E+01  8.259061849E-07  0.00000E+00  9.000E+00
#rwgt            1           1   3.9997314165441264E-002           1      125224           0
</event>
<event>
      5   9999  3.79277E-02  5.20156E+01 -1.00000E+00  1.38103E-01
      21    -1     0     0   502   501  0.000000000E+00  0.000000000E+00  1.214375053E+02  1.214375053E+02  0.000000000E+00  0.00000E+00  9.000E+00
      -2    -1     0     0     0   502  0.000000000E+00  0.000000000E+00 -5.340353102E+02  5.340353102E+02  0.000000000E+00  0.00000E+00  9.000E+00
      25     1     1     2     0     0  2.511861093E+01  1.306406863E+02 -2.770269663E+02  3.317632795E+02  1.250000000E+02  0.00000E+00  9.000E+00
      25     1     1     2     0     0 -7.084132700E+01 -1.058404646E+02  5.238449584E-02  1.784536363E+02  1.250000000E+02  0.00000E+00  9.000E+00
      -2     1     1     2     0   501  4.572271607E+01 -2.480022165E+01 -1.356232231E+02  1.452558997E+02  1.907348633E-06  0.00000E+00  9.000E+00
#rwgt            1           1   2.8367049283786964E-002           1      125366           0
</event>
<event>
      5   9999  3.79277E-02  9.26716E+01 -1.00000E+00  1.25333E-01
      21    -1     0     0   502   511  0.000000000E+00  0.000000000E+00  9.908172036E+02  9.908172036E+02  0.000000000E+00  0.00000E+00  9.000E+00
      21    -1     0     0   501   502  0.000000000E+00  0.000000000E+00 -1.464471838E+02  1.464471838E+02  0.000000000E+00  0.00000E+00  9.000E+00
      25     1     1     2     0     0 -7.766128036E+01  6.631541368E+01 -4.529065559E+01  1.676462109E+02  1.250000000E+02  0.00000E+00  9.000E+00
      25     1     1     2     0     0  1.415274345E+02  8.346657631E-01  2.049935934E+02  2.787078842E+02  1.250000000E+02  0.00000E+00  9.000E+00
      21     1     1     2   501   511 -6.386615418E+01 -6.715007945E+01  6.846670820E+02  6.909102923E+02  0.000000000E+00  0.00000E+00  9.000E+00
#rwgt            2          11   1.3711066705388811E-003           1      125437           0
</event>
<event>
      5   9999 -3.79277E-02  5.04347E+01 -1.00000E+00  1.38861E-01
      21    -1     0     0   502   512  0.000000000E+00  0.000000000E+00  9.773495949E+02  9.773495949E+02  0.000000000E+00  0.00000E+00  9.000E+00
      21    -1     0     0   501   502  0.000000000E+00  0.000000000E+00 -2.408702794E+02  2.408702794E+02  0.000000000E+00  0.00000E+00  9.000E+00
      25     1     1     2     0     0  2.677659199E+02  6.024825168E-01  7.423219612E+02  7.989780003E+02  1.250000000E+02  0.00000E+00  9.000E+00
      25     1     1     2     0     0 -2.436896806E+02  4.371452819E+01 -1.140329397E+02  2.998735262E+02  1.250000000E+02  0.00000E+00  9.000E+00
      21     1     1     2   501   512 -2.407623935E+01 -4.431701071E+01  1.081902940E+02  1.193683478E+02  0.000000000E+00  0.00000E+00  9.000E+00
#rwgt            1           1 -0.73071304950379046                1      125457           0
</event>
<event>
      5   9999 -3.79277E-02  7.07752E+01 -1.00000E+00  1.30979E-01
      21    -1     0     0   502   501  0.000000000E+00  0.000000000E+00  2.026378624E+03  2.026378624E+03  0.000000000E+00  0.00000E+00  9.000E+00
      21    -1     0     0   511   502  0.000000000E+00  0.000000000E+00 -4.427208599E+01  4.427208599E+01  0.000000000E+00  0.00000E+00  9.000E+00
      25     1     1     2     0     0  1.105107424E+02  1.973051404E+01  4.830470149E+02  5.114306756E+02  1.250000000E+02  0.00000E+00  9.000E+00
      25     1     1     2     0     0 -7.146406599E+01 -7.876007847E+01  1.475540004E+03  1.484639204E+03  1.250000000E+02  0.00000E+00  9.000E+00
      21     1     1     2   511   501 -3.904667640E+01  5.902956444E+01  2.351951851E+01  7.458082975E+01  1.348699152E-06  0.00000E+00  9.000E+00
#rwgt            1           1 -0.20386247041489169                1      125575           0
</event>
<event>
      5   9999  3.79277E-02  3.36331E+01 -1.00000E+00  1.49670E-01
      -2    -1     0     0     0   501  0.000000000E+00  0.000000000E+00  6.604352467E+01  6.604352467E+01  0.000000000E+00  0.00000E+00  9.000E+00
      21    -1     0     0   501   502  0.000000000E+00  0.000000000E+00 -1.472742657E+03  1.472742657E+03  0.000000000E+00  0.00000E+00  9.000E+00
      25     1     1     2     0     0 -4.319213590E+01 -6.596544491E+01 -2.122257284E+02  2.586150814E+02  1.250000000E+02  0.00000E+00  9.000E+00
      25     1     1     2     0     0  3.852029064E+01  9.927249894E+01 -1.224272680E+03  1.235235782E+03  1.250000000E+02  0.00000E+00  9.000E+00
      -2     1     1     2     0   502  4.671845261E+00 -3.330705403E+01  2.979927607E+01  4.493531841E+01  1.011524364E-06  0.00000E+00  9.000E+00
#rwgt            1           1   5.3122533866025633E-002           1      125765           0
</event>
<event>
      5   9999  3.79277E-02  2.02298E+01 -1.00000E+00  1.65961E-01
      21    -1     0     0   502   501  0.000000000E+00  0.000000000E+00  1.111999815E+02  1.111999815E+02  0.000000000E+00  0.00000E+00  9.000E+00
      21    -1     0     0   501   511  0.000000000E+00  0.000000000E+00 -3.460254907E+02  3.460254907E+02  0.000000000E+00  0.00000E+00  9.000E+00
      25     1     1     2     0     0  9.606090888E+01  4.979167654E+01 -1.250914424E+01  1.657962242E+02  1.250000000E+02  0.00000E+00  9.000E+00
      25     1     1     2     0     0 -9.922703444E+01 -2.981121223E+01 -1.687558965E+02  2.341757147E+02  1.250000000E+02  0.00000E+00  9.000E+00
      21     1     1     2   502   511  3.166125560E+00 -1.998046431E+01 -5.356046842E+01  5.725353337E+01  6.743495762E-07  0.00000E+00  9.000E+00
#rwgt            1           1   4.1799486885058711E-002           1      126042           0
</event>
<event>
      5   9999  3.79277E-02  4.44698E+01 -1.00000E+00  1.42044E-01
      21    -1     0     0   502   501  0.000000000E+00  0.000000000E+00  2.514421986E+02  2.514421986E+02  0.000000000E+00  0.00000E+00  9.000E+00
      21    -1     0     0   512   502  0.000000000E+00  0.000000000E+00 -3.342801045E+02  3.342801045E+02  0.000000000E+00  0.00000E+00  9.000E+00
      25     1     1     2     0     0 -4.858396459E+00  1.102821292E+02 -1.460526218E+02  2.216802210E+02  1.250000000E+02  0.00000E+00  9.000E+00
      25     1     1     2     0     0  4.865528829E+01 -1.025750396E+02  1.753341318E+02  2.434256223E+02  1.250000000E+02  0.00000E+00  9.000E+00
      21     1     1     2   512   501 -4.379689183E+01 -7.707089558E+00 -1.121194158E+02  1.206164598E+02  1.348699152E-06  0.00000E+00  9.000E+00
#rwgt            1           1   4.3091307700230473E-002           1      126146           0
</event>
<event>
      5   9999 -3.79277E-02  9.05937E+01 -1.00000E+00  1.25789E-01
      21    -1     0     0   511   501  0.000000000E+00  0.000000000E+00  1.353601100E+02  1.353601100E+02  0.000000000E+00  0.00000E+00  9.000E+00
      21    -1     0     0   501   502  0.000000000E+00  0.000000000E+00 -1.043076228E+03  1.043076228E+03  0.000000000E+00  0.00000E+00  9.000E+00
      25     1     1     2     0     0 -1.084311592E+01  2.214203728E+02 -3.848578890E+02  4.613947869E+02  1.250000000E+02  0.00000E+00  9.000E+00
      25     1     1     2     0     0 -3.119979250E+01 -1.411731254E+02 -5.794962496E+02  6.102001161E+02  1.250000000E+02  0.00000E+00  9.000E+00
      21     1     1     2   511   502  4.204290842E+01 -8.024724740E+01  5.663802059E+01  1.068414350E+02  0.000000000E+00  0.00000E+00  9.000E+00
#rwgt            1           1 -0.29425945219101862                1      126262           0
</event>
<event>
      5   9999  3.79277E-02  1.39606E+01 -1.00000E+00  1.80373E-01
      21    -1     0     0   502   501  0.000000000E+00  0.000000000E+00  5.481169424E+02  5.481169424E+02  0.000000000E+00  0.00000E+00  9.000E+00
       2    -1     0     0   501     0  0.000000000E+00  0.000000000E+00 -2.483275924E+03  2.483275924E+03  0.000000000E+00  0.00000E+00  9.000E+00
      25     1     1     2     0     0  6.357789903E+01 -5.866301093E+01  7.107367550E+01  1.678093127E+02  1.250000000E+02  0.00000E+00  9.000E+00
      25     1     1     2     0     0 -6.109204327E+01  7.240046246E+01  4.143086728E+02  4.430019651E+02  1.250000000E+02  0.00000E+00  9.000E+00
       2     1     1     2   502     0 -2.485855759E+00 -1.373745154E+01 -2.420541330E+03  2.420581589E+03  4.315837288E-05  0.00000E+00  9.000E+00
#rwgt            1           1   5.1622750961107258E-002           1      126368           0
</event>
<event>
      5   9999  3.79277E-02  2.24464E+01 -1.00000E+00  1.62337E-01
      21    -1     0     0   502   511  0.000000000E+00  0.000000000E+00  1.814593606E+01  1.814593606E+01  0.000000000E+00  0.00000E+00  9.000E+00
      21    -1     0     0   501   502  0.000000000E+00  0.000000000E+00 -1.473080818E+03  1.473080818E+03  0.000000000E+00  0.00000E+00  9.000E+00
      25     1     1     2     0     0 -5.511690839E+01 -5.501860544E+01 -8.154426152E+02  8.286353717E+02  1.250000000E+02  0.00000E+00  9.000E+00
      25     1     1     2     0     0  5.204765578E+01  3.278305001E+01 -6.089795428E+02  6.247117499E+02  1.250000000E+02  0.00000E+00  9.000E+00
      21     1     1     2   501   511  3.069252606E+00  2.223555543E+01 -3.051272385E+01  3.787963244E+01  1.066240300E-06  0.00000E+00  9.000E+00
#rwgt            1           1   6.2443408442353673E-002           1      126716           0
</event>
<event>
      5   9999  3.79277E-02  5.59673E+01 -1.00000E+00  1.36338E-01
      21    -1     0     0   502   501  0.000000000E+00  0.000000000E+00  8.828896971E+02  8.828896971E+02  0.000000000E+00  0.00000E+00  9.000E+00
      21    -1     0     0   512   502  0.000000000E+00  0.000000000E+00 -4.882855207E+02  4.882855207E+02  0.000000000E+00  0.00000E+00  9.000E+00
      25     1     1     2     0     0 -3.616771796E+02  2.173490439E+02  6.598227545E+02  7.931217160E+02  1.250000000E+02  0.00000E+00  9.000E+00
      25     1     1     2     0     0  4.022598633E+02 -1.788083079E+02 -2.341007122E+02  5.140170737E+02  1.250000000E+02  0.00000E+00  9.000E+00
      21     1     1     2   512   501 -4.058268374E+01 -3.854073597E+01 -3.111786578E+01  6.403642806E+01  7.539457465E-07  0.00000E+00  9.000E+00
#rwgt            1           1   3.2297880356010888E-002           1      126872           0
</event>
<event>
      5   9999  3.79277E-02  6.76045E+01 -1.00000E+00  1.31991E-01
      21    -1     0     0   502   501  0.000000000E+00  0.000000000E+00  7.733147084E+02  7.733147084E+02  0.000000000E+00  0.00000E+00  9.000E+00
      21    -1     0     0   501   511  0.000000000E+00  0.000000000E+00 -2.649201354E+02  2.649201354E+02  0.000000000E+00  0.00000E+00  9.000E+00
      25     1     1     2     0     0 -1.981736195E+01 -8.222240525E+01  6.183926466E+02  6.365435705E+02  1.250000000E+02  0.00000E+00  9.000E+00
      25     1     1     2     0     0  7.370345838E+01  1.230471960E+02  7.516947582E+01  2.045684783E+02  1.250000000E+02  0.00000E+00  9.000E+00
      21     1     1     2   502   511 -5.388609643E+01 -4.082479078E+01 -1.851675494E+02  1.971227949E+02  4.672030912E-06  0.00000E+00  9.000E+00
#rwgt            1           1   4.1902668744457479E-002           1      127030           0
</event>
<event>
      5   9999  3.79277E-02  1.03402E+02 -1.00000E+00  1.23178E-01
      21    -1     0     0   502   501  0.000000000E+00  0.000000000E+00  1.814874206E+02  1.814874206E+02  0.000000000E+00  0.00000E+00  9.000E+00
      21    -1     0     0   501   512  0.000000000E+00  0.000000000E+00 -4.552592137E+02  4.552592137E+02  0.000000000E+00  0.00000E+00  9.000E+00
      25     1     1     2     0     0  7.986958589E+01 -1.360617052E+02 -1.023893934E+02  2.258329610E+02  1.250000000E+02  0.00000E+00  9.000E+00
      25     1     1     2     0     0 -9.669528820E+01  3.403785593E+01  4.778939933E+01  1.685745565E+02  1.250000000E+02  0.00000E+00  9.000E+00
      21     1     1     2   502   512  1.682570230E+01  1.020238493E+02 -2.191717990E+02  2.423391168E+02  0.000000000E+00  0.00000E+00  9.000E+00
#rwgt            2          11   1.7198835171256858E-003           1      127417           0
</event>
<event>
      5   9999  3.79277E-02  1.50884E+02 -1.00000E+00  1.16293E-01
      21    -1     0     0   502   501  0.000000000E+00  0.000000000E+00  1.545015463E+03  1.545015463E+03  0.000000000E+00  0.00000E+00  9.000E+00
      21    -1     0     0   511   502  0.000000000E+00  0.000000000E+00 -9.550799296E+01  9.550799296E+01  0.000000000E+00  0.00000E+00  9.000E+00
      25     1     1     2     0     0 -2.171896346E+02 -1.052578714E+02  6.709865105E+02  7.239464443E+02  1.250000000E+02  0.00000E+00  9.000E+00
      25     1     1     2     0     0  2.241023902E+02 -4.546779780E+01  6.990442200E+02  7.460408993E+02  1.250000000E+02  0.00000E+00  9.000E+00
      21     1     1     2   511   501 -6.912755648E+00  1.507256692E+02  7.947673982E+01  1.705361127E+02  4.370284743E-06  0.00000E+00  9.000E+00
#rwgt            1           1   3.3774557894392876E-002           1      127437           0
</event>
<event>
      5   9999 -3.79277E-02  1.29268E+02 -1.00000E+00  1.19013E-01
      21    -1     0     0   502   501  0.000000000E+00  0.000000000E+00  9.992950319E+02  9.992950319E+02  0.000000000E+00  0.00000E+00  9.000E+00
      21    -1     0     0   512   502  0.000000000E+00  0.000000000E+00 -2.986296888E+02  2.986296888E+02  0.000000000E+00  0.00000E+00  9.000E+00
      25     1     1     2     0     0 -1.133401731E+02  3.021201783E+02  3.618180655E+02  5.006594746E+02  1.250000000E+02  0.00000E+00  9.000E+00
      25     1     1     2     0     0 -8.115662670E+00 -2.578630446E+02  5.086395651E+02  5.838650709E+02  1.250000000E+02  0.00000E+00  9.000E+00
      21     1     1     2   512   501  1.214558358E+02 -4.425713369E+01 -1.697922875E+02  2.134001753E+02  4.264961200E-06  0.00000E+00  9.000E+00
#rwgt            1           1  -6.1190660846128321E-002           1      127592           0
</event>
<event>
      5   9999  3.79277E-02  2.91160E+01 -1.00000E+00  1.53948E-01
      21    -1     0     0   511   501  0.000000000E+00  0.000000000E+00  9.785876407E+02  9.785876407E+02  0.000000000E+00  0.00000E+00  9.000E+00
      21    -1     0     0   501   502  0.000000000E+00  0.000000000E+00 -4.852859610E+01  4.852859610E+01  0.000000000E+00  0.00000E+00  9.000E+00
      25     1     1     2     0     0 -8.567244908E+01  2.723083496E+01  1.629693874E+02  2.241992599E+02  1.250000000E+02  0.00000E+00  9.000E+00
      25     1     1     2     0     0  1.110137248E+02 -4.156830687E+01  4.110587521E+02  4.456975083E+02  1.250000000E+02  0.00000E+00  9.000E+00
      21     1     1     2   511   502 -2.534127574E+01  1.433747191E+01  3.560309051E+02  3.572194686E+02  3.814697266E-06  0.00000E+00  9.000E+00
#rwgt            1           1   3.1760259411869496E-002           1      127720           0
</event>
<event>
      5   9999  3.79277E-02  7.16137E+01 -1.00000E+00  1.30721E-01
      21    -1     0     0   502   512  0.000000000E+00  0.000000000E+00  1.232945456E+02  1.232945456E+02  0.000000000E+00  0.00000E+00  9.000E+00
      21    -1     0     0   501   502  0.000000000E+00  0.000000000E+00 -7.566424665E+02  7.566424665E+02  0.000000000E+00  0.00000E+00  9.000E+00
      25     1     1     2     0     0 -1.587058569E+02  8.466423670E+01 -6.427290253E+01  2.282796268E+02  1.250000000E+02  0.00000E+00  9.000E+00
      25     1     1     2     0     0  1.988067855E+02 -2.533094817E+01 -4.958530466E+02  5.492367783E+02  1.250000000E+02  0.00000E+00  9.000E+00
      21     1     1     2   501   512 -4.010092852E+01 -5.933328853E+01 -7.322197173E+01  1.024206070E+02  0.000000000E+00  0.00000E+00  9.000E+00
#rwgt            1           1   3.7774970627408914E-002           1      127855           0
</event>
<event>
      5   9999  3.79277E-02  1.32928E+01 -1.00000E+00  1.82474E-01
      21    -1     0     0   502   501  0.000000000E+00  0.000000000E+00  2.175915000E+02  2.175915000E+02  0.000000000E+00  0.00000E+00  9.000E+00
      21    -1     0     0   511   502  0.000000000E+00  0.000000000E+00 -7.688619254E+02  7.688619254E+02  0.000000000E+00  0.00000E+00  9.000E+00
      25     1     1     2     0     0  3.825620845E+02 -2.201434956E+01 -2.915941952E+02  4.974842256E+02  1.250000000E+02  0.00000E+00  9.000E+00
      25     1     1     2     0     0 -3.703929332E+02  1.666549693E+01 -2.239032030E+02  4.508062866E+02  1.250000000E+02  0.00000E+00  9.000E+00
      21     1     1     2   511   501 -1.216915131E+01  5.348852628E+00 -3.577302716E+01  3.816291316E+01  8.259061849E-07  0.00000E+00  9.000E+00
#rwgt            1           1   5.0989445843250512E-002           1      127925           0
</event>
<event>
      5   9999  3.79277E-02  5.78129E+01 -1.00000E+00  1.35571E-01
      21    -1     0     0   502   501  0.000000000E+00  0.000000000E+00  1.806831944E+02  1.806831944E+02  0.000000000E+00  0.00000E+00  9.000E+00
      21    -1     0     0   512   502  0.000000000E+00  0.000000000E+00 -3.818501432E+02  3.818501432E+02  0.000000000E+00  0.00000E+00  9.000E+00
      25     1     1     2     0     0 -1.019055357E+02  8.035888734E+01  7.593323539E+01  1.955329773E+02  1.250000000E+02  0.00000E+00  9.000E+00
      25     1     1     2     0     0  6.762796183E+01 -3.380379491E+01 -9.096263765E+01  1.720913688E+02  1.250000000E+02  0.00000E+00  9.000E+00
      21     1     1     2   512   501  3.427757385E+01 -4.655509244E+01 -1.861375465E+02  1.949089914E+02  0.000000000E+00  0.00000E+00  9.000E+00
#rwgt            1           1   4.5032443343743143E-002           1      128205           0
</event>
<event>
      5   9999  3.79277E-02  1.29020E+01 -1.00000E+00  1.83778E-01
      21    -1     0     0   502   501  0.000000000E+00  0.000000000E+00  3.968422396E+02  3.968422396E+02  0.000000000E+00  0.00000E+00  9.000E+00
      21    -1     0     0   511   502  0.000000000E+00  0.000000000E+00 -1.352774535E+02  1.352774535E+02  0.000000000E+00  0.00000E+00  9.000E+00
      25     1     1     2     0     0  1.507952454E+02  7.207986433E+01  1.127113203E+02  2.371993984E+02  1.250000000E+02  0.00000E+00  9.000E+00
      25     1     1     2     0     0 -1.381903919E+02 -6.932682134E+01  1.755769541E+02  2.652452816E+02  1.250000000E+02  0.00000E+00  9.000E+00
      21     1     1     2   511   501 -1.260485344E+01 -2.753042992E+00 -2.672348835E+01  2.967501315E+01  3.371747881E-07  0.00000E+00  9.000E+00
#rwgt            1           1   2.8194471381512379E-002           1      128315           0
</event>
<event>
      5   9999  3.79277E-02  9.35801E+01 -1.00000E+00  1.25138E-01
      21    -1     0     0   512   501  0.000000000E+00  0.000000000E+00  2.932948933E+02  2.932948933E+02  0.000000000E+00  0.00000E+00  9.000E+00
      21    -1     0     0   501   502  0.000000000E+00  0.000000000E+00 -2.758808947E+02  2.758808947E+02  0.000000000E+00  0.00000E+00  9.000E+00
      25     1     1     2     0     0  6.229081362E+01  9.528384590E+01 -1.480796666E+02  2.247481800E+02  1.250000000E+02  0.00000E+00  9.000E+00
      25     1     1     2     0     0 -6.968348675E+01 -1.996197975E+00 -1.215316074E+01  1.436400795E+02  1.250000000E+02  0.00000E+00  9.000E+00
      21     1     1     2   512   502  7.392673131E+00 -9.328764793E+01  1.776468258E+02  2.007875285E+02  1.907348633E-06  0.00000E+00  9.000E+00
#rwgt            1           1   4.9303446771570392E-002           1      128679           0
</event>
<event>
      5   9999  3.79277E-02  7.15922E+01 -1.00000E+00  1.30728E-01
      -3    -1     0     0     0   501  0.000000000E+00  0.000000000E+00  5.945884115E+02  5.945884115E+02  0.000000000E+00  0.00000E+00  9.000E+00
      21    -1     0     0   501   502  0.000000000E+00  0.000000000E+00 -4.319453680E+02  4.319453680E+02  0.000000000E+00  0.00000E+00  9.000E+00
      25     1     1     2     0     0 -2.478107346E+02  3.099239520E+02 -1.669715935E+02  4.482940210E+02  1.250000000E+02  0.00000E+00  9.000E+00
      25     1     1     2     0     0  1.776307499E+02 -2.957744885E+02  1.722943465E+02  4.053955762E+02  1.250000000E+02  0.00000E+00  9.000E+00
      -3     1     1     2     0   502  7.017998469E+01 -1.414946352E+01  1.573202905E+02  1.728441824E+02  0.000000000E+00  0.00000E+00  9.000E+00
#rwgt            1           1   3.9278715575465063E-002           1      128711           0
</event>
<event>
      5   9999  3.79277E-02  1.95532E+02 -1.00000E+00  1.12006E-01
      21    -1     0     0   502   501  0.000000000E+00  0.000000000E+00  5.131411614E+02  5.131411614E+02  0.000000000E+00  0.00000E+00  9.000E+00
      21    -1     0     0   501   511  0.000000000E+00  0.000000000E+00 -3.472868671E+02  3.472868671E+02  0.000000000E+00  0.00000E+00  9.000E+00
      25     1     1     2     0     0 -2.119863674E+02 -1.917955085E+02 -5.150626904E+01  3.162303477E+02  1.250000000E+02  0.00000E+00  9.000E+00
      25     1     1     2     0     0  1.665059522E+01  1.830429153E+02  2.620504018E+02  3.436238703E+02  1.250000000E+02  0.00000E+00  9.000E+00
      21     1     1     2   502   511  1.953357722E+02  8.752593207E+00 -4.468983836E+01  2.005738105E+02  2.078484985E-06  0.00000E+00  9.000E+00
#rwgt            1           1   3.3409439849614149E-002           1      128798           0
</event>
<event>
      5   9999  3.79277E-02  5.78648E+01 -1.00000E+00  1.35550E-01
      21    -1     0     0   502   501  0.000000000E+00  0.000000000E+00  1.616259956E+02  1.616259956E+02  0.000000000E+00  0.00000E+00  9.000E+00
      21    -1     0     0   501   512  0.000000000E+00  0.000000000E+00 -5.838122431E+02  5.838122431E+02  0.000000000E+00  0.00000E+00  9.000E+00
      25     1     1     2     0     0 -3.884429507E+01 -1.009849497E+02 -4.085711019E+02  4.407518401E+02  1.250000000E+02  0.00000E+00  9.000E+00
      25     1     1     2     0     0  6.348480294E+01  4.862871850E+01  9.878540965E+01  1.782656154E+02  1.250000000E+02  0.00000E+00  9.000E+00
      21     1     1     2   502   512 -2.464050786E+01  5.235623117E+01 -1.124005553E+02  1.264207831E+02  1.907348633E-06  0.00000E+00  9.000E+00
#rwgt            1           1   3.1887523343762464E-002           1      128891           0
</event>
<event>
      5   9999  3.79277E-02  7.68081E+01 -1.00000E+00  1.29211E-01
      21    -1     0     0   502   501  0.000000000E+00  0.000000000E+00  4.423574795E+02  4.423574795E+02  0.000000000E+00  0.00000E+00  9.000E+00
      21    -1     0     0   501   511  0.000000000E+00  0.000000000E+00 -1.078542806E+02  1.078542806E+02  0.000000000E+00  0.00000E+00  9.000E+00
      25     1     1     2     0     0 -1.119668408E+02 -9.184303203E+01  1.191654825E+02  2.253821825E+02  1.250000000E+02  0.00000E+00  9.000E+00
      25     1     1     2     0     0  8.633514827E+01  1.943793239E+01  1.898016379E+02  2.438877873E+02  1.250000000E+02  0.00000E+00  9.000E+00
      21     1     1     2   502   511  2.563169251E+01  7.240509964E+01  2.553607850E+01  8.094179032E+01  1.719260824E-06  0.00000E+00  9.000E+00
#rwgt            1           1   3.8762510162724167E-002           1      129099           0
</event>
<event>
      5   9999  3.79277E-02  2.67795E+01 -1.00000E+00  1.56546E-01
      21    -1     0     0   512   501  0.000000000E+00  0.000000000E+00  3.982558597E+02  3.982558597E+02  0.000000000E+00  0.00000E+00  9.000E+00
      21    -1     0     0   501   502  0.000000000E+00  0.000000000E+00 -1.619369628E+02  1.619369628E+02  0.000000000E+00  0.00000E+00  9.000E+00
      25     1     1     2     0     0  1.651022945E+02  1.023298502E+01 -3.615063581E+01  2.104646053E+02  1.250000000E+02  0.00000E+00  9.000E+00
      25     1     1     2     0     0 -1.413039024E+02 -2.251211366E+01  2.190206375E+02  2.899459049E+02  1.250000000E+02  0.00000E+00  9.000E+00
      21     1     1     2   512   502 -2.379839206E+01  1.227912864E+01  5.344889522E+01  5.978231231E+01  6.743495762E-07  0.00000E+00  9.000E+00
#rwgt            1           1   4.4552973216179244E-002           1      129285           0
</event>
<event>
      5   9999 -3.79277E-02  5.62467E+01 -1.00000E+00  1.36220E-01
      21    -1     0     0   502   501  0.000000000E+00  0.000000000E+00  4.752583043E+02  4.752583043E+02  0.000000000E+00  0.00000E+00  9.000E+00
      21    -1     0     0   501   511  0.000000000E+00  0.000000000E+00 -9.071724215E+02  9.071724215E+02  0.000000000E+00  0.00000E+00  9.000E+00
      25     1     1     2     0     0 -1.472242284E+02  4.000894667E+02 -5.820212013E+00  4.443033082E+02  1.250000000E+02  0.00000E+00  9.000E+00
      25     1     1     2     0     0  1.771557610E+02 -3.524681234E+02  8.624778935E+01  4.227074909E+02  1.250000000E+02  0.00000E+00  9.000E+00
      21     1     1     2   502   511 -2.993153260E+01 -4.762134330E+01 -5.123416945E+02  5.154199267E+02  7.629394531E-06  0.00000E+00  9.000E+00
#rwgt            1           1 -0.28740273029182539                1      129452           0
</event>
<event>
      5   9999  3.79277E-02  6.23574E+01 -1.00000E+00  1.33815E-01
      21    -1     0     0   502   501  0.000000000E+00  0.000000000E+00  1.297264750E+01  1.297264750E+01  0.000000000E+00  0.00000E+00  9.000E+00
       2    -1     0     0   501     0  0.000000000E+00  0.000000000E+00 -4.085604970E+03  4.085604970E+03  0.000000000E+00  0.00000E+00  9.000E+00
      25     1     1     2     0     0  6.217205128E+01  8.034674576E+01 -9.233332093E+02  9.372780692E+02  1.250000000E+02  0.00000E+00  9.000E+00
      25     1     1     2     0     0 -7.431198131E+01 -1.415110386E+02 -1.988268953E+03  1.998596026E+03  1.250000000E+02  0.00000E+00  9.000E+00
       2     1     1     2   502     0  1.213993003E+01  6.116429288E+01 -1.161030161E+03  1.162703523E+03  3.051757812E-05  0.00000E+00  9.000E+00
#rwgt            1           1   3.9053916025479238E-002           1      129561           0
</event>
<event>
      5   9999  3.79277E-02  5.93352E+01 -1.00000E+00  1.34962E-01
      21    -1     0     0   502   511  0.000000000E+00  0.000000000E+00  2.012817929E+02  2.012817929E+02  0.000000000E+00  0.00000E+00  9.000E+00
      21    -1     0     0   501   502  0.000000000E+00  0.000000000E+00 -1.166129193E+03  1.166129193E+03  0.000000000E+00  0.00000E+00  9.000E+00
      25     1     1     2     0     0  1.852714226E+01  1.361709009E+02 -8.958412517E+02  9.149001681E+02  1.250000000E+02  0.00000E+00  9.000E+00
      25     1     1     2     0     0  3.611114531E+01 -1.130337400E+02 -2.262641647E+02  2.844312104E+02  1.250000000E+02  0.00000E+00  9.000E+00
      21     1     1     2   501   511 -5.463828757E+01 -2.313716082E+01  1.572580165E+02  1.680796074E+02  6.031565972E-06  0.00000E+00  9.000E+00
#rwgt            1           1   3.7382523124644490E-002           1      129663           0
</event>
<event>
      5   9999  3.79277E-02  6.34564E+01 -1.00000E+00  1.33416E-01
       1    -1     0     0   502     0  0.000000000E+00  0.000000000E+00  7.456668837E+02  7.456668837E+02  0.000000000E+00  0.00000E+00  9.000E+00
      21    -1     0     0   501   502  0.000000000E+00  0.000000000E+00 -1.169980026E+02  1.169980026E+02  0.000000000E+00  0.00000E+00  9.000E+00
      25     1     1     2     0     0 -7.652390807E+01 -5.687907613E+01  1.580791320E+01  1.580064174E+02  1.250000000E+02  0.00000E+00  9.000E+00
      25     1     1     2     0     0  1.397069391E+02  5.099558151E+01  1.726792088E+02  2.599263114E+02  1.250000000E+02  0.00000E+00  9.000E+00
       1     1     1     2   501     0 -6.318303105E+01  5.883494614E+00  4.401817591E+02  4.447321575E+02  5.394796609E-06  0.00000E+00  9.000E+00
#rwgt            1           1   3.6111467670016884E-002           1      130207           0
</event>
<event>
      5   9999  3.79277E-02  1.77603E+01 -1.00000E+00  1.70740E-01
      -4    -1     0     0     0   501  0.000000000E+00  0.000000000E+00  6.652820171E+01  6.652820171E+01  0.000000000E+00  0.00000E+00  9.000E+00
      21    -1     0     0   501   502  0.000000000E+00  0.000000000E+00 -1.951748063E+03  1.951748063E+03  0.000000000E+00  0.00000E+00  9.000E+00
      25     1     1     2     0     0 -1.203019465E+02  4.268980669E+01 -1.367811230E+03  1.379430150E+03  1.250000000E+02  0.00000E+00  9.000E+00
      25     1     1     2     0     0  1.119441932E+02 -5.836066221E+01 -5.627623735E+02  5.901389314E+02  1.250000000E+02  0.00000E+00  9.000E+00
      -4     1     1     2     0   502  8.357753270E+00  1.567085552E+01  4.535374232E+01  4.870718320E+01  9.536743164E-07  0.00000E+00  9.000E+00
#rwgt            1           1  0.13166881402309005                1      130492           0
</event>
<event>
      5   9999  3.79277E-02  3.10145E+01 -1.00000E+00  1.52043E-01
      21    -1     0     0   511   501  0.000000000E+00  0.000000000E+00  2.762143789E+02  2.762143789E+02  0.000000000E+00  0.00000E+00  9.000E+00
      21    -1     0     0   501   502  0.000000000E+00  0.000000000E+00 -2.085595514E+02  2.085595514E+02  0.000000000E+00  0.00000E+00  9.000E+00
      25     1     1     2     0     0  1.373394255E+02  5.900997483E+01  1.358174927E+02  2.375198650E+02  1.250000000E+02  0.00000E+00  9.000E+00
      25     1     1     2     0     0 -1.398815270E+02 -2.809982371E+01 -8.936555769E+01  2.096846313E+02  1.250000000E+02  0.00000E+00  9.000E+00
      21     1     1     2   511   502  2.542101480E+00 -3.091015111E+01  2.120289253E+01  3.756943403E+01  5.840038640E-07  0.00000E+00  9.000E+00
#rwgt            1           1   5.2408087501099376E-002           1      130735           0
</event>
<event>
      5   9999  3.79277E-02  5.67138E+01 -1.00000E+00  1.36024E-01
      21    -1     0     0   502   512  0.000000000E+00  0.000000000E+00  7.767606493E+02  7.767606493E+02  0.000000000E+00  0.00000E+00  9.000E+00
      21    -1     0     0   501   502  0.000000000E+00  0.000000000E+00 -1.163375822E+02  1.163375822E+02  0.000000000E+00  0.00000E+00  9.000E+00
      25     1     1     2     0     0 -1.611388285E+02 -5.014068513E+01  4.626497648E+02  5.080842600E+02  1.250000000E+02  0.00000E+00  9.000E+00
      25     1     1     2     0     0  1.951220864E+02  4.735949690E+00  6.512706359E+01  2.407521386E+02  1.250000000E+02  0.00000E+00  9.000E+00
      21     1     1     2   501   512 -3.398325789E+01  4.540473544E+01  1.326462387E+02  1.442618330E+02  0.000000000E+00  0.00000E+00  9.000E+00
#rwgt            1           1   3.6077577419957166E-002           1      130884           0
</event>
<event>
      5   9999  3.79277E-02  3.71489E+01 -1.00000E+00  1.46860E-01
      21    -1     0     0   511   501  0.000000000E+00  0.000000000E+00  1.955951028E+02  1.955951028E+02  0.000000000E+00  0.00000E+00  9.000E+00
      21    -1     0     0   501   502  0.000000000E+00  0.000000000E+00 -5.374968322E+02  5.374968322E+02  0.000000000E+00  0.00000E+00  9.000E+00
      25     1     1     2     0     0 -9.188007764E+01  9.886028719E+01 -4.587582502E+01  1.895913932E+02  1.250000000E+02  0.00000E+00  9.000E+00
      25     1     1     2     0     0  5.473198559E+01 -9.910161923E+01 -3.994580729E+02  4.335994387E+02  1.250000000E+02  0.00000E+00  9.000E+00
      21     1     1     2   511   502  3.714809205E+01  2.413320451E-01  1.034321686E+02  1.099011032E+02  1.907348633E-06  0.00000E+00  9.000E+00
#rwgt            1           1   4.7818664556793809E-002           1      131024           0
</event>
<event>
      5   9999  3.79277E-02  5.27753E+01 -1.00000E+00  1.37750E-01
      21    -1     0     0   512   501  0.000000000E+00  0.000000000E+00  2.582051543E+02  2.582051543E+02  0.000000000E+00  0.00000E+00  9.000E+00
      21    -1     0     0   501   502  0.000000000E+00  0.000000000E+00 -3.329677788E+02  3.329677788E+02  0.000000000E+00  0.00000E+00  9.000E+00
      25     1     1     2     0     0 -1.155022246E+02 -1.531061509E+02  1.263925301E+02  2.615001511E+02  1.250000000E+02  0.00000E+00  9.000E+00
      25     1     1     2     0     0  1.010764905E+02  1.023406770E+02 -2.008899210E+02  2.768967885E+02  1.250000000E+02  0.00000E+00  9.000E+00
      21     1     1     2   512   502  1.442573409E+01  5.076547389E+01 -2.652336034E-01  5.277599352E+01  1.078720830E-06  0.00000E+00  9.000E+00
#rwgt            1           1   2.5359525176424196E-002           1      131098           0
</event>
<event>
      5   9999  3.79277E-02  1.40281E+01 -1.00000E+00  1.80169E-01
      21    -1     0     0   502   501  0.000000000E+00  0.000000000E+00  1.254802907E+03  1.254802907E+03  0.000000000E+00  0.00000E+00  9.000E+00
      21    -1     0     0   501   511  0.000000000E+00  0.000000000E+00 -3.764171195E+01  3.764171195E+01  0.000000000E+00  0.00000E+00  9.000E+00
      25     1     1     2     0     0 -9.952505439E+01 -7.684249451E+01  9.089985394E+02  9.261281499E+02  1.250000000E+02  0.00000E+00  9.000E+00
      25     1     1     2     0     0  1.014282812E+02  6.294413958E+01  3.069088891E+02  3.522324902E+02  1.250000000E+02  0.00000E+00  9.000E+00
      21     1     1     2   502   511 -1.903226781E+00  1.389835494E+01  1.253767024E+00  1.408397933E+01  3.749056347E-07  0.00000E+00  9.000E+00
#rwgt            1           1   2.8295943434448124E-002           1      131226           0
</event>
<event>
      5   9999  3.79277E-02  2.86011E+01 -1.00000E+00  1.54494E-01
      21    -1     0     0   502   512  0.000000000E+00  0.000000000E+00  1.355904035E+03  1.355904035E+03  0.000000000E+00  0.00000E+00  9.000E+00
      21    -1     0     0   501   502  0.000000000E+00  0.000000000E+00 -4.566886062E+01  4.566886062E+01  0.000000000E+00  0.00000E+00  9.000E+00
      25     1     1     2     0     0 -3.846988631E+01 -1.747112549E+02  6.586845666E+02  6.938979125E+02  1.250000000E+02  0.00000E+00  9.000E+00
      25     1     1     2     0     0  5.138739207E+01  2.002291215E+02  5.246935611E+02  5.776337059E+02  1.250000000E+02  0.00000E+00  9.000E+00
      21     1     1     2   501   512 -1.291750576E+01 -2.551786657E+01  1.268570469E+02  1.300412774E+02  3.015782986E-06  0.00000E+00  9.000E+00
#rwgt            1           1   3.6396236042513283E-002           1      131348           0
</event>
<event>
      5   9999  3.79277E-02  8.08264E+00 -1.00000E+00  2.07089E-01
      21    -1     0     0   502   501  0.000000000E+00  0.000000000E+00  3.814615212E+02  3.814615212E+02  0.000000000E+00  0.00000E+00  9.000E+00
      21    -1     0     0   501   511  0.000000000E+00  0.000000000E+00 -1.260096830E+02  1.260096830E+02  0.000000000E+00  0.00000E+00  9.000E+00
      25     1     1     2     0     0  6.457704642E+01  8.244561967E+01 -3.627825209E+01  1.670586325E+02  1.250000000E+02  0.00000E+00  9.000E+00
      25     1     1     2     0     0 -5.673639117E+01 -8.048265356E+01  2.917561964E+02  3.323298869E+02  1.250000000E+02  0.00000E+00  9.000E+00
      21     1     1     2   502   511 -7.840655254E+00 -1.962966107E+00 -2.610606574E-02  8.082684720E+00  1.234050734E-07  0.00000E+00  9.000E+00
#rwgt            1           1   3.6308560088113423E-002           1      131512           0
</event>
<event>
      5   9999  3.79277E-02  1.60169E+01 -1.00000E+00  1.74741E-01
      21    -1     0     0   502   512  0.000000000E+00  0.000000000E+00  2.817600745E+03  2.817600745E+03  0.000000000E+00  0.00000E+00  9.000E+00
      21    -1     0     0   501   502  0.000000000E+00  0.000000000E+00 -7.258514013E+01  7.258514013E+01  0.000000000E+00  0.00000E+00  9.000E+00
      25     1     1     2     0     0  9.098591831E+00  7.313219412E+00  3.504335185E+02  3.722430905E+02  1.250000000E+02  0.00000E+00  9.000E+00
      25     1     1     2     0     0 -2.099488104E+01  3.411486998E+00  3.539098146E+00  1.268461607E+02  1.250000000E+02  0.00000E+00  9.000E+00
      21     1     1     2   501   512  1.189628921E+01 -1.072470641E+01  2.391042988E+03  2.391096634E+03  5.285799584E-05  0.00000E+00  9.000E+00
#rwgt            1           1   3.9656158446501104E-002           1      131775           0
</event>
<event>
      5   9999  3.79277E-02  5.71480E+01 -1.00000E+00  1.35843E-01
      21    -1     0     0   511   501  0.000000000E+00  0.000000000E+00  1.731569927E+03  1.731569927E+03  0.000000000E+00  0.00000E+00  9.000E+00
      21    -1     0     0   501   502  0.000000000E+00  0.000000000E+00 -2.663578987E+01  2.663578987E+01  0.000000000E+00  0.00000E+00  9.000E+00
      25     1     1     2     0     0 -1.111900239E+01 -2.362769689E+01  1.072467642E+03  1.080043399E+03  1.250000000E+02  0.00000E+00  9.000E+00
      25     1     1     2     0     0 -4.385768187E+01  8.024614396E+00  1.884968347E+02  2.305297104E+02  1.250000000E+02  0.00000E+00  9.000E+00
      21     1     1     2   511   502  5.497668426E+01  1.560308249E+01  4.439696603E+02  4.476326075E+02  5.394796609E-06  0.00000E+00  9.000E+00
#rwgt            1           1   4.3842223734359441E-002           1      131940           0
</event>
<event>
      5   9999  3.79277E-02  3.66652E+00 -1.00000E+00  2.72709E-01
      21    -1     0     0   502   501  0.000000000E+00  0.000000000E+00  8.652953359E+02  8.652953359E+02  0.000000000E+00  0.00000E+00  9.000E+00
      21    -1     0     0   501   512  0.000000000E+00  0.000000000E+00 -1.026985337E+02  1.026985337E+02  0.000000000E+00  0.00000E+00  9.000E+00
      25     1     1     2     0     0  4.861500870E+01  1.678328155E+02  7.093157359E+02  7.411376972E+02  1.250000000E+02  0.00000E+00  9.000E+00
      25     1     1     2     0     0 -5.194695841E+01 -1.693630102E+02  5.189066280E+01  2.229348708E+02  1.250000000E+02  0.00000E+00  9.000E+00
      21     1     1     2   502   512  3.331949707E+00  1.530194748E+00  1.390403586E+00  3.921301691E+00  5.771194914E-08  0.00000E+00  9.000E+00
#rwgt            1           1   8.4414627984373047E-002           1      132055           0
</event>
<event>
      5   9999  3.79277E-02  9.21780E+01 -1.00000E+00  1.25440E-01
      21    -1     0     0   502   511  0.000000000E+00  0.000000000E+00  1.396872364E+02  1.396872364E+02  0.000000000E+00  0.00000E+00  9.000E+00
      21    -1     0     0   501   502  0.000000000E+00  0.000000000E+00 -9.058283142E+02  9.058283142E+02  0.000000000E+00  0.00000E+00  9.000E+00
      25     1     1     2     0     0 -1.287861591E+02 -3.837304833E+01 -6.224628924E+02  6.489556364E+02  1.250000000E+02  0.00000E+00  9.000E+00
      25     1     1     2     0     0  2.166691333E+02  1.056352213E+01 -1.676553555E+02  3.013144861E+02  1.250000000E+02  0.00000E+00  9.000E+00
      21     1     1     2   501   511 -8.788297421E+01  2.780952620E+01  2.397717007E+01  9.524542818E+01  1.430511475E-06  0.00000E+00  9.000E+00
#rwgt            1           1   4.1094210059873376E-002           1      132477           0
</event>
<event>
      5   9999  3.79277E-02  1.06620E+02 -1.00000E+00  1.22589E-01
      21    -1     0     0   502   501  0.000000000E+00  0.000000000E+00  1.498276353E+02  1.498276353E+02  0.000000000E+00  0.00000E+00  9.000E+00
      21    -1     0     0   501   512  0.000000000E+00  0.000000000E+00 -1.841561306E+03  1.841561306E+03  0.000000000E+00  0.00000E+00  9.000E+00
      25     1     1     2     0     0 -2.325390565E+02 -1.271786055E+02 -2.737480796E+02  4.010134930E+02  1.250000000E+02  0.00000E+00  9.000E+00
      25     1     1     2     0     0  3.362642049E+02  1.025031366E+02 -3.327897594E+02  4.999545304E+02  1.250000000E+02  0.00000E+00  9.000E+00
      21     1     1     2   502   512 -1.037251484E+02  2.467546880E+01 -1.085195832E+03  1.090420918E+03  0.000000000E+00  0.00000E+00  9.000E+00
#rwgt            1           1   2.6223821072828123E-002           1      132584           0
</event>
<event>
      5   9999  3.79277E-02  2.66704E+01 -1.00000E+00  1.56675E-01
      21    -1     0     0   502   501  0.000000000E+00  0.000000000E+00  4.248496217E+02  4.248496217E+02  0.000000000E+00  0.00000E+00  9.000E+00
      21    -1     0     0   511   502  0.000000000E+00  0.000000000E+00 -1.326803036E+02  1.326803036E+02  0.000000000E+00  0.00000E+00  9.000E+00
      25     1     1     2     0     0 -9.898103878E+01 -4.942211219E+01 -1.434767864E+01  1.675429709E+02  1.250000000E+02  0.00000E+00  9.000E+00
      25     1     1     2     0     0  7.275749442E+01  5.428399747E+01  3.234129530E+02  3.584150437E+02  1.250000000E+02  0.00000E+00  9.000E+00
      21     1     1     2   511   501  2.622354436E+01 -4.861885275E+00 -1.689595622E+01  3.157191068E+01  4.129530925E-07  0.00000E+00  9.000E+00
#rwgt            1           1   4.3631305225924760E-002           1      132678           0
</event>
<event>
      5   9999  3.79277E-02  3.87035E+01 -1.00000E+00  1.45733E-01
      21    -1     0     0   502   512  0.000000000E+00  0.000000000E+00  1.416429279E+02  1.416429279E+02  0.000000000E+00  0.00000E+00  9.000E+00
      21    -1     0     0   501   502  0.000000000E+00  0.000000000E+00 -3.734593243E+02  3.734593243E+02  0.000000000E+00  0.00000E+00  9.000E+00
      25     1     1     2     0     0  9.206068448E+01 -8.266879244E+00 -2.826798286E+02  3.226087358E+02  1.250000000E+02  0.00000E+00  9.000E+00
      25     1     1     2     0     0 -6.261893525E+01  3.338947322E+01  2.487915600E+01  1.458765244E+02  1.250000000E+02  0.00000E+00  9.000E+00
      21     1     1     2   501   512 -2.944174923E+01 -2.512259398E+01  2.598427624E+01  4.661699194E+01  7.539457465E-07  0.00000E+00  9.000E+00
#rwgt            1           1   3.8474115833506524E-002           1      132874           0
</event>
<event>
      5   9999  3.79277E-02  2.92649E+02 -1.00000E+00  1.05943E-01
       2    -1     0     0   502     0  0.000000000E+00  0.000000000E+00  4.419382387E+03  4.419382387E+03  0.000000000E+00  0.00000E+00  9.000E+00
      21    -1     0     0   501   502  0.000000000E+00  0.000000000E+00 -1.270102688E+02  1.270102688E+02  0.000000000E+00  0.00000E+00  9.000E+00
      25     1     1     2     0     0 -1.619163591E+02  3.002083560E+02  5.059520054E+02  6.228598528E+02  1.250000000E+02  0.00000E+00  9.000E+00
      25     1     1     2     0     0  9.371113137E+01 -1.561853963E+01  3.518499757E+01  1.608996550E+02  1.250000000E+02  0.00000E+00  9.000E+00
       2     1     1     2   501     0  6.820522773E+01 -2.845898164E+02  3.751235115E+03  3.762633148E+03  4.315837288E-05  0.00000E+00  9.000E+00
#rwgt            1           1   3.6978243845826174E-002           1      133093           0
</event>
<event>
      5   9999  3.79277E-02  3.76146E+01 -1.00000E+00  1.46516E-01
      21    -1     0     0   502   501  0.000000000E+00  0.000000000E+00  1.560046133E+03  1.560046133E+03  0.000000000E+00  0.00000E+00  9.000E+00
      21    -1     0     0   511   502  0.000000000E+00  0.000000000E+00 -2.241103998E+02  2.241103998E+02  0.000000000E+00  0.00000E+00  9.000E+00
      25     1     1     2     0     0  1.725031510E+01 -7.812656359E+01  1.303162095E+03  1.311585979E+03  1.250000000E+02  0.00000E+00  9.000E+00
      25     1     1     2     0     0 -3.966881344E+01  1.083303175E+02  2.219813719E+02  2.796601543E+02  1.250000000E+02  0.00000E+00  9.000E+00
      21     1     1     2   511   501  2.241849834E+01 -3.020375389E+01 -1.892077338E+02  1.929103998E+02  4.672030912E-06  0.00000E+00  9.000E+00
#rwgt            1           1   5.4118266785491823E-002           1      133187           0
</event>
<event>
      5   9999  3.79277E-02  6.28723E+01 -1.00000E+00  1.33627E-01
      21    -1     0     0   502   512  0.000000000E+00  0.000000000E+00  1.739750984E+02  1.739750984E+02  0.000000000E+00  0.00000E+00  9.000E+00
      21    -1     0     0   501   502  0.000000000E+00  0.000000000E+00 -3.226303024E+02  3.226303024E+02  0.000000000E+00  0.00000E+00  9.000E+00
      25     1     1     2     0     0 -1.447735610E+02 -6.781283537E+01 -1.718929540E+02  2.659514095E+02  1.250000000E+02  0.00000E+00  9.000E+00
      25     1     1     2     0     0  8.301329199E+01  5.604037975E+01  4.096072121E+01  1.653315200E+02  1.250000000E+02  0.00000E+00  9.000E+00
      21     1     1     2   501   512  6.176026902E+01  1.177245562E+01 -1.772297130E+01  6.532247127E+01  8.920806376E-07  0.00000E+00  9.000E+00
#rwgt            1           1   9.6724613561547879E-002           1      133339           0
</event>
<event>
      5   9999  3.79277E-02  3.63431E+01 -1.00000E+00  1.47471E-01
      21    -1     0     0   502   511  0.000000000E+00  0.000000000E+00  3.396522817E+02  3.396522817E+02  0.000000000E+00  0.00000E+00  9.000E+00
      21    -1     0     0   501   502  0.000000000E+00  0.000000000E+00 -2.636847747E+02  2.636847747E+02  0.000000000E+00  0.00000E+00  9.000E+00
      25     1     1     2     0     0  1.970352239E+02  1.430953152E+02  2.925034641E+00  2.737383870E+02  1.250000000E+02  0.00000E+00  9.000E+00
      25     1     1     2     0     0 -2.043476607E+02 -1.074954666E+02  1.739738767E+01  2.631366772E+02  1.250000000E+02  0.00000E+00  9.000E+00
      21     1     1     2   501   511  7.312436801E+00 -3.559984862E+01  5.564508474E+01  6.646199221E+01  9.536743164E-07  0.00000E+00  9.000E+00
#rwgt            1           1  0.11998188446538507                1      133507           0
</event>
<event>
      5   9999  3.79277E-02  6.65636E+00 -1.00000E+00  2.18690E-01
      21    -1     0     0   512   501  0.000000000E+00  0.000000000E+00  1.301426645E+02  1.301426645E+02  0.000000000E+00  0.00000E+00  9.000E+00
      21    -1     0     0   501   502  0.000000000E+00  0.000000000E+00 -3.146613120E+02  3.146613120E+02  0.000000000E+00  0.00000E+00  9.000E+00
      25     1     1     2     0     0  2.101605139E+01 -1.839624416E+01 -1.784018591E+02  2.196185774E+02  1.250000000E+02  0.00000E+00  9.000E+00
      25     1     1     2     0     0 -2.111906910E+01  2.505180664E+01 -7.935604164E+01  1.516442859E+02  1.250000000E+02  0.00000E+00  9.000E+00
      21     1     1     2   512   502  1.030177075E-01 -6.655562476E+00  7.323925321E+01  7.354111323E+01  9.536743164E-07  0.00000E+00  9.000E+00
#rwgt            1           1   1.8536151255884051E-002           1      133654           0
</event>
<event>
      5   9999 -3.79277E-02  4.84973E+01 -1.00000E+00  1.39836E-01
      21    -1     0     0   511   501  0.000000000E+00  0.000000000E+00  5.911331763E+01  5.911331763E+01  0.000000000E+00  0.00000E+00  9.000E+00
      21    -1     0     0   501   502  0.000000000E+00  0.000000000E+00 -1.107325114E+03  1.107325114E+03  0.000000000E+00  0.00000E+00  9.000E+00
      25     1     1     2     0     0 -6.970894571E+01 -1.129203723E+02 -2.737559394E+02  3.289037275E+02  1.250000000E+02  0.00000E+00  9.000E+00
      25     1     1     2     0     0  9.230629649E+01  7.000943022E+01 -7.702221778E+02  7.888529494E+02  1.250000000E+02  0.00000E+00  9.000E+00
      21     1     1     2   511   502 -2.259735078E+01  4.291094211E+01 -4.233679331E+00  4.868175485E+01  7.420718430E-07  0.00000E+00  9.000E+00
#rwgt            1           1  -8.5098096949059732E-002           1      133846           0
</event>
<event>
      5   9999  3.79277E-02  1.41110E+01 -1.00000E+00  1.79920E-01
      21    -1     0     0   502   501  0.000000000E+00  0.000000000E+00  6.642755791E+01  6.642755791E+01  0.000000000E+00  0.00000E+00  9.000E+00
      21    -1     0     0   512   502  0.000000000E+00  0.000000000E+00 -5.655471185E+02  5.655471185E+02  0.000000000E+00  0.00000E+00  9.000E+00
      25     1     1     2     0     0  1.260477472E+02 -3.754054342E+01 -1.793949173E+02  2.551565467E+02  1.250000000E+02  0.00000E+00  9.000E+00
      25     1     1     2     0     0 -1.255763115E+02  5.164364062E+01 -2.875056385E+02  3.416445050E+02  1.250000000E+02  0.00000E+00  9.000E+00
      21     1     1     2   512   501 -4.714357288E-01 -1.410309720E+01 -3.221900489E+01  3.517362475E+01  4.768371582E-07  0.00000E+00  9.000E+00
#rwgt            1           1   4.5207934786012913E-002           1      133949           0
</event>
<event>
      5   9999  3.79277E-02  3.16273E+01 -1.00000E+00  1.51463E-01
      21    -1     0     0   502   501  0.000000000E+00  0.000000000E+00  3.445282168E+02  3.445282168E+02  0.000000000E+00  0.00000E+00  9.000E+00
      21    -1     0     0   511   502  0.000000000E+00  0.000000000E+00 -1.703033046E+02  1.703033046E+02  0.000000000E+00  0.00000E+00  9.000E+00
      25     1     1     2     0     0  1.584312957E+02  5.690072194E+01  4.733667451E+00  2.097273831E+02  1.250000000E+02  0.00000E+00  9.000E+00
      25     1     1     2     0     0 -1.395462257E+02 -8.227074038E+01  1.792303927E+02  2.720113187E+02  1.250000000E+02  0.00000E+00  9.000E+00
      21     1     1     2   511   501 -1.888506992E+01  2.537001844E+01 -9.739147972E+00  3.309281954E+01  6.419616708E-07  0.00000E+00  9.000E+00
#rwgt            1           1   3.2042154637909347E-002           1      134178           0
</event>
<event>
      5   9999  3.79277E-02  1.57474E+01 -1.00000E+00  1.75417E-01
      21    -1     0     0   512   501  0.000000000E+00  0.000000000E+00  3.138915532E+02  3.138915532E+02  0.000000000E+00  0.00000E+00  9.000E+00
      21    -1     0     0   501   502  0.000000000E+00  0.000000000E+00 -1.130654282E+02  1.130654282E+02  0.000000000E+00  0.00000E+00  9.000E+00
      25     1     1     2     0     0  1.177229803E+02  3.763001107E+01  1.027851578E+02  2.036283538E+02  1.250000000E+02  0.00000E+00  9.000E+00
      25     1     1     2     0     0 -1.188916648E+02 -5.333401027E+01  7.523595177E+01  1.956149101E+02  1.250000000E+02  0.00000E+00  9.000E+00
      21     1     1     2   512   502  1.168684504E+00  1.570399921E+01  2.280501541E+01  2.771371758E+01  0.000000000E+00  0.00000E+00  9.000E+00
#rwgt            1           1   4.3072395562119656E-002           1      134378           0
</event>
<event>
      5   9999  3.79277E-02  6.54760E+00 -1.00000E+00  2.19738E-01
      21    -1     0     0   502   511  0.000000000E+00  0.000000000E+00  6.016052422E+02  6.016052422E+02  0.000000000E+00  0.00000E+00  9.000E+00
      21    -1     0     0   501   502  0.000000000E+00  0.000000000E+00 -5.501731684E+01  5.501731684E+01  0.000000000E+00  0.00000E+00  9.000E+00
      25     1     1     2     0     0 -1.291100067E+02  1.132392734E+01  2.757139479E+02  3.293035169E+02  1.250000000E+02  0.00000E+00  9.000E+00
      25     1     1     2     0     0  1.244407576E+02 -1.591405144E+01  2.589925540E+02  3.137529318E+02  1.250000000E+02  0.00000E+00  9.000E+00
      21     1     1     2   501   511  4.669249123E+00  4.590124099E+00  1.188142340E+01  1.356611030E+01  0.000000000E+00  0.00000E+00  9.000E+00
#rwgt            1           1   7.8030103647159149E-002           1      134540           0
</event>
<event>
      5   9999  3.79277E-02  3.08491E+01 -1.00000E+00  1.52203E-01
      21    -1     0     0   512   501  0.000000000E+00  0.000000000E+00  3.143610752E+02  3.143610752E+02  0.000000000E+00  0.00000E+00  9.000E+00
      21    -1     0     0   501   502  0.000000000E+00  0.000000000E+00 -1.963003841E+02  1.963003841E+02  0.000000000E+00  0.00000E+00  9.000E+00
      25     1     1     2     0     0  1.445428877E+02  1.141293070E+02 -3.702251993E+01  2.256408919E+02  1.250000000E+02  0.00000E+00  9.000E+00
      25     1     1     2     0     0 -1.142962917E+02 -1.080619019E+02  1.062980181E+02  2.272999903E+02  1.250000000E+02  0.00000E+00  9.000E+00
      21     1     1     2   512   502 -3.024659594E+01 -6.067405109E+00  4.878519292E+01  5.772057708E+01  6.743495762E-07  0.00000E+00  9.000E+00
#rwgt            1           1   4.3856803121852708E-002           1      134816           0
</event>
<event>
      5   9999  3.79277E-02  4.69417E+01 -1.00000E+00  1.40658E-01
      21    -1     0     0   511   501  0.000000000E+00  0.000000000E+00  6.343609236E+02  6.343609236E+02  0.000000000E+00  0.00000E+00  9.000E+00
      21    -1     0     0   501   502  0.000000000E+00  0.000000000E+00 -2.270152041E+02  2.270152041E+02  0.000000000E+00  0.00000E+00  9.000E+00
      25     1     1     2     0     0  4.366421193E+01  1.847587878E+02 -2.895142758E+01  2.291409135E+02  1.250000000E+02  0.00000E+00  9.000E+00
      25     1     1     2     0     0  3.267371530E+00 -1.857330960E+02  3.312536392E+01  2.263398958E+02  1.250000000E+02  0.00000E+00  9.000E+00
      21     1     1     2   511   502 -4.693158346E+01  9.743082683E-01  4.031717832E+02  4.058953185E+02  5.394796609E-06  0.00000E+00  9.000E+00
#rwgt            1           1   4.1439389521355098E-002           1      135023           0
</event>
<event>
      5   9999  3.79277E-02  3.56021E+01 -1.00000E+00  1.48049E-01
      21    -1     0     0   502   512  0.000000000E+00  0.000000000E+00  2.633314677E+01  2.633314677E+01  0.000000000E+00  0.00000E+00  9.000E+00
      21    -1     0     0   501   502  0.000000000E+00  0.000000000E+00 -1.128044557E+03  1.128044557E+03  0.000000000E+00  0.00000E+00  9.000E+00
      25     1     1     2     0     0  1.729837748E+01  8.130159797E+01 -6.542980819E+02  6.712973735E+02  1.250000000E+02  0.00000E+00  9.000E+00
      25     1     1     2     0     0  1.721756070E+01 -7.257479786E+01 -3.377302171E+02  3.677638444E+02  1.250000000E+02  0.00000E+00  9.000E+00
      21     1     1     2   501   512 -3.451593817E+01 -8.726800107E+00 -1.096831112E+02  1.153164858E+02  2.697398305E-06  0.00000E+00  9.000E+00
#rwgt            1           1   3.6844190346459811E-002           1      135224           0
</event>
<event>
      5   9999  3.99104E-02  1.07669E+02 -1.00000E+00  1.22402E-01
      21    -1     0     0   502   501  0.000000000E+00  0.000000000E+00  9.745825905E+01  9.745825905E+01  0.000000000E+00  0.00000E+00  9.000E+00
       2    -1     0     0   501     0  0.000000000E+00  0.000000000E+00 -2.284933958E+03  2.284933958E+03  0.000000000E+00  0.00000E+00  9.000E+00
      25     1     1     2     0     0  1.819549752E+02 -7.201470201E+01 -1.510660414E+03  1.528402309E+03  1.250000000E+02  0.00000E+00  9.000E+00
      25     1     1     2     0     0 -2.882073690E+02  8.942469965E+01 -2.432457135E+02  4.072514476E+02  1.250000000E+02  0.00000E+00  9.000E+00
       2     1     1     2   502     0  1.062523938E+02 -1.740999764E+01 -4.335695717E+02  4.467384612E+02  7.629394531E-06  0.00000E+00  9.000E+00
#rwgt            1           1  0.42374191518004140                1      135280           0
</event>
<event>
      5   9999  3.79277E-02  7.10419E+01 -1.00000E+00  1.30897E-01
      21    -1     0     0   502   511  0.000000000E+00  0.000000000E+00  1.099233742E+02  1.099233742E+02  0.000000000E+00  0.00000E+00  9.000E+00
      21    -1     0     0   501   502  0.000000000E+00  0.000000000E+00 -8.748203584E+02  8.748203584E+02  0.000000000E+00  0.00000E+00  9.000E+00
      25     1     1     2     0     0  3.384681666E+01  2.041442370E+02 -3.498759611E+02  4.252748107E+02  1.250000000E+02  0.00000E+00  9.000E+00
      25     1     1     2     0     0  1.397234561E+01 -1.516058965E+02 -4.416581182E+02  4.835974231E+02  1.250000000E+02  0.00000E+00  9.000E+00
      21     1     1     2   501   511 -4.781916227E+01 -5.253834048E+01  2.663709499E+01  7.587149880E+01  1.685873940E-06  0.00000E+00  9.000E+00
#rwgt            1           1   2.4841721765339147E-002           1      135362           0
</event>
<event>
      5   9999  3.79277E-02  6.28999E+01 -1.00000E+00  1.33617E-01
      21    -1     0     0   512   501  0.000000000E+00  0.000000000E+00  2.807259703E+02  2.807259703E+02  0.000000000E+00  0.00000E+00  9.000E+00
      21    -1     0     0   501   502  0.000000000E+00  0.000000000E+00 -2.943974846E+02  2.943974846E+02  0.000000000E+00  0.00000E+00  9.000E+00
      25     1     1     2     0     0  6.425627170E+00 -1.682386180E+02 -3.480872997E+01  2.125609770E+02  1.250000000E+02  0.00000E+00  9.000E+00
      25     1     1     2     0     0 -5.701518412E+01  2.056163737E+02 -6.519879581E+01  2.557434404E+02  1.250000000E+02  0.00000E+00  9.000E+00
      21     1     1     2   512   502  5.058955695E+01 -3.737775565E+01  8.633601142E+01  1.068190374E+02  1.348699152E-06  0.00000E+00  9.000E+00
#rwgt            1           1   3.0007103441202956E-002           1      135441           0
</event>
<event>
      5   9999  3.79277E-02  1.23091E+02 -1.00000E+00  1.19901E-01
      21    -1     0     0   502   501  0.000000000E+00  0.000000000E+00  5.245532403E+02  5.245532403E+02  0.000000000E+00  0.00000E+00  9.000E+00
      21    -1     0     0   511   502  0.000000000E+00  0.000000000E+00 -2.507135004E+02  2.507135004E+02  0.000000000E+00  0.00000E+00  9.000E+00
      25     1     1     2     0     0  1.479381903E+02  3.847950394E+01  3.625047357E+02  4.127966374E+02  1.250000000E+02  0.00000E+00  9.000E+00
      25     1     1     2     0     0 -1.307210536E+02  8.340164547E+01  1.747647235E+01  1.999356282E+02  1.250000000E+02  0.00000E+00  9.000E+00
      21     1     1     2   511   501 -1.721713668E+01 -1.218811494E+02 -1.061414682E+02  1.625344752E+02  1.907348633E-06  0.00000E+00  9.000E+00
#rwgt            1           1   8.1758545314269293E-002           1      135505           0
</event>
<event>
      5   9999  3.79277E-02  1.02538E+02 -1.00000E+00  1.23340E-01
      21    -1     0     0   502   501  0.000000000E+00  0.000000000E+00  7.439077397E+01  7.439077397E+01  0.000000000E+00  0.00000E+00  9.000E+00
       1    -1     0     0   501     0  0.000000000E+00  0.000000000E+00 -1.411629559E+03  1.411629559E+03  0.000000000E+00  0.00000E+00  9.000E+00
      25     1     1     2     0     0 -9.945152556E+01 -1.702996000E+02 -2.987284326E+02  3.791519961E+02  1.250000000E+02  0.00000E+00  9.000E+00
      25     1     1     2     0     0  1.823679877E+01  2.328951000E+02 -5.895721781E+02  6.463691372E+02  1.250000000E+02  0.00000E+00  9.000E+00
       1     1     1     2   502     0  8.121472679E+01 -6.259549995E+01 -4.489381739E+02  4.604991992E+02  0.000000000E+00  0.00000E+00  9.000E+00
#rwgt            1           1   3.6281065224145301E-002           1      135585           0
</event>
<event>
      5   9999  3.79277E-02  2.91691E+01 -1.00000E+00  1.53892E-01
      21    -1     0     0   502   501  0.000000000E+00  0.000000000E+00  1.042420609E+03  1.042420609E+03  0.000000000E+00  0.00000E+00  9.000E+00
      21    -1     0     0   511   502  0.000000000E+00  0.000000000E+00 -5.482665975E+01  5.482665975E+01  0.000000000E+00  0.00000E+00  9.000E+00
      25     1     1     2     0     0 -6.535307015E+01 -1.424939671E+02  2.649121716E+02  3.322333714E+02  1.250000000E+02  0.00000E+00  9.000E+00
      25     1     1     2     0     0  9.439461615E+01  1.397692067E+02  6.899029164E+02  7.211357770E+02  1.250000000E+02  0.00000E+00  9.000E+00
      21     1     1     2   511   501 -2.904154600E+01  2.724760421E+00  3.277886161E+01  4.387812077E+01  6.743495762E-07  0.00000E+00  9.000E+00
#rwgt            1           1   3.1445078993482409E-002           1      135682           0
</event>
<event>
      5   9999  3.79277E-02  1.03541E+02 -1.00000E+00  1.23152E-01
      21    -1     0     0   502   501  0.000000000E+00  0.000000000E+00  2.732224605E+02  2.732224605E+02  0.000000000E+00  0.00000E+00  9.000E+00
      -1    -1     0     0     0   502  0.000000000E+00  0.000000000E+00 -9.848597992E+02  9.848597992E+02  0.000000000E+00  0.00000E+00  9.000E+00
      25     1     1     2     0     0 -1.805357923E+02 -1.508287755E+02  5.448040700E+01  2.719110269E+02  1.250000000E+02  0.00000E+00  9.000E+00
      25     1     1     2     0     0  8.905366858E+01  1.993230826E+02 -4.243566950E+01  2.551196449E+02  1.250000000E+02  0.00000E+00  9.000E+00
      -1     1     1     2     0   501  9.148212374E+01 -4.849430713E+01 -7.236820762E+02  7.310515879E+02  1.321449896E-05  0.00000E+00  9.000E+00
#rwgt            2          10   1.3123659339808855E-004           1      135802           0
</event>
<event>
      5   9999  3.79277E-02  1.63712E+01 -1.00000E+00  1.73878E-01
      21    -1     0     0   502   501  0.000000000E+00  0.000000000E+00  4.234773725E+02  4.234773725E+02  0.000000000E+00  0.00000E+00  9.000E+00
      21    -1     0     0   501   511  0.000000000E+00  0.000000000E+00 -3.428789761E+02  3.428789761E+02  0.000000000E+00  0.00000E+00  9.000E+00
      25     1     1     2     0     0 -2.571663051E+02 -5.858932510E+01  2.482017792E+02  3.831401058E+02  1.250000000E+02  0.00000E+00  9.000E+00
      25     1     1     2     0     0  2.641525022E+02  7.339499138E+01 -1.059021620E+02  3.193800825E+02  1.250000000E+02  0.00000E+00  9.000E+00
      21     1     1     2   502   511 -6.986197143E+00 -1.480566629E+01 -6.170122088E+01  6.383616031E+01  9.536743164E-07  0.00000E+00  9.000E+00
#rwgt            1           1   4.0506491682183975E-002           1      135821           0
</event>
<event>
      5   9999  3.79277E-02  2.27409E+01 -1.00000E+00  1.61895E-01
      21    -1     0     0   502   501  0.000000000E+00  0.000000000E+00  3.568045055E+02  3.568045055E+02  0.000000000E+00  0.00000E+00  9.000E+00
      21    -1     0     0   512   502  0.000000000E+00  0.000000000E+00 -2.782700848E+02  2.782700848E+02  0.000000000E+00  0.00000E+00  9.000E+00
      25     1     1     2     0     0  5.290611565E+01  3.687366605E+01 -9.913277216E+01  1.720785601E+02  1.250000000E+02  0.00000E+00  9.000E+00
      25     1     1     2     0     0 -4.660789416E+01 -5.872501841E+01  3.026712998E+02  3.359402317E+02  1.250000000E+02  0.00000E+00  9.000E+00
      21     1     1     2   512   501 -6.298221489E+00  2.185135236E+01 -1.250041069E+02  1.270557985E+02  1.907348633E-06  0.00000E+00  9.000E+00
#rwgt            1           1   2.6942291007206704E-002           1      136125           0
</event>
<event>
      5   9999  3.79277E-02  3.57443E+01 -1.00000E+00  1.47937E-01
      21    -1     0     0   502   501  0.000000000E+00  0.000000000E+00  2.674885305E+02  2.674885305E+02  0.000000000E+00  0.00000E+00  9.000E+00
      21    -1     0     0   501   511  0.000000000E+00  0.000000000E+00 -4.217067501E+02  4.217067501E+02  0.000000000E+00  0.00000E+00  9.000E+00
      25     1     1     2     0     0  1.553290896E+02 -1.756231434E+02  4.804672626E+01  2.700075971E+02  1.250000000E+02  0.00000E+00  9.000E+00
      25     1     1     2     0     0 -1.747480693E+02  2.056324117E+02 -1.047169200E+02  3.152970184E+02  1.250000000E+02  0.00000E+00  9.000E+00
      21     1     1     2   502   511  1.941897961E+01 -3.000926829E+01 -9.754802588E+01  1.038906651E+02  1.348699152E-06  0.00000E+00  9.000E+00
#rwgt            1           1   3.8360431992920371E-002           1      136272           0
</event>
<event>
      5   9999  3.79277E-02  2.16410E+01 -1.00000E+00  1.63592E-01
      21    -1     0     0   502   512  0.000000000E+00  0.000000000E+00  2.016637571E+02  2.016637571E+02  0.000000000E+00  0.00000E+00  9.000E+00
      21    -1     0     0   501   502  0.000000000E+00  0.000000000E+00 -4.836741130E+02  4.836741130E+02  0.000000000E+00  0.00000E+00  9.000E+00
      25     1     1     2     0     0  2.467179401E+02 -1.105832352E+02 -2.341276339E+02  3.788655999E+02  1.250000000E+02  0.00000E+00  9.000E+00
      25     1     1     2     0     0 -2.251328610E+02  1.090286817E+02 -5.203235756E+01  2.844370313E+02  1.250000000E+02  0.00000E+00  9.000E+00
      21     1     1     2   501   512 -2.158507909E+01  1.554553469E+00  4.149635502E+00  2.203523884E+01  1.460009660E-07  0.00000E+00  9.000E+00
#rwgt            1           1   3.3982725604629525E-002           1      136462           0
</event>
<event>
      5   9999  3.79277E-02  2.25443E+01 -1.00000E+00  1.62189E-01
      21    -1     0     0   502   501  0.000000000E+00  0.000000000E+00  8.129031471E+02  8.129031471E+02  0.000000000E+00  0.00000E+00  9.000E+00
      21    -1     0     0   501   511  0.000000000E+00  0.000000000E+00 -8.650859258E+01  8.650859258E+01  0.000000000E+00  0.00000E+00  9.000E+00
      25     1     1     2     0     0  6.479797820E+01 -2.414872930E+01  2.703217272E+00  1.428784326E+02  1.250000000E+02  0.00000E+00  9.000E+00
      25     1     1     2     0     0 -8.335179849E+01  1.134235353E+01  7.175073909E+02  7.331562094E+02  1.250000000E+02  0.00000E+00  9.000E+00
      21     1     1     2   502   511  1.855382029E+01  1.280637577E+01  6.183946323E+00  2.337709776E+01  2.665600750E-07  0.00000E+00  9.000E+00
#rwgt            1           1   4.4219687203821439E-002           1      136867           0
</event>
<event>
      5   9999  3.79277E-02  5.66775E+01 -1.00000E+00  1.36039E-01
      21    -1     0     0   502   512  0.000000000E+00  0.000000000E+00  1.515575960E+03  1.515575960E+03  0.000000000E+00  0.00000E+00  9.000E+00
      21    -1     0     0   501   502  0.000000000E+00  0.000000000E+00 -4.031002352E+01  4.031002352E+01  0.000000000E+00  0.00000E+00  9.000E+00
      25     1     1     2     0     0  4.887295811E+01 -5.593943057E+01  1.289227364E+02  1.943292512E+02  1.250000000E+02  0.00000E+00  9.000E+00
      25     1     1     2     0     0  7.639678607E+00  6.025980309E+01  7.707252813E+02  7.831552003E+02  1.250000000E+02  0.00000E+00  9.000E+00
      21     1     1     2   501   512 -5.651263671E+01 -4.320372522E+00  5.756179185E+02  5.784015316E+02  0.000000000E+00  0.00000E+00  9.000E+00
#rwgt            1           1   3.1705970497791121E-002           1      137022           0
</event>
<event>
      5   9999  3.79277E-02  1.83095E+02 -1.00000E+00  1.13062E-01
      21    -1     0     0   502   511  0.000000000E+00  0.000000000E+00  2.028598862E+02  2.028598862E+02  0.000000000E+00  0.00000E+00  9.000E+00
      21    -1     0     0   501   502  0.000000000E+00  0.000000000E+00 -1.221773042E+03  1.221773042E+03  0.000000000E+00  0.00000E+00  9.000E+00
      25     1     1     2     0     0 -3.441544582E+01 -3.737662821E+02 -5.769466562E+02  6.995556452E+02  1.250000000E+02  0.00000E+00  9.000E+00
      25     1     1     2     0     0  1.117813597E+01  1.921519128E+02 -4.853815194E+02  5.369055109E+02  1.250000000E+02  0.00000E+00  9.000E+00
      21     1     1     2   501   511  2.323730985E+01  1.816143693E+02  4.341502005E+01  1.881717717E+02  2.431401974E-06  0.00000E+00  9.000E+00
#rwgt            1           1   7.3314738020195062E-004           1      137125           0
</event>
<event>
      5   9999  3.79277E-02  8.51572E+01 -1.00000E+00  1.27050E-01
      21    -1     0     0   502   512  0.000000000E+00  0.000000000E+00  1.311805869E+03  1.311805869E+03  0.000000000E+00  0.00000E+00  9.000E+00
      21    -1     0     0   501   502  0.000000000E+00  0.000000000E+00 -2.873146447E+02  2.873146447E+02  0.000000000E+00  0.00000E+00  9.000E+00
      25     1     1     2     0     0  3.275925186E+02  1.124014239E+02  6.789426625E+02  7.723594223E+02  1.250000000E+02  0.00000E+00  9.000E+00
      25     1     1     2     0     0 -4.033680495E+02 -7.354498110E+01 -4.131575645E+01  4.306351581E+02  1.250000000E+02  0.00000E+00  9.000E+00
      21     1     1     2   501   512  7.577553095E+01 -3.885644280E+01  3.868643187E+02  3.961259337E+02  5.394796609E-06  0.00000E+00  9.000E+00
#rwgt            1           1   4.1543152214801607E-002           1      137214           0
</event>
<event>
      5   9999  3.79277E-02  1.90539E+02 -1.00000E+00  1.12420E-01
       2    -1     0     0   502     0  0.000000000E+00  0.000000000E+00  9.238633528E+02  9.238633528E+02  0.000000000E+00  0.00000E+00  9.000E+00
      21    -1     0     0   501   502  0.000000000E+00  0.000000000E+00 -2.698016454E+02  2.698016454E+02  0.000000000E+00  0.00000E+00  9.000E+00
      25     1     1     2     0     0  1.683275151E+02  2.506176510E+02  2.962577104E+02  4.410634765E+02  1.250000000E+02  0.00000E+00  9.000E+00
      25     1     1     2     0     0 -8.562662575E+01 -4.222738676E+02  1.558089880E+02  4.749195500E+02  1.250000000E+02  0.00000E+00  9.000E+00
       2     1     1     2   501     0 -8.270088931E+01  1.716562166E+02  2.019950090E+02  2.776819718E+02  4.672030912E-06  0.00000E+00  9.000E+00
#rwgt            1           1   4.4428241130967563E-002           1      137322           0
</event>
<event>
      5   9999  3.79277E-02  9.12025E+01 -1.00000E+00  1.25654E-01
      21    -1     0     0   502   501  0.000000000E+00  0.000000000E+00  1.516527842E+02  1.516527842E+02  0.000000000E+00  0.00000E+00  9.000E+00
      21    -1     0     0   501   511  0.000000000E+00  0.000000000E+00 -4.610470186E+02  4.610470186E+02  0.000000000E+00  0.00000E+00  9.000E+00
      25     1     1     2     0     0  4.559674912E+01 -1.012473089E+02 -5.573181336E+01  1.762416412E+02  1.250000000E+02  0.00000E+00  9.000E+00
      25     1     1     2     0     0 -1.219951610E+02  1.510586953E+02 -8.756742257E+01  2.469708530E+02  1.250000000E+02  0.00000E+00  9.000E+00
      21     1     1     2   502   511  7.639841185E+01 -4.981138646E+01 -1.660949985E+02  1.894873085E+02  3.814697266E-06  0.00000E+00  9.000E+00
#rwgt            1           1   3.9829142632905754E-002           1      137539           0
</event>
<event>
      5   9999  3.79277E-02  4.31155E+01 -1.00000E+00  1.42849E-01
      21    -1     0     0   502   501  0.000000000E+00  0.000000000E+00  7.613930678E+02  7.613930678E+02  0.000000000E+00  0.00000E+00  9.000E+00
       2    -1     0     0   501     0  0.000000000E+00  0.000000000E+00 -1.227544513E+03  1.227544513E+03  0.000000000E+00  0.00000E+00  9.000E+00
      25     1     1     2     0     0  2.147212767E+02  1.633219455E+01  4.505581656E+02  5.147811456E+02  1.250000000E+02  0.00000E+00  9.000E+00
      25     1     1     2     0     0 -2.061912439E+02  2.593111916E+01  2.254881398E+02  3.311452147E+02  1.250000000E+02  0.00000E+00  9.000E+00
       2     1     1     2   502     0 -8.530032756E+00 -4.226331371E+01 -1.142197750E+03  1.143011220E+03  2.157918644E-05  0.00000E+00  9.000E+00
#rwgt            1           1   3.1628362692012253E-002           1      137653           0
</event>
<event>
      5   9999  3.79277E-02  5.82120E+01 -1.00000E+00  1.35409E-01
      21    -1     0     0   502   511  0.000000000E+00  0.000000000E+00  1.516866142E+02  1.516866142E+02  0.000000000E+00  0.00000E+00  9.000E+00
      21    -1     0     0   501   502  0.000000000E+00  0.000000000E+00 -9.314103100E+02  9.314103100E+02  0.000000000E+00  0.00000E+00  9.000E+00
      25     1     1     2     0     0  3.031689392E+02 -1.223469515E+01 -3.528522600E+02  4.818618172E+02  1.250000000E+02  0.00000E+00  9.000E+00
      25     1     1     2     0     0 -3.215378679E+02  6.747251881E+01 -4.111591494E+02  5.409399111E+02  1.250000000E+02  0.00000E+00  9.000E+00
      21     1     1     2   501   511  1.836892867E+01 -5.523782366E+01 -1.571228629E+01  6.029519586E+01  6.743495762E-07  0.00000E+00  9.000E+00
#rwgt            2          11   4.3865558004661607E-003           1      137998           0
</event>
<event>
      5   9999  3.79277E-02  1.60058E+02 -1.00000E+00  1.15287E-01
      21    -1     0     0   502   501  0.000000000E+00  0.000000000E+00  1.987387773E+02  1.987387773E+02  0.000000000E+00  0.00000E+00  9.000E+00
      21    -1     0     0   501   512  0.000000000E+00  0.000000000E+00 -2.260676871E+03  2.260676871E+03  0.000000000E+00  0.00000E+00  9.000E+00
      25     1     1     2     0     0  1.252043605E+02  2.021395909E+02  1.127844065E+01  2.688656715E+02  1.250000000E+02  0.00000E+00  9.000E+00
      25     1     1     2     0     0 -1.646586887E+02 -4.702008015E+01 -1.476863082E+02  2.583788253E+02  1.250000000E+02  0.00000E+00  9.000E+00
      21     1     1     2   502   512  3.945432821E+01 -1.551195108E+02 -1.925530226E+03  1.932171151E+03  2.157918644E-05  0.00000E+00  9.000E+00
#rwgt            2          11   1.4066415883680794E-003           1      138033           0
</event>
<event>
      5   9999  3.79277E-02  2.83426E+01 -1.00000E+00  1.54774E-01
      21    -1     0     0   511   501  0.000000000E+00  0.000000000E+00  6.109705309E+02  6.109705309E+02  0.000000000E+00  0.00000E+00  9.000E+00
      21    -1     0     0   501   502  0.000000000E+00  0.000000000E+00 -5.628591513E+02  5.628591513E+02  0.000000000E+00  0.00000E+00  9.000E+00
      25     1     1     2     0     0 -3.168197968E+01 -1.058684704E+02 -4.820786272E+02  5.101339860E+02  1.250000000E+02  0.00000E+00  9.000E+00
      25     1     1     2     0     0  2.400084518E+01  1.331503574E+02  6.156907690E+01  1.942184581E+02  1.250000000E+02  0.00000E+00  9.000E+00
      21     1     1     2   511   502  7.681134505E+00 -2.728188699E+01  4.686209299E+02  4.694772382E+02  7.629394531E-06  0.00000E+00  9.000E+00
#rwgt            1           1   4.1661898342253541E-002           1      138098           0
</event>
<event>
      5   9999  3.79277E-02  4.26185E+01 -1.00000E+00  1.43153E-01
      21    -1     0     0   502   512  0.000000000E+00  0.000000000E+00  6.938438180E+02  6.938438180E+02  0.000000000E+00  0.00000E+00  9.000E+00
      21    -1     0     0   501   502  0.000000000E+00  0.000000000E+00 -2.605604400E+02  2.605604400E+02  0.000000000E+00  0.00000E+00  9.000E+00
      25     1     1     2     0     0  1.148453025E+01 -2.862847443E+02 -9.435784630E+01  3.265260364E+02  1.250000000E+02  0.00000E+00  9.000E+00
      25     1     1     2     0     0 -4.875636936E+01  2.656173223E+02  4.671779562E+02  5.539043133E+02  1.250000000E+02  0.00000E+00  9.000E+00
      21     1     1     2   501   512  3.727183911E+01  2.066742200E+01  6.046326807E+01  7.397390830E+01  0.000000000E+00  0.00000E+00  9.000E+00
#rwgt            1           1   5.1100254079445233E-002           1      138306           0
</event>
<event>
      5   9999  3.79277E-02  1.74522E+01 -1.00000E+00  1.71405E-01
      21    -1     0     0   502   501  0.000000000E+00  0.000000000E+00  7.572603023E+01  7.572603023E+01  0.000000000E+00  0.00000E+00  9.000E+00
      21    -1     0     0   511   502  0.000000000E+00  0.000000000E+00 -3.043126118E+02  3.043126118E+02  0.000000000E+00  0.00000E+00  9.000E+00
      25     1     1     2     0     0 -5.817837295E+01 -2.944432448E+01 -9.354431859E+01  1.691958358E+02  1.250000000E+02  0.00000E+00  9.000E+00
      25     1     1     2     0     0  4.919202397E+01  4.440507565E+01 -1.053267592E+02  1.763813827E+02  1.250000000E+02  0.00000E+00  9.000E+00
      21     1     1     2   511   501  8.986348974E+00 -1.496075117E+01 -2.971550373E+01  3.446142344E+01  0.000000000E+00  0.00000E+00  9.000E+00
#rwgt            1           1   3.7561662950830535E-002           1      138463           0
</event>
<event>
      5   9999  3.79277E-02  5.48719E+01 -1.00000E+00  1.36810E-01
       1    -1     0     0   502     0  0.000000000E+00  0.000000000E+00  1.037359937E+03  1.037359937E+03  0.000000000E+00  0.00000E+00  9.000E+00
      21    -1     0     0   501   502  0.000000000E+00  0.000000000E+00 -9.400744890E+01  9.400744890E+01  0.000000000E+00  0.00000E+00  9.000E+00
      25     1     1     2     0     0  1.137205779E+02 -9.851394242E+01  2.141519006E+02  2.900403476E+02  1.250000000E+02  0.00000E+00  9.000E+00
      25     1     1     2     0     0 -1.428499171E+02  1.450156555E+02  2.065101761E+02  3.157642981E+02  1.250000000E+02  0.00000E+00  9.000E+00
       1     1     1     2   501     0  2.912933914E+01 -4.650171304E+01  5.226904118E+02  5.255627406E+02  7.629394531E-06  0.00000E+00  9.000E+00
#rwgt            1           1   3.7338841335140621E-002           1      138653           0
</event>
<event>
      5   9999  3.79277E-02  1.03512E+01 -1.00000E+00  1.94040E-01
      21    -1     0     0   502   511  0.000000000E+00  0.000000000E+00  7.278382946E+01  7.278382946E+01  0.000000000E+00  0.00000E+00  9.000E+00
      21    -1     0     0   501   502  0.000000000E+00  0.000000000E+00 -7.602596152E+02  7.602596152E+02  0.000000000E+00  0.00000E+00  9.000E+00
      25     1     1     2     0     0  5.448460755E+01  7.699716671E+01 -3.782027387E+01  1.610978251E+02  1.250000000E+02  0.00000E+00  9.000E+00
      25     1     1     2     0     0 -4.745495181E+01 -6.939907798E+01 -6.409666713E+02  6.584310732E+02  1.250000000E+02  0.00000E+00  9.000E+00
      21     1     1     2   501   511 -7.029655745E+00 -7.598088732E+00 -8.688840619E+00  1.351454637E+01  1.192092896E-07  0.00000E+00  9.000E+00
#rwgt            1           1   4.6321250512286805E-002           1      138737           0
</event>
<event>
      5   9999  3.79277E-02  3.92099E+01 -1.00000E+00  1.45380E-01
      21    -1     0     0   502   501  0.000000000E+00  0.000000000E+00  7.019836183E+01  7.019836183E+01  0.000000000E+00  0.00000E+00  9.000E+00
      21    -1     0     0   512   502  0.000000000E+00  0.000000000E+00 -8.657686497E+02  8.657686497E+02  0.000000000E+00  0.00000E+00  9.000E+00
      25     1     1     2     0     0  6.188729727E+01 -8.141726295E+01 -3.386139712E+02  3.751576065E+02  1.250000000E+02  0.00000E+00  9.000E+00
      25     1     1     2     0     0 -5.397697291E+01  1.198209099E+02 -1.110077727E+02  2.126459255E+02  1.250000000E+02  0.00000E+00  9.000E+00
      21     1     1     2   512   501 -7.910324360E+00 -3.840364692E+01 -3.459485441E+02  3.481634795E+02  6.607249480E-06  0.00000E+00  9.000E+00
#rwgt            1           1   4.7084618867528287E-002           1      139146           0
</event>
<event>
      5   9999  3.79277E-02  1.27297E+01 -1.00000E+00  1.84372E-01
      21    -1     0     0   502   501  0.000000000E+00  0.000000000E+00  8.894756648E+01  8.894756648E+01  0.000000000E+00  0.00000E+00  9.000E+00
      21    -1     0     0   511   502  0.000000000E+00  0.000000000E+00 -5.888810335E+02  5.888810335E+02  0.000000000E+00  0.00000E+00  9.000E+00
      25     1     1     2     0     0  1.319866363E+02  3.441677990E+01 -2.718937468E+02  3.288710940E+02  1.250000000E+02  0.00000E+00  9.000E+00
      25     1     1     2     0     0 -1.227065280E+02 -2.570331677E+01 -6.995045248E+01  1.903565558E+02  1.250000000E+02  0.00000E+00  9.000E+00
      21     1     1     2   511   501 -9.280108267E+00 -8.713463132E+00 -1.580892677E+02  1.586009502E+02  3.303624740E-06  0.00000E+00  9.000E+00
#rwgt            1           1   4.7229242278769720E-002           1      139268           0
</event>
<event>
      5   9999  3.79277E-02  4.10838E+02 -1.00000E+00  1.01337E-01
      21    -1     0     0   502   501  0.000000000E+00  0.000000000E+00  2.191694557E+03  2.191694557E+03  0.000000000E+00  0.00000E+00  9.000E+00
      21    -1     0     0   512   502  0.000000000E+00  0.000000000E+00 -1.319144596E+02  1.319144596E+02  0.000000000E+00  0.00000E+00  9.000E+00
      25     1     1     2     0     0  2.135210403E+00 -8.939179485E+01  9.371283692E+02  9.496473200E+02  1.250000000E+02  0.00000E+00  9.000E+00
      25     1     1     2     0     0  2.891239281E+02 -2.003596870E+02  4.380143396E+02  5.755156051E+02  1.250000000E+02  0.00000E+00  9.000E+00
      21     1     1     2   512   501 -2.912591385E+02  2.897514819E+02  6.846373886E+02  7.984460914E+02  1.321449896E-05  0.00000E+00  9.000E+00
#rwgt            1           1   4.6908200043524070E-002           1      139549           0
</event>
<event>
      5   9999  3.79277E-02  6.21945E+01 -1.00000E+00  1.33875E-01
      21    -1     0     0   502   511  0.000000000E+00  0.000000000E+00  2.170440274E+02  2.170440274E+02  0.000000000E+00  0.00000E+00  9.000E+00
      21    -1     0     0   501   502  0.000000000E+00  0.000000000E+00 -7.458842839E+02  7.458842839E+02  0.000000000E+00  0.00000E+00  9.000E+00
      25     1     1     2     0     0 -1.749833488E+02 -2.318579424E+02 -5.066569093E+02  5.972466002E+02  1.250000000E+02  0.00000E+00  9.000E+00
      25     1     1     2     0     0  2.018104300E+02  1.757467696E+02  1.024500416E+01  2.955407532E+02  1.250000000E+02  0.00000E+00  9.000E+00
      21     1     1     2   501   511 -2.682708121E+01  5.611117281E+01 -3.242835145E+01  7.014095792E+01  1.507891493E-06  0.00000E+00  9.000E+00
#rwgt            1           1   4.9356831003809339E-002           1      139656           0
</event>
<event>
      5   9999  3.79277E-02  6.22921E+01 -1.00000E+00  1.33839E-01
      21    -1     0     0   512   501  0.000000000E+00  0.000000000E+00  2.136044285E+03  2.136044285E+03  0.000000000E+00  0.00000E+00  9.000E+00
      21    -1     0     0   501   502  0.000000000E+00  0.000000000E+00 -6.017840625E+01  6.017840625E+01  0.000000000E+00  0.00000E+00  9.000E+00
      25     1     1     2     0     0  4.164289229E+01 -2.500757486E+02  7.150864548E+02  7.689249953E+02  1.250000000E+02  0.00000E+00  9.000E+00
      25     1     1     2     0     0 -1.022061014E+02  2.355018628E+02  6.054515268E+02  6.694055317E+02  1.250000000E+02  0.00000E+00  9.000E+00
      21     1     1     2   512   502  6.056320916E+01  1.457388575E+01  7.553278972E+02  7.578921643E+02  1.078959322E-05  0.00000E+00  9.000E+00
#rwgt            2          11   5.8418633860935756E-004           1      139731           0
</event>
<event>
      5   9999  3.79277E-02  1.51571E+01 -1.00000E+00  1.76958E-01
      21    -1     0     0   502   501  0.000000000E+00  0.000000000E+00  3.516353878E+02  3.516353878E+02  0.000000000E+00  0.00000E+00  9.000E+00
      21    -1     0     0   511   502  0.000000000E+00  0.000000000E+00 -2.081338977E+02  2.081338977E+02  0.000000000E+00  0.00000E+00  9.000E+00
      25     1     1     2     0     0  3.540744305E+01 -2.076694888E+02  4.454090547E+01  2.489762958E+02  1.250000000E+02  0.00000E+00  9.000E+00
      25     1     1     2     0     0 -2.827904054E+01  2.210457552E+02  1.220567693E+02  2.831674151E+02  1.250000000E+02  0.00000E+00  9.000E+00
      21     1     1     2   511   501 -7.128402505E+00 -1.337626642E+01 -2.309618462E+01  2.762557455E+01  3.371747881E-07  0.00000E+00  9.000E+00
#rwgt            1           1   3.2270861487747472E-002           1      139811           0
</event>
<event>
      5   9999  3.79277E-02  8.05330E+00 -1.00000E+00  2.07294E-01
      21    -1     0     0   502   501  0.000000000E+00  0.000000000E+00  8.046872387E+01  8.046872387E+01  0.000000000E+00  0.00000E+00  9.000E+00
      21    -1     0     0   512   502  0.000000000E+00  0.000000000E+00 -5.112820382E+02  5.112820382E+02  0.000000000E+00  0.00000E+00  9.000E+00
      25     1     1     2     0     0  1.309651128E+02 -7.064874017E+01 -2.125666323E+02  2.880150663E+02  1.250000000E+02  0.00000E+00  9.000E+00
      25     1     1     2     0     0 -1.322620555E+02  7.859692554E+01 -1.908190957E+02  2.751502413E+02  1.250000000E+02  0.00000E+00  9.000E+00
      21     1     1     2   512   501  1.296942713E+00 -7.948185369E+00 -2.742758636E+01  2.858545442E+01  3.371747881E-07  0.00000E+00  9.000E+00
#rwgt            1           1   3.2217541883997891E-002           1      140006           0
</event>
<event>
      5   9999  3.79277E-02  8.57688E+00 -1.00000E+00  2.03794E-01
      21    -1     0     0   502   511  0.000000000E+00  0.000000000E+00  1.393580513E+02  1.393580513E+02  0.000000000E+00  0.00000E+00  9.000E+00
      21    -1     0     0   501   502  0.000000000E+00  0.000000000E+00 -2.945958383E+02  2.945958383E+02  0.000000000E+00  0.00000E+00  9.000E+00
      25     1     1     2     0     0  1.334276705E+02 -4.941635350E+01 -9.894732091E+00  1.896518520E+02  1.250000000E+02  0.00000E+00  9.000E+00
      25     1     1     2     0     0 -1.251546881E+02  4.715346118E+01 -1.479094520E+02  2.353494228E+02  1.250000000E+02  0.00000E+00  9.000E+00
      21     1     1     2   501   511 -8.272982357E+00  2.262892321E+00  2.566397041E+00  8.952614842E+00  1.812804499E-07  0.00000E+00  9.000E+00
#rwgt            1           1   3.2340917970476994E-002           1      140336           0
</event>
<event>
      5   9999  3.79277E-02  1.75516E+01 -1.00000E+00  1.71188E-01
      21    -1     0     0   512   501  0.000000000E+00  0.000000000E+00  2.003941129E+02  2.003941129E+02  0.000000000E+00  0.00000E+00  9.000E+00
      21    -1     0     0   501   502  0.000000000E+00  0.000000000E+00 -1.391269649E+03  1.391269649E+03  0.000000000E+00  0.00000E+00  9.000E+00
      25     1     1     2     0     0 -1.206975755E+02 -1.892178606E+02 -3.287853518E+02  4.172482607E+02  1.250000000E+02  0.00000E+00  9.000E+00
      25     1     1     2     0     0  1.158669329E+02  2.060916349E+02 -1.000127113E+03  1.035267188E+03  1.250000000E+02  0.00000E+00  9.000E+00
      21     1     1     2   512   502  4.830642552E+00 -1.687377437E+01  1.380369288E+02  1.391483133E+02  2.697398305E-06  0.00000E+00  9.000E+00
#rwgt            1           1   4.1274097474848281E-002           1      140642           0
</event>
<event>
      5   9999  3.79277E-02  6.04029E+01 -1.00000E+00  1.34548E-01
      21    -1     0     0   502   501  0.000000000E+00  0.000000000E+00  2.833335893E+03  2.833335893E+03  0.000000000E+00  0.00000E+00  9.000E+00
      -1    -1     0     0     0   502  0.000000000E+00  0.000000000E+00 -2.860349296E+01  2.860349296E+01  0.000000000E+00  0.00000E+00  9.000E+00
      25     1     1     2     0     0  1.824810814E+02 -9.217025790E+00  1.831278213E+03  1.844610851E+03  1.250000000E+02  0.00000E+00  9.000E+00
      25     1     1     2     0     0 -1.562548602E+02  6.362932416E+01  8.892261188E+02  9.136806677E+02  1.250000000E+02  0.00000E+00  9.000E+00
      -1     1     1     2     0   501 -2.622622122E+01 -5.441229837E+01  8.422806862E+01  1.036478675E+02  4.264961200E-06  0.00000E+00  9.000E+00
#rwgt            2          10   1.7997447796566369E-005           1      140914           0
</event>
<event>
      5   9999  3.79277E-02  1.72915E+01 -1.00000E+00  1.71758E-01
      21    -1     0     0   502   501  0.000000000E+00  0.000000000E+00  5.734819328E+01  5.734819328E+01  0.000000000E+00  0.00000E+00  9.000E+00
      21    -1     0     0   501   511  0.000000000E+00  0.000000000E+00 -1.516354614E+03  1.516354614E+03  0.000000000E+00  0.00000E+00  9.000E+00
      25     1     1     2     0     0  1.188563256E+02  1.386979538E+02 -2.409909270E+02  3.272087642E+02  1.250000000E+02  0.00000E+00  9.000E+00
      25     1     1     2     0     0 -1.348340160E+02 -1.320866487E+02 -9.009717182E+02  9.289790803E+02  1.250000000E+02  0.00000E+00  9.000E+00
      21     1     1     2   502   511  1.597769044E+01 -6.611305063E+00 -3.170437758E+02  3.175149630E+02  0.000000000E+00  0.00000E+00  9.000E+00
#rwgt            1           1   2.0713939329303883E-002           1      141023           0
</event>
<event>
      5   9999  3.79277E-02  9.61925E+01 -1.00000E+00  1.24591E-01
      21    -1     0     0   512   501  0.000000000E+00  0.000000000E+00  5.114857782E+01  5.114857782E+01  0.000000000E+00  0.00000E+00  9.000E+00
      21    -1     0     0   501   502  0.000000000E+00  0.000000000E+00 -1.885915485E+03  1.885915485E+03  0.000000000E+00  0.00000E+00  9.000E+00
      25     1     1     2     0     0 -6.774442931E+01 -8.626133728E+01 -1.574396375E+03  1.583154847E+03  1.250000000E+02  0.00000E+00  9.000E+00
      25     1     1     2     0     0 -2.601054916E+01  6.474385493E+01 -1.461653552E+02  2.045913646E+02  1.250000000E+02  0.00000E+00  9.000E+00
      21     1     1     2   512   502  9.375497847E+01  2.151748235E+01 -1.142051769E+02  1.493178504E+02  3.015782986E-06  0.00000E+00  9.000E+00
#rwgt            1           1   3.3564723926149440E-002           1      141304           0
</event>
<event>
      5   9999  3.79277E-02  2.21960E+01 -1.00000E+00  1.62721E-01
      21    -1     0     0   502   501  0.000000000E+00  0.000000000E+00  1.320873098E+01  1.320873098E+01  0.000000000E+00  0.00000E+00  9.000E+00
       2    -1     0     0   501     0  0.000000000E+00  0.000000000E+00 -3.414488314E+03  3.414488314E+03  0.000000000E+00  0.00000E+00  9.000E+00
      25     1     1     2     0     0 -3.406976053E+00 -9.905294511E+01 -5.881493060E+02  6.093994581E+02  1.250000000E+02  0.00000E+00  9.000E+00
      25     1     1     2     0     0 -7.321484941E+00  7.962202852E+01 -2.440746351E+03  2.445252752E+03  1.250000000E+02  0.00000E+00  9.000E+00
       2     1     1     2   502     0  1.072846099E+01  1.943091659E+01 -3.723839254E+02  3.730448341E+02  5.394796609E-06  0.00000E+00  9.000E+00
#rwgt            1           1   2.3832539028566451E-002           1      141414           0
</event>
<event>
      5   9999  3.79277E-02  3.59701E+01 -1.00000E+00  1.47760E-01
       2    -1     0     0   502     0  0.000000000E+00  0.000000000E+00  5.471457463E+02  5.471457463E+02  0.000000000E+00  0.00000E+00  9.000E+00
      21    -1     0     0   501   502  0.000000000E+00  0.000000000E+00 -1.979669409E+02  1.979669409E+02  0.000000000E+00  0.00000E+00  9.000E+00
      25     1     1     2     0     0 -5.804792877E+01 -1.719529591E+01 -1.442943252E+02  2.002775387E+02  1.250000000E+02  0.00000E+00  9.000E+00
      25     1     1     2     0     0  3.626881619E+01 -1.143194281E+01  1.477010689E+02  1.971971655E+02  1.250000000E+02  0.00000E+00  9.000E+00
       2     1     1     2   501     0  2.177911258E+01  2.862723872E+01  3.457720617E+02  3.476379830E+02  3.814697266E-06  0.00000E+00  9.000E+00
#rwgt            1           1   3.8009639533618356E-002           1      141654           0
</event>
<event>
      5   9999  3.79277E-02  5.43349E+01 -1.00000E+00  1.37046E-01
      21    -1     0     0   502   501  0.000000000E+00  0.000000000E+00  1.060039602E+02  1.060039602E+02  0.000000000E+00  0.00000E+00  9.000E+00
      21    -1     0     0   511   502  0.000000000E+00  0.000000000E+00 -1.087425923E+03  1.087425923E+03  0.000000000E+00  0.00000E+00  9.000E+00
      25     1     1     2     0     0 -1.988043852E+02 -7.883800802E+00 -1.500181032E+02  2.787754817E+02  1.250000000E+02  0.00000E+00  9.000E+00
      25     1     1     2     0     0  2.529771129E+02  1.207823599E+01 -4.635834437E+02  5.428424382E+02  1.250000000E+02  0.00000E+00  9.000E+00
      21     1     1     2   511   501 -5.417272770E+01 -4.194435183E+00 -3.678204161E+02  3.718119635E+02  0.000000000E+00  0.00000E+00  9.000E+00
#rwgt            1           1   4.1149373609445032E-002           1      141822           0
</event>
<event>
      5   9999  3.79277E-02  8.03232E+01 -1.00000E+00  1.28265E-01
      21    -1     0     0   502   501  0.000000000E+00  0.000000000E+00  1.963661378E+02  1.963661378E+02  0.000000000E+00  0.00000E+00  9.000E+00
      21    -1     0     0   512   502  0.000000000E+00  0.000000000E+00 -3.238443651E+02  3.238443651E+02  0.000000000E+00  0.00000E+00  9.000E+00
      25     1     1     2     0     0  6.098437844E+01 -8.270185014E+01 -1.782591219E+01  1.627926705E+02  1.250000000E+02  0.00000E+00  9.000E+00
      25     1     1     2     0     0 -9.987851915E+01  1.529803569E+02  1.555648837E-01  2.213678666E+02  1.250000000E+02  0.00000E+00  9.000E+00
      21     1     1     2   512   501  3.889414070E+01 -7.027850674E+01 -1.098078800E+02  1.360499658E+02  2.336015456E-06  0.00000E+00  9.000E+00
#rwgt            1           1   3.7135652815892123E-002           1      141966           0
</event>
<event>
      5   9999  3.79277E-02  3.80115E+01 -1.00000E+00  1.46227E-01
      21    -1     0     0   502   501  0.000000000E+00  0.000000000E+00  2.145597479E+02  2.145597479E+02  0.000000000E+00  0.00000E+00  9.000E+00
      21    -1     0     0   501   511  0.000000000E+00  0.000000000E+00 -3.733570063E+02  3.733570063E+02  0.000000000E+00  0.00000E+00  9.000E+00
      25     1     1     2     0     0  3.542936131E+01 -1.551652725E+02 -1.200140094E+00  2.023806853E+02  1.250000000E+02  0.00000E+00  9.000E+00
      25     1     1     2     0     0 -3.355524664E+01  1.931305716E+02 -9.546098583E+00  2.326832617E+02  1.250000000E+02  0.00000E+00  9.000E+00
      21     1     1     2   502   511 -1.874114666E+00 -3.796529909E+01 -1.480510197E+02  1.528528072E+02  1.907348633E-06  0.00000E+00  9.000E+00
#rwgt            1           1   4.2267459911075903E-002           1      142065           0
</event>
<event>
      5   9999  3.79277E-02  1.14495E+01 -1.00000E+00  1.89198E-01
      21    -1     0     0   502   501  0.000000000E+00  0.000000000E+00  3.939816969E+02  3.939816969E+02  0.000000000E+00  0.00000E+00  9.000E+00
      21    -1     0     0   501   512  0.000000000E+00  0.000000000E+00 -3.176609570E+02  3.176609570E+02  0.000000000E+00  0.00000E+00  9.000E+00
      25     1     1     2     0     0  1.103266506E+02 -1.659455548E+02  1.884437516E+02  3.014066099E+02  1.250000000E+02  0.00000E+00  9.000E+00
      25     1     1     2     0     0 -9.896171015E+01  1.645563888E+02  6.070586819E+01  2.370283266E+02  1.250000000E+02  0.00000E+00  9.000E+00
      21     1     1     2   502   512 -1.136494043E+01  1.389165991E+00 -1.728288799E+02  1.732077174E+02  1.907348633E-06  0.00000E+00  9.000E+00
#rwgt            1           1   4.4582255339370325E-002           1      142215           0
</event>
<event>
      5   9999  3.79277E-02  4.45509E+00 -1.00000E+00  2.52910E-01
      21    -1     0     0   502   501  0.000000000E+00  0.000000000E+00  2.320871037E+02  2.320871037E+02  0.000000000E+00  0.00000E+00  9.000E+00
       2    -1     0     0   501     0  0.000000000E+00  0.000000000E+00 -2.286667833E+02  2.286667833E+02  0.000000000E+00  0.00000E+00  9.000E+00
      25     1     1     2     0     0 -1.272980368E+01 -7.534130287E+01 -1.551313373E+02  2.133754710E+02  1.250000000E+02  0.00000E+00  9.000E+00
      25     1     1     2     0     0  9.196505838E+00  7.262770031E+01  1.768158851E+02  2.285786863E+02  1.250000000E+02  0.00000E+00  9.000E+00
       2     1     1     2   502     0  3.533297839E+00  2.713602556E+00 -1.826422746E+01  1.879972971E+01  3.371747881E-07  0.00000E+00  9.000E+00
#rwgt            1           1   4.9471617129537890E-002           1      142492           0
</event>
<event>
      5   9999  3.79277E-02  4.70568E+01 -1.00000E+00  1.40596E-01
      21    -1     0     0   502   511  0.000000000E+00  0.000000000E+00  2.224203269E+02  2.224203269E+02  0.000000000E+00  0.00000E+00  9.000E+00
      21    -1     0     0   501   502  0.000000000E+00  0.000000000E+00 -3.111405528E+02  3.111405528E+02  0.000000000E+00  0.00000E+00  9.000E+00
      25     1     1     2     0     0  2.867286569E+01 -4.061618724E+01  1.470239055E+02  1.992807986E+02  1.250000000E+02  0.00000E+00  9.000E+00
      25     1     1     2     0     0 -4.257099461E+00  8.084315324E+01 -2.446260207E+02  2.863924376E+02  1.250000000E+02  0.00000E+00  9.000E+00
      21     1     1     2   501   511 -2.441576623E+01 -4.022696601E+01  8.881889262E+00  4.788764341E+01  5.462855929E-07  0.00000E+00  9.000E+00
#rwgt            1           1   5.1829380021401396E-002           1      142781           0
</event>
<event>
      5   9999  3.79277E-02  9.57025E+01 -1.00000E+00  1.24692E-01
      21    -1     0     0   502   501  0.000000000E+00  0.000000000E+00  1.932587876E+02  1.932587876E+02  0.000000000E+00  0.00000E+00  9.000E+00
      21    -1     0     0   501   512  0.000000000E+00  0.000000000E+00 -3.299782864E+02  3.299782864E+02  0.000000000E+00  0.00000E+00  9.000E+00
      25     1     1     2     0     0 -5.504662637E+01  1.153678384E+00 -4.876167783E+00  1.366756711E+02  1.250000000E+02  0.00000E+00  9.000E+00
      25     1     1     2     0     0  1.006584608E+02  8.298032693E+01  4.436552850E+01  1.860407496E+02  1.250000000E+02  0.00000E+00  9.000E+00
      21     1     1     2   502   512 -4.561183440E+01 -8.413400532E+01 -1.762088595E+02  2.005206534E+02  2.697398305E-06  0.00000E+00  9.000E+00
#rwgt            1           1   4.1222623042045312E-002           1      142946           0
</event>
<event>
      5   9999  3.79277E-02  2.25590E+01 -1.00000E+00  1.62167E-01
      21    -1     0     0   502   501  0.000000000E+00  0.000000000E+00  5.842839613E+02  5.842839613E+02  0.000000000E+00  0.00000E+00  9.000E+00
      21    -1     0     0   511   502  0.000000000E+00  0.000000000E+00 -2.574966228E+02  2.574966228E+02  0.000000000E+00  0.00000E+00  9.000E+00
      25     1     1     2     0     0  6.116506066E+01  2.184991761E+02  4.309837328E+02  5.028469275E+02  1.250000000E+02  0.00000E+00  9.000E+00
      25     1     1     2     0     0 -4.194025536E+01 -2.066960441E+02 -1.357142267E+01  2.455431188E+02  1.250000000E+02  0.00000E+00  9.000E+00
      21     1     1     2   511   501 -1.922480530E+01 -1.180313197E+01 -9.062497156E+01  9.339053770E+01  0.000000000E+00  0.00000E+00  9.000E+00
#rwgt            1           1   4.4847796390641979E-002           1      142992           0
</event>
<event>
      5   9999 -3.79277E-02  3.66144E+01 -1.00000E+00  1.47263E-01
      21    -1     0     0   502   512  0.000000000E+00  0.000000000E+00  3.433938427E+02  3.433938427E+02  0.000000000E+00  0.00000E+00  9.000E+00
      21    -1     0     0   501   502  0.000000000E+00  0.000000000E+00 -1.652548762E+02  1.652548762E+02  0.000000000E+00  0.00000E+00  9.000E+00
      25     1     1     2     0     0 -1.198495208E+02  5.742282317E+01 -2.499312449E+01  1.841492453E+02  1.250000000E+02  0.00000E+00  9.000E+00
      25     1     1     2     0     0  1.564528588E+02 -5.832168373E+01  1.389923074E+02  2.506447233E+02  1.250000000E+02  0.00000E+00  9.000E+00
      21     1     1     2   501   512 -3.660333791E+01  8.988605623E-01  6.413978364E+01  7.385475030E+01  9.536743164E-07  0.00000E+00  9.000E+00
#rwgt            1           1  -6.7303086774031004E-002           1      143414           0
</event>
<event>
      5   9999  3.79277E-02  1.77704E+01 -1.00000E+00  1.70719E-01
      21    -1     0     0   502   501  0.000000000E+00  0.000000000E+00  1.563396333E+02  1.563396333E+02  0.000000000E+00  0.00000E+00  9.000E+00
      21    -1     0     0   511   502  0.000000000E+00  0.000000000E+00 -1.188680402E+03  1.188680402E+03  0.000000000E+00  0.00000E+00  9.000E+00
      25     1     1     2     0     0 -7.008663567E+01 -2.305616284E+02 -3.655022139E+02  4.552885561E+02  1.250000000E+02  0.00000E+00  9.000E+00
      25     1     1     2     0     0  5.402089347E+01  2.229670037E+02 -4.197093332E+01  2.646112260E+02  1.250000000E+02  0.00000E+00  9.000E+00
      21     1     1     2   511   501  1.606574220E+01  7.594624687E+00 -6.248676219E+02  6.251202535E+02  1.078959322E-05  0.00000E+00  9.000E+00
#rwgt            2          11   5.2880042324969121E-004           1      143660           0
</event>
<event>
      5   9999  3.79277E-02  1.73623E+02 -1.00000E+00  1.13931E-01
      21    -1     0     0   512   501  0.000000000E+00  0.000000000E+00  6.076297568E+02  6.076297568E+02  0.000000000E+00  0.00000E+00  9.000E+00
      21    -1     0     0   501   502  0.000000000E+00  0.000000000E+00 -7.134935830E+02  7.134935830E+02  0.000000000E+00  0.00000E+00  9.000E+00
      25     1     1     2     0     0 -2.144299338E+02  6.532828194E+01 -3.026238582E+02  3.968049653E+02  1.250000000E+02  0.00000E+00  9.000E+00
      25     1     1     2     0     0  1.491244603E+02  9.554425425E+01 -3.158610949E+02  3.830927309E+02  1.250000000E+02  0.00000E+00  9.000E+00
      21     1     1     2   512   502  6.530547348E+01 -1.608725362E+02  5.126211268E+02  5.412256437E+02  1.321449896E-05  0.00000E+00  9.000E+00
#rwgt            1           1  0.18238818864490902                1      143755           0
</event>
<event>
      5   9999  3.79277E-02  3.32607E+01 -1.00000E+00  1.49991E-01
      21    -1     0     0   502   501  0.000000000E+00  0.000000000E+00  2.191553868E+02  2.191553868E+02  0.000000000E+00  0.00000E+00  9.000E+00
      21    -1     0     0   511   502  0.000000000E+00  0.000000000E+00 -5.723712092E+02  5.723712092E+02  0.000000000E+00  0.00000E+00  9.000E+00
      25     1     1     2     0     0 -8.394613806E+01  4.242626788E+01 -4.969740930E+02  5.210136192E+02  1.250000000E+02  0.00000E+00  9.000E+00
      25     1     1     2     0     0  8.289042538E+01 -7.567017645E+01  1.613140328E+02  2.329034465E+02  1.250000000E+02  0.00000E+00  9.000E+00
      21     1     1     2   511   501  1.055712674E+00  3.324390858E+01 -1.755576219E+01  3.760953034E+01  1.011524364E-06  0.00000E+00  9.000E+00
#rwgt            1           1   5.2221725695685943E-002           1      143818           0
</event>
<event>
      5   9999  3.79277E-02  3.87723E+01 -1.00000E+00  1.45685E-01
      21    -1     0     0   502   501  0.000000000E+00  0.000000000E+00  1.289111541E+03  1.289111541E+03  0.000000000E+00  0.00000E+00  9.000E+00
      21    -1     0     0   501   512  0.000000000E+00  0.000000000E+00 -1.238762204E+02  1.238762204E+02  0.000000000E+00  0.00000E+00  9.000E+00
      25     1     1     2     0     0 -5.346491842E+01 -9.469463726E+01  1.177842071E+03  1.189437899E+03  1.250000000E+02  0.00000E+00  9.000E+00
      25     1     1     2     0     0  7.848833807E+01  6.507843729E+01 -5.080637266E+01  1.691209914E+02  1.250000000E+02  0.00000E+00  9.000E+00
      21     1     1     2   502   512 -2.502341965E+01  2.961619997E+01  3.819962225E+01  5.442887075E+01  4.768371582E-07  0.00000E+00  9.000E+00
#rwgt            1           1   3.5051690698219874E-002           1      144004           0
</event>
<event>
      5   9999  3.79277E-02  5.48458E+01 -1.00000E+00  1.36822E-01
      21    -1     0     0   502   501  0.000000000E+00  0.000000000E+00  1.774484512E+02  1.774484512E+02  0.000000000E+00  0.00000E+00  9.000E+00
      21    -1     0     0   511   502  0.000000000E+00  0.000000000E+00 -8.336707124E+02  8.336707124E+02  0.000000000E+00  0.00000E+00  9.000E+00
      25     1     1     2     0     0  1.896602258E+02  2.363915481E+02 -1.383556431E+02  3.558359864E+02  1.250000000E+02  0.00000E+00  9.000E+00
      25     1     1     2     0     0 -2.343526635E+02 -2.046008924E+02 -3.791902240E+02  5.061550375E+02  1.250000000E+02  0.00000E+00  9.000E+00
      21     1     1     2   511   501  4.469243762E+01 -3.179065569E+01 -1.386763941E+02  1.491281397E+02  1.907348633E-06  0.00000E+00  9.000E+00
#rwgt            1           1   3.9753037760521776E-002           1      144155           0
</event>
<event>
      5   9999  3.79277E-02  4.46707E+01 -1.00000E+00  1.41927E-01
      21    -1     0     0   512   501  0.000000000E+00  0.000000000E+00  4.729731095E+01  4.729731095E+01  0.000000000E+00  0.00000E+00  9.000E+00
      21    -1     0     0   501   502  0.000000000E+00  0.000000000E+00 -1.155991610E+03  1.155991610E+03  0.000000000E+00  0.00000E+00  9.000E+00
      25     1     1     2     0     0  1.446191663E+02  6.928219684E+01 -6.753402163E+02  7.052830168E+02  1.250000000E+02  0.00000E+00  9.000E+00
      25     1     1     2     0     0 -1.265120847E+02 -2.844590966E+01 -4.095147106E+02  4.473720773E+02  1.250000000E+02  0.00000E+00  9.000E+00
      21     1     1     2   512   502 -1.810708160E+01 -4.083628718E+01 -2.383937211E+01  5.063382681E+01  3.371747881E-07  0.00000E+00  9.000E+00
#rwgt            1           1   3.8281551998418824E-002           1      144225           0
</event>
<event>
      5   9999  3.79277E-02  1.34586E+01 -1.00000E+00  1.81938E-01
      21    -1     0     0   502   511  0.000000000E+00  0.000000000E+00  6.806638905E+02  6.806638905E+02  0.000000000E+00  0.00000E+00  9.000E+00
      21    -1     0     0   501   502  0.000000000E+00  0.000000000E+00 -1.101485719E+02  1.101485719E+02  0.000000000E+00  0.00000E+00  9.000E+00
      25     1     1     2     0     0  4.935610695E+01 -1.044156918E+02  5.527571849E+00  1.702768805E+02  1.250000000E+02  0.00000E+00  9.000E+00
      25     1     1     2     0     0 -4.506494656E+01  1.171718238E+02  2.563774928E+02  3.116320018E+02  1.250000000E+02  0.00000E+00  9.000E+00
      21     1     1     2   501   511 -4.291160392E+00 -1.275613196E+01  3.086102539E+02  3.089035801E+02  3.814697266E-06  0.00000E+00  9.000E+00
#rwgt            1           1   5.2420718805415580E-002           1      144345           0
</event>
<event>
      5   9999  3.79277E-02  3.22012E+01 -1.00000E+00  1.50934E-01
      21    -1     0     0   502   501  0.000000000E+00  0.000000000E+00  8.110099614E+02  8.110099614E+02  0.000000000E+00  0.00000E+00  9.000E+00
      21    -1     0     0   501   512  0.000000000E+00  0.000000000E+00 -1.081881030E+02  1.081881030E+02  0.000000000E+00  0.00000E+00  9.000E+00
      25     1     1     2     0     0  1.385394000E+02  1.877275126E+02  2.781614866E+02  3.839708283E+02  1.250000000E+02  0.00000E+00  9.000E+00
      25     1     1     2     0     0 -1.692987090E+02 -1.972554261E+02  4.059396179E+02  4.979796476E+02  1.250000000E+02  0.00000E+00  9.000E+00
      21     1     1     2   502   512  3.075930905E+01  9.527913526E+00  1.872075386E+01  3.724758857E+01  6.307962682E-07  0.00000E+00  9.000E+00
#rwgt            1           1   2.3627463022954466E-002           1      144534           0
</event>
<event>
      5   9999  3.79277E-02  1.27419E+02 -1.00000E+00  1.19273E-01
      21    -1     0     0   502   511  0.000000000E+00  0.000000000E+00  1.940938802E+02  1.940938802E+02  0.000000000E+00  0.00000E+00  9.000E+00
      21    -1     0     0   501   502  0.000000000E+00  0.000000000E+00 -4.649181784E+02  4.649181784E+02  0.000000000E+00  0.00000E+00  9.000E+00
      25     1     1     2     0     0 -7.785823645E+01 -1.209938442E+02 -2.850143359E+01  1.927141589E+02  1.250000000E+02  0.00000E+00  9.000E+00
      25     1     1     2     0     0  1.447848692E+02  1.256659463E+01 -2.745671672E+02  3.348622209E+02  1.250000000E+02  0.00000E+00  9.000E+00
      21     1     1     2   501   511 -6.692663272E+01  1.084272495E+02  3.224430263E+01  1.314356788E+02  2.078484985E-06  0.00000E+00  9.000E+00
#rwgt            1           1   3.7101188825577378E-002           1      144704           0
</event>
<event>
      5   9999  3.79277E-02  1.24420E+02 -1.00000E+00  1.19705E-01
      21    -1     0     0   502   501  0.000000000E+00  0.000000000E+00  4.970755628E+02  4.970755628E+02  0.000000000E+00  0.00000E+00  9.000E+00
      21    -1     0     0   512   502  0.000000000E+00  0.000000000E+00 -4.596702811E+02  4.596702811E+02  0.000000000E+00  0.00000E+00  9.000E+00
      25     1     1     2     0     0 -7.556896177E+01  8.643919934E+01  4.192747897E+02  4.523259360E+02  1.250000000E+02  0.00000E+00  9.000E+00
      25     1     1     2     0     0 -8.423943900E+00  5.351478385E+00 -2.686437391E+01  1.282431119E+02  1.250000000E+02  0.00000E+00  9.000E+00
      21     1     1     2   512   501  8.399290567E+01 -9.179067772E+01 -3.550051340E+02  3.761767960E+02  3.814697266E-06  0.00000E+00  9.000E+00
#rwgt            1           1   3.2926948228887989E-002           1      144796           0
</event>
<event>
      5   9999  3.79277E-02  7.97076E+01 -1.00000E+00  1.28426E-01
       1    -1     0     0   502     0  0.000000000E+00  0.000000000E+00  8.025927077E+02  8.025927077E+02  0.000000000E+00  0.00000E+00  9.000E+00
      21    -1     0     0   501   502  0.000000000E+00  0.000000000E+00 -3.659318426E+02  3.659318426E+02  0.000000000E+00  0.00000E+00  9.000E+00
      25     1     1     2     0     0  1.244183654E+02 -2.348780016E+02 -6.625147103E+01  3.011010839E+02  1.250000000E+02  0.00000E+00  9.000E+00
      25     1     1     2     0     0 -1.319269215E+02  3.142311646E+02  4.861943804E+00  3.630352268E+02  1.250000000E+02  0.00000E+00  9.000E+00
       1     1     1     2   501     0  7.508556101E+00 -7.935316293E+01  4.980503924E+02  5.043882396E+02  5.394796609E-06  0.00000E+00  9.000E+00
#rwgt            1           1   2.9731737667893297E-002           1      144893           0
</event>
<event>
      5   9999  3.79277E-02  1.91899E+02 -1.00000E+00  1.12306E-01
      21    -1     0     0   502   501  0.000000000E+00  0.000000000E+00  7.815526039E+02  7.815526039E+02  0.000000000E+00  0.00000E+00  9.000E+00
       1    -1     0     0   501     0  0.000000000E+00  0.000000000E+00 -1.503221470E+02  1.503221470E+02  0.000000000E+00  0.00000E+00  9.000E+00
      25     1     1     2     0     0  9.339116511E+01 -9.335893274E+01  4.631439413E+02  4.975591527E+02  1.250000000E+02  0.00000E+00  9.000E+00
      25     1     1     2     0     0 -3.959630015E+01 -9.084559764E+01 -2.571973717E+01  1.615775185E+02  1.250000000E+02  0.00000E+00  9.000E+00
       1     1     1     2   502     0 -5.379486496E+01  1.842045304E+02  1.938062528E+02  2.727380797E+02  3.814697266E-06  0.00000E+00  9.000E+00
#rwgt            1           1   3.5934551737714066E-002           1      145136           0
</event>
<event>
      5   9999  3.79277E-02  5.38843E+00 -1.00000E+00  2.32976E-01
      21    -1     0     0   502   501  0.000000000E+00  0.000000000E+00  1.701552921E+02  1.701552921E+02  0.000000000E+00  0.00000E+00  9.000E+00
      21    -1     0     0   511   502  0.000000000E+00  0.000000000E+00 -3.644730089E+02  3.644730089E+02  0.000000000E+00  0.00000E+00  9.000E+00
      25     1     1     2     0     0  1.746564208E+02  2.487241427E+01  1.120141648E+01  2.165039816E+02  1.250000000E+02  0.00000E+00  9.000E+00
      25     1     1     2     0     0 -1.714346885E+02 -2.055319932E+01 -1.460111519E+02  2.583728757E+02  1.250000000E+02  0.00000E+00  9.000E+00
      21     1     1     2   511   501 -3.221732275E+00 -4.319214954E+00 -5.950798139E+01  5.975144372E+01  0.000000000E+00  0.00000E+00  9.000E+00
#rwgt            1           1   5.0248842824363364E-002           1      145195           0
</event>
<event>
      5   9999  3.79277E-02  9.55678E+01 -1.00000E+00  1.24720E-01
      -1    -1     0     0     0   501  0.000000000E+00  0.000000000E+00  1.355351967E+03  1.355351967E+03  0.000000000E+00  0.00000E+00  9.000E+00
      21    -1     0     0   501   502  0.000000000E+00  0.000000000E+00 -1.047965537E+02  1.047965537E+02  0.000000000E+00  0.00000E+00  9.000E+00
      25     1     1     2     0     0  2.077095730E+00 -1.206809413E+02  1.341083306E+02  2.194954401E+02  1.250000000E+02  0.00000E+00  9.000E+00
      25     1     1     2     0     0 -8.279665232E+01  1.718430700E+02  1.579748111E+02  2.774281299E+02  1.250000000E+02  0.00000E+00  9.000E+00
      -1     1     1     2     0   502  8.071955659E+01 -5.116212872E+01  9.584722715E+02  9.632249506E+02  1.078959322E-05  0.00000E+00  9.000E+00
#rwgt            1           1   2.6265940488139749E-002           1      145593           0
</event>
<event>
      5   9999  3.79277E-02  2.69653E+01 -1.00000E+00  1.56328E-01
      -4    -1     0     0     0   501  0.000000000E+00  0.000000000E+00  9.227521319E+02  9.227521319E+02  0.000000000E+00  0.00000E+00  9.000E+00
      21    -1     0     0   501   502  0.000000000E+00  0.000000000E+00 -1.969271061E+03  1.969271061E+03  0.000000000E+00  0.00000E+00  9.000E+00
      25     1     1     2     0     0 -9.712682804E+01  1.133664484E+02 -1.398975796E+03  1.412460212E+03  1.250000000E+02  0.00000E+00  9.000E+00
      25     1     1     2     0     0  1.233412300E+02 -1.196857130E+02 -5.433081353E+02  5.833921998E+02  1.250000000E+02  0.00000E+00  9.000E+00
      -4     1     1     2     0   502 -2.621440192E+01  6.319264563E+00  8.957650028E+02  8.961707807E+02  1.868812365E-05  0.00000E+00  9.000E+00
#rwgt            1           1   1.6625807703331937E-002           1      145658           0
</event>
<event>
      5   9999  3.79277E-02  2.78550E+01 -1.00000E+00  1.55312E-01
      21    -1     0     0   511   501  0.000000000E+00  0.000000000E+00  1.220972549E+03  1.220972549E+03  0.000000000E+00  0.00000E+00  9.000E+00
      21    -1     0     0   501   502  0.000000000E+00  0.000000000E+00 -2.783411183E+02  2.783411183E+02  0.000000000E+00  0.00000E+00  9.000E+00
      25     1     1     2     0     0  1.469990260E+02  6.098721183E+01 -3.401668741E+01  2.052079157E+02  1.250000000E+02  0.00000E+00  9.000E+00
      25     1     1     2     0     0 -1.197390002E+02 -6.671343638E+01 -1.042869519E+02  2.128118396E+02  1.250000000E+02  0.00000E+00  9.000E+00
      21     1     1     2   511   502 -2.726002583E+01  5.726224553E+00  1.080935070E+03  1.081293912E+03  1.525878906E-05  0.00000E+00  9.000E+00
#rwgt            1           1   4.6925126628072245E-002           1      145802           0
</event>
<event>
      5   9999  3.79277E-02  2.03570E+01 -1.00000E+00  1.65738E-01
      21    -1     0     0   502   512  0.000000000E+00  0.000000000E+00  1.425565812E+03  1.425565812E+03  0.000000000E+00  0.00000E+00  9.000E+00
      21    -1     0     0   501   502  0.000000000E+00  0.000000000E+00 -3.064208352E+01  3.064208352E+01  0.000000000E+00  0.00000E+00  9.000E+00
      25     1     1     2     0     0 -7.736369186E+01  1.137482595E+02  4.319258478E+02  4.702220171E+02  1.250000000E+02  0.00000E+00  9.000E+00
      25     1     1     2     0     0  9.680621465E+01 -1.077152441E+02  8.716413149E+02  8.923887039E+02  1.250000000E+02  0.00000E+00  9.000E+00
      21     1     1     2   501   512 -1.944252279E+01 -6.033015418E+00  9.135656585E+01  9.359717459E+01  1.348699152E-06  0.00000E+00  9.000E+00
#rwgt            1           1   3.6284725813651428E-002           1      145918           0
</event>
<event>
      5   9999  3.79277E-02  4.41741E+01 -1.00000E+00  1.42216E-01
      21    -1     0     0   502   501  0.000000000E+00  0.000000000E+00  1.191778614E+02  1.191778614E+02  0.000000000E+00  0.00000E+00  9.000E+00
      21    -1     0     0   501   511  0.000000000E+00  0.000000000E+00 -3.402617512E+02  3.402617512E+02  0.000000000E+00  0.00000E+00  9.000E+00
      25     1     1     2     0     0  9.978380788E+01  5.431361489E+00 -3.714979381E+01  1.642906424E+02  1.250000000E+02  0.00000E+00  9.000E+00
      25     1     1     2     0     0 -1.372555525E+02  1.796137924E+01 -1.527046099E+02  2.410506082E+02  1.250000000E+02  0.00000E+00  9.000E+00
      21     1     1     2   502   511  3.747174466E+01 -2.339274073E+01 -3.122948606E+01  5.409836195E+01  5.840038640E-07  0.00000E+00  9.000E+00
#rwgt            1           1   4.7480174630366578E-002           1      146176           0
</event>
<event>
      5   9999  3.79277E-02  5.45354E+01 -1.00000E+00  1.36958E-01
      21    -1     0     0   502   512  0.000000000E+00  0.000000000E+00  2.514975022E+02  2.514975022E+02  0.000000000E+00  0.00000E+00  9.000E+00
      21    -1     0     0   501   502  0.000000000E+00  0.000000000E+00 -2.159575344E+02  2.159575344E+02  0.000000000E+00  0.00000E+00  9.000E+00
      25     1     1     2     0     0  7.474234073E+01 -8.261433118E+00 -1.301107126E+02  1.954698604E+02  1.250000000E+02  0.00000E+00  9.000E+00
      25     1     1     2     0     0 -5.649329027E+01  5.965286692E+01  1.568548784E+02  2.167450328E+02  1.250000000E+02  0.00000E+00  9.000E+00
      21     1     1     2   501   512 -1.824905045E+01 -5.139143380E+01  8.795801974E+00  5.524014340E+01  4.460403188E-07  0.00000E+00  9.000E+00
#rwgt            2          11   2.9513187739804575E-003           1      146328           0
</event>
<event>
      5   9999  3.79277E-02  2.15575E+01 -1.00000E+00  1.63726E-01
      21    -1     0     0   502   501  0.000000000E+00  0.000000000E+00  4.905670962E+02  4.905670962E+02  0.000000000E+00  0.00000E+00  9.000E+00
      21    -1     0     0   511   502  0.000000000E+00  0.000000000E+00 -1.268384876E+02  1.268384876E+02  0.000000000E+00  0.00000E+00  9.000E+00
      25     1     1     2     0     0  1.452218995E+02 -1.052743173E+02  6.916355946E+01  2.293047752E+02  1.250000000E+02  0.00000E+00  9.000E+00
      25     1     1     2     0     0 -1.261895292E+02  1.153983755E+02  2.986710947E+02  3.661557116E+02  1.250000000E+02  0.00000E+00  9.000E+00
      21     1     1     2   511   501 -1.903237031E+01 -1.012405816E+01 -4.106045517E+00  2.194509701E+01  5.960464478E-08  0.00000E+00  9.000E+00
#rwgt            1           1   3.0994704295076090E-002           1      146378           0
</event>
<event>
      5   9999  3.79277E-02  3.37482E+01 -1.00000E+00  1.49571E-01
      21    -1     0     0   502   501  0.000000000E+00  0.000000000E+00  6.383750592E+01  6.383750592E+01  0.000000000E+00  0.00000E+00  9.000E+00
      21    -1     0     0   512   502  0.000000000E+00  0.000000000E+00 -9.724016992E+02  9.724016992E+02  0.000000000E+00  0.00000E+00  9.000E+00
      25     1     1     2     0     0  4.758863380E+01 -1.445208927E+02 -6.737414890E+02  7.019284583E+02  1.250000000E+02  0.00000E+00  9.000E+00
      25     1     1     2     0     0 -3.469893806E+01  1.133312497E+02 -1.085539280E+02  2.036097830E+02  1.250000000E+02  0.00000E+00  9.000E+00
      21     1     1     2   512   501 -1.288969574E+01  3.118964307E+01 -1.262687762E+02  1.307009638E+02  1.907348633E-06  0.00000E+00  9.000E+00
#rwgt            1           1   4.0209040431024995E-002           1      146600           0
</event>
<event>
      5   9999  3.79277E-02  1.84164E+01 -1.00000E+00  1.69380E-01
      21    -1     0     0   502   501  0.000000000E+00  0.000000000E+00  1.046573809E+02  1.046573809E+02  0.000000000E+00  0.00000E+00  9.000E+00
      21    -1     0     0   501   511  0.000000000E+00  0.000000000E+00 -1.347093809E+03  1.347093809E+03  0.000000000E+00  0.00000E+00  9.000E+00
      25     1     1     2     0     0 -2.360399804E+02  4.403746756E+01 -3.673065301E+02  4.562819939E+02  1.250000000E+02  0.00000E+00  9.000E+00
      25     1     1     2     0     0  2.273560922E+02 -6.027798637E+01 -2.354018033E+02  3.554760713E+02  1.250000000E+02  0.00000E+00  9.000E+00
      21     1     1     2   502   511  8.683888215E+00  1.624051881E+01 -6.397280945E+02  6.399931244E+02  7.629394531E-06  0.00000E+00  9.000E+00
#rwgt            1           1   3.9592634955148649E-002           1      146892           0
</event>
<event>
      5   9999  3.79277E-02  1.37648E+01 -1.00000E+00  1.80973E-01
      21    -1     0     0   512   501  0.000000000E+00  0.000000000E+00  3.241251564E+01  3.241251564E+01  0.000000000E+00  0.00000E+00  9.000E+00
      21    -1     0     0   501   502  0.000000000E+00  0.000000000E+00 -1.978581588E+03  1.978581588E+03  0.000000000E+00  0.00000E+00  9.000E+00
      25     1     1     2     0     0  1.597070578E+02  9.614143968E+01 -9.810208510E+02  1.006367940E+03  1.250000000E+02  0.00000E+00  9.000E+00
      25     1     1     2     0     0 -1.491161409E+02 -1.049336288E+02 -9.658661632E+02  9.908426389E+02  1.250000000E+02  0.00000E+00  9.000E+00
      21     1     1     2   512   502 -1.059091698E+01  8.792189082E+00  7.179417937E-01  1.378352465E+01  5.423081036E-07  0.00000E+00  9.000E+00
#rwgt            1           1   7.1633750632626725E-002           1      147065           0
</event>
<event>
      5   9999 -3.79277E-02  7.90588E+00 -1.00000E+00  2.08345E-01
      21    -1     0     0   502   501  0.000000000E+00  0.000000000E+00  2.123260904E+02  2.123260904E+02  0.000000000E+00  0.00000E+00  9.000E+00
      21    -1     0     0   501   511  0.000000000E+00  0.000000000E+00 -4.830864608E+02  4.830864608E+02  0.000000000E+00  0.00000E+00  9.000E+00
      25     1     1     2     0     0  4.307802321E+01 -9.402307742E+01  2.387403237E+00  1.622552152E+02  1.250000000E+02  0.00000E+00  9.000E+00
      25     1     1     2     0     0 -3.554826039E+01  9.161360468E+01  8.132729088E+01  1.785941198E+02  1.250000000E+02  0.00000E+00  9.000E+00
      21     1     1     2   502   511 -7.529762827E+00  2.409472738E+00 -3.544750646E+02  3.545632162E+02  0.000000000E+00  0.00000E+00  9.000E+00
#rwgt            1           1  -6.6813423947813713E-002           1      147262           0
</event>
<event>
      5   9999  3.79277E-02  5.23809E+01 -1.00000E+00  1.37933E-01
      21    -1     0     0   502   512  0.000000000E+00  0.000000000E+00  1.424211718E+03  1.424211718E+03  0.000000000E+00  0.00000E+00  9.000E+00
      21    -1     0     0   501   502  0.000000000E+00  0.000000000E+00 -1.260054760E+02  1.260054760E+02  0.000000000E+00  0.00000E+00  9.000E+00
      25     1     1     2     0     0  3.147502168E+02  1.725141675E+02  8.279670992E+02  9.110342224E+02  1.250000000E+02  0.00000E+00  9.000E+00
      25     1     1     2     0     0 -2.813948104E+02 -2.129020043E+02  3.714267273E+02  5.273453484E+02  1.250000000E+02  0.00000E+00  9.000E+00
      21     1     1     2   501   512 -3.335540639E+01  4.038783678E+01  9.881241582E+01  1.118376234E+02  1.907348633E-06  0.00000E+00  9.000E+00
#rwgt            1           1   4.9322772644115671E-002           1      147724           0
</event>
<event>
      5   9999  3.79277E-02  3.34355E+01 -1.00000E+00  1.49840E-01
      21    -1     0     0   502   501  0.000000000E+00  0.000000000E+00  2.308169959E+03  2.308169959E+03  0.000000000E+00  0.00000E+00  9.000E+00
      21    -1     0     0   511   502  0.000000000E+00  0.000000000E+00 -1.745794831E+01  1.745794831E+01  0.000000000E+00  0.00000E+00  9.000E+00
      25     1     1     2     0     0 -8.461080317E+01 -1.006990609E+02  1.326685236E+03  1.339036222E+03  1.250000000E+02  0.00000E+00  9.000E+00
      25     1     1     2     0     0  1.013728721E+02  7.176873899E+01  7.962981093E+02  8.155629283E+02  1.250000000E+02  0.00000E+00  9.000E+00
      21     1     1     2   511   501 -1.676206898E+01  2.893032192E+01  1.677286659E+02  1.710287574E+02  1.907348633E-06  0.00000E+00  9.000E+00
#rwgt            1           1   6.6033756812544933E-002           1      147915           0
</event>
<event>
      5   9999  3.79277E-02  1.53778E+01 -1.00000E+00  1.76372E-01
       2    -1     0     0   502     0  0.000000000E+00  0.000000000E+00  2.859234953E+03  2.859234953E+03  0.000000000E+00  0.00000E+00  9.000E+00
      21    -1     0     0   501   502  0.000000000E+00  0.000000000E+00 -4.448202441E+02  4.448202441E+02  0.000000000E+00  0.00000E+00  9.000E+00
      25     1     1     2     0     0 -1.087243397E+02 -4.584100515E+01 -2.068564127E+01  1.731336927E+02  1.250000000E+02  0.00000E+00  9.000E+00
      25     1     1     2     0     0  1.163294755E+02  3.247537709E+01 -3.261780879E+02  3.696002462E+02  1.250000000E+02  0.00000E+00  9.000E+00
       2     1     1     2   501     0 -7.605135844E+00  1.336562805E+01  2.761278438E+03  2.761321258E+03  0.000000000E+00  0.00000E+00  9.000E+00
#rwgt            1           1   5.3041050455384535E-002           1      148165           0
</event>
<event>
      5   9999  3.79277E-02  2.84282E+01 -1.00000E+00  1.54681E-01
      21    -1     0     0   502   501  0.000000000E+00  0.000000000E+00  1.253051769E+03  1.253051769E+03  0.000000000E+00  0.00000E+00  9.000E+00
      21    -1     0     0   501   511  0.000000000E+00  0.000000000E+00 -7.433064846E+01  7.433064846E+01  0.000000000E+00  0.00000E+00  9.000E+00
      25     1     1     2     0     0 -5.412909267E+01 -1.171436484E+02  3.144490492E+02  3.621543836E+02  1.250000000E+02  0.00000E+00  9.000E+00
      25     1     1     2     0     0  7.215326686E+01  1.391275667E+02  8.985813133E+02  9.206714671E+02  1.250000000E+02  0.00000E+00  9.000E+00
      21     1     1     2   502   511 -1.802417419E+01 -2.198391830E+01 -3.430924218E+01  4.455656650E+01  4.768371582E-07  0.00000E+00  9.000E+00
#rwgt            1           1   3.5105072693675438E-002           1      148479           0
</event>
<event>
      5   9999  3.79277E-02  8.62708E+01 -1.00000E+00  1.26783E-01
      21    -1     0     0   502   501  0.000000000E+00  0.000000000E+00  3.277771517E+02  3.277771517E+02  0.000000000E+00  0.00000E+00  9.000E+00
      21    -1     0     0   501   512  0.000000000E+00  0.000000000E+00 -1.603780886E+02  1.603780886E+02  0.000000000E+00  0.00000E+00  9.000E+00
      25     1     1     2     0     0 -9.354095624E+01 -1.013813402E+02  1.281671730E+02  2.260086522E+02  1.250000000E+02  0.00000E+00  9.000E+00
      25     1     1     2     0     0  1.060985512E+02  1.602938491E+01  5.651213111E+01  1.741621793E+02  1.250000000E+02  0.00000E+00  9.000E+00
      21     1     1     2   502   512 -1.255759491E+01  8.535195533E+01 -1.728024086E+01  8.798440881E+01  8.596304120E-07  0.00000E+00  9.000E+00
#rwgt            1           1   4.9815846138048021E-002           1      148574           0
</event>
<event>
      5   9999  3.79277E-02  8.83355E+01 -1.00000E+00  1.26300E-01
      21    -1     0     0   502   501  0.000000000E+00  0.000000000E+00  1.514664676E+02  1.514664676E+02  0.000000000E+00  0.00000E+00  9.000E+00
      21    -1     0     0   501   511  0.000000000E+00  0.000000000E+00 -4.936464348E+02  4.936464348E+02  0.000000000E+00  0.00000E+00  9.000E+00
      25     1     1     2     0     0  8.443016376E+01  2.067520414E+02 -1.123510190E+02  2.795042230E+02  1.250000000E+02  0.00000E+00  9.000E+00
      25     1     1     2     0     0 -9.272370308E+01 -1.188067216E+02 -1.647051519E+02  2.558622857E+02  1.250000000E+02  0.00000E+00  9.000E+00
      21     1     1     2   502   511  8.293539318E+00 -8.794531979E+01 -6.512379631E+01  1.097463936E+02  1.651812370E-06  0.00000E+00  9.000E+00
#rwgt            1           1   3.4087862727324149E-002           1      148686           0
</event>
<event>
      5   9999  3.79277E-02  4.09729E+01 -1.00000E+00  1.44196E-01
      21    -1     0     0   502   501  0.000000000E+00  0.000000000E+00  2.447653617E+02  2.447653617E+02  0.000000000E+00  0.00000E+00  9.000E+00
      21    -1     0     0   512   502  0.000000000E+00  0.000000000E+00 -4.488358350E+02  4.488358350E+02  0.000000000E+00  0.00000E+00  9.000E+00
      25     1     1     2     0     0  1.381805539E+02  1.269784695E+02  6.164195628E+01  2.337565571E+02  1.250000000E+02  0.00000E+00  9.000E+00
      25     1     1     2     0     0 -1.791361417E+02 -1.281708730E+02 -7.407245465E+01  2.638735653E+02  1.250000000E+02  0.00000E+00  9.000E+00
      21     1     1     2   512   501  4.095558779E+01  1.192403435E+00 -1.916399749E+02  1.959710743E+02  0.000000000E+00  0.00000E+00  9.000E+00
#rwgt            1           1   4.7025761262669073E-002           1      148743           0
</event>
<event>
      5   9999  3.79277E-02  2.03272E+01 -1.00000E+00  1.65790E-01
      21    -1     0     0   511   501  0.000000000E+00  0.000000000E+00  8.096918214E+02  8.096918214E+02  0.000000000E+00  0.00000E+00  9.000E+00
      21    -1     0     0   501   502  0.000000000E+00  0.000000000E+00 -8.968267421E+01  8.968267421E+01  0.000000000E+00  0.00000E+00  9.000E+00
      25     1     1     2     0     0 -5.043572162E+01  2.078565418E+02  4.134936087E+02  4.820270412E+02  1.250000000E+02  0.00000E+00  9.000E+00
      25     1     1     2     0     0  3.350902616E+01 -2.191119247E+02  2.477236199E+02  3.551406513E+02  1.250000000E+02  0.00000E+00  9.000E+00
      21     1     1     2   511   502  1.692669546E+01  1.125538285E+01  5.879191854E+01  6.220680306E+01  6.743495762E-07  0.00000E+00  9.000E+00
#rwgt            1           1   3.8482542254044058E-002           1      148887           0
</event>
<event>
      5   9999  3.79277E-02  7.66468E+01 -1.00000E+00  1.29256E-01
      21    -1     0     0   502   501  0.000000000E+00  0.000000000E+00  4.895921530E+01  4.895921530E+01  0.000000000E+00  0.00000E+00  9.000E+00
      21    -1     0     0   512   502  0.000000000E+00  0.000000000E+00 -2.867341616E+03  2.867341616E+03  0.000000000E+00  0.00000E+00  9.000E+00
      25     1     1     2     0     0 -2.274755824E+02  2.021865178E+02 -1.190905520E+03  1.235518307E+03  1.250000000E+02  0.00000E+00  9.000E+00
      25     1     1     2     0     0  1.648702114E+02 -1.579677135E+02 -6.482729744E+02  6.985834484E+02  1.250000000E+02  0.00000E+00  9.000E+00
      21     1     1     2   512   501  6.260537100E+01 -4.421880433E+01 -9.792039065E+02  9.821990764E+02  1.868812365E-05  0.00000E+00  9.000E+00
#rwgt            1           1   3.0008353597471910E-002           1      149045           0
</event>
<event>
      5   9999  3.79277E-02  6.70529E+01 -1.00000E+00  1.32174E-01
      21    -1     0     0   502   501  0.000000000E+00  0.000000000E+00  2.718274346E+01  2.718274346E+01  0.000000000E+00  0.00000E+00  9.000E+00
      21    -1     0     0   511   502  0.000000000E+00  0.000000000E+00 -2.334182067E+03  2.334182067E+03  0.000000000E+00  0.00000E+00  9.000E+00
      25     1     1     2     0     0  9.199732226E+01  9.381038642E+01 -4.430743979E+02  4.787523556E+02  1.250000000E+02  0.00000E+00  9.000E+00
      25     1     1     2     0     0 -1.437771922E+02 -5.120826496E+01 -1.427068343E+03  1.440639865E+03  1.250000000E+02  0.00000E+00  9.000E+00
      21     1     1     2   511   501  5.177986994E+01 -4.260212146E+01 -4.368565834E+02  4.419725898E+02  5.394796609E-06  0.00000E+00  9.000E+00
#rwgt            1           1   8.4258204277519788E-002           1      149101           0
</event>
<event>
      5   9999  3.79277E-02  1.02681E+02 -1.00000E+00  1.23313E-01
      21    -1     0     0   502   501  0.000000000E+00  0.000000000E+00  3.303243196E+01  3.303243196E+01  0.000000000E+00  0.00000E+00  9.000E+00
       2    -1     0     0   501     0  0.000000000E+00  0.000000000E+00 -2.966526396E+03  2.966526396E+03  0.000000000E+00  0.00000E+00  9.000E+00
      25     1     1     2     0     0  6.979091101E+00 -2.331394249E+02 -8.445944180E+02  8.850804653E+02  1.250000000E+02  0.00000E+00  9.000E+00
      25     1     1     2     0     0  7.167631375E+01  1.671338664E+02 -1.251403628E+03  1.270711322E+03  1.250000000E+02  0.00000E+00  9.000E+00
       2     1     1     2   502     0 -7.865540486E+01  6.600555845E+01 -8.374959175E+02  8.437670403E+02  1.525878906E-05  0.00000E+00  9.000E+00
#rwgt            1           1  0.11111171515629703                1      149182           0
</event>
<event>
      5   9999  3.79277E-02  7.22152E+01 -1.00000E+00  1.30539E-01
      21    -1     0     0   502   511  0.000000000E+00  0.000000000E+00  4.651943554E+02  4.651943554E+02  0.000000000E+00  0.00000E+00  9.000E+00
      21    -1     0     0   501   502  0.000000000E+00  0.000000000E+00 -1.463226748E+02  1.463226748E+02  0.000000000E+00  0.00000E+00  9.000E+00
      25     1     1     2     0     0  8.318654255E+01  1.857486730E+02  1.343457825E+02  2.740371501E+02  1.250000000E+02  0.00000E+00  9.000E+00
      25     1     1     2     0     0 -2.130668257E+01 -1.485207638E+02  8.137780855E+01  2.115649776E+02  1.250000000E+02  0.00000E+00  9.000E+00
      21     1     1     2   501   511 -6.187985998E+01 -3.722790917E+01  1.031480895E+02  1.259149025E+02  0.000000000E+00  0.00000E+00  9.000E+00
#rwgt            1           1   3.1490621578153008E-002           1      149280           0
</event>
<event>
      5   9999  3.79277E-02  1.90298E+01 -1.00000E+00  1.68171E-01
      21    -1     0     0   502   501  0.000000000E+00  0.000000000E+00  2.364763564E+02  2.364763564E+02  0.000000000E+00  0.00000E+00  9.000E+00
      21    -1     0     0   501   512  0.000000000E+00  0.000000000E+00 -3.053620059E+02  3.053620059E+02  0.000000000E+00  0.00000E+00  9.000E+00
      25     1     1     2     0     0 -9.875581579E+01 -7.375509359E+01 -1.922038879E+02  2.603072406E+02  1.250000000E+02  0.00000E+00  9.000E+00
      25     1     1     2     0     0  1.171141711E+02  7.876546983E+01  1.553376185E+02  2.442836549E+02  1.250000000E+02  0.00000E+00  9.000E+00
      21     1     1     2   502   512 -1.835835530E+01 -5.010376249E+00 -3.201938019E+01  3.724746685E+01  0.000000000E+00  0.00000E+00  9.000E+00
#rwgt            1           1   6.0496826519732129E-002           1      149443           0
</event>
<event>
      5   9999  3.79277E-02  2.27702E+01 -1.00000E+00  1.61851E-01
      21    -1     0     0   502   501  0.000000000E+00  0.000000000E+00  3.723923634E+02  3.723923634E+02  0.000000000E+00  0.00000E+00  9.000E+00
      21    -1     0     0   501   511  0.000000000E+00  0.000000000E+00 -3.067105208E+02  3.067105208E+02  0.000000000E+00  0.00000E+00  9.000E+00
      25     1     1     2     0     0 -1.926832632E+02  2.282007724E+02  4.831627207E+01  3.273559143E+02  1.250000000E+02  0.00000E+00  9.000E+00
      25     1     1     2     0     0  1.721015821E+02 -2.379412983E+02  3.750116407E+01  3.213508259E+02  1.250000000E+02  0.00000E+00  9.000E+00
      21     1     1     2   502   511  2.058168114E+01  9.740525853E+00 -2.013559357E+01  3.039614402E+01  2.384185791E-07  0.00000E+00  9.000E+00
#rwgt            1           1   3.6014986346242339E-002           1      149638           0
</event>
<event>
      5   9999  3.79277E-02  5.27640E+01 -1.00000E+00  1.37755E-01
      21    -1     0     0   502   501  0.000000000E+00  0.000000000E+00  7.198675241E+02  7.198675241E+02  0.000000000E+00  0.00000E+00  9.000E+00
      21    -1     0     0   501   512  0.000000000E+00  0.000000000E+00 -7.897544004E+01  7.897544004E+01  0.000000000E+00  0.00000E+00  9.000E+00
      25     1     1     2     0     0 -1.778929169E+02  6.623848434E+00  2.635497220E+02  3.417209699E+02  1.250000000E+02  0.00000E+00  9.000E+00
      25     1     1     2     0     0  1.435371323E+02  3.342265985E+01  3.444165814E+02  3.949275428E+02  1.250000000E+02  0.00000E+00  9.000E+00
      21     1     1     2   502   512  3.435578461E+01 -4.004650828E+01  3.292578065E+01  6.219445147E+01  1.168007728E-06  0.00000E+00  9.000E+00
#rwgt            1           1   3.7372174737707112E-002           1      149870           0
</event>
<event>
      5   9999  3.79277E-02  9.36742E+00 -1.00000E+00  1.99096E-01
      21    -1     0     0   502   501  0.000000000E+00  0.000000000E+00  2.340318525E+03  2.340318525E+03  0.000000000E+00  0.00000E+00  9.000E+00
      -3    -1     0     0     0   502  0.000000000E+00  0.000000000E+00 -1.076006970E+02  1.076006970E+02  0.000000000E+00  0.00000E+00  9.000E+00
      25     1     1     2     0     0 -1.001834680E+02  7.454001042E+01  4.351593086E+02  4.696611164E+02  1.250000000E+02  0.00000E+00  9.000E+00
      25     1     1     2     0     0  9.120963881E+01 -7.185319741E+01  1.883799762E+03  1.891509615E+03  1.250000000E+02  0.00000E+00  9.000E+00
      -3     1     1     2     0   501  8.973829155E+00 -2.686813015E+00 -8.624124294E+01  8.674849024E+01  4.473129043E-06  0.00000E+00  9.000E+00
#rwgt            1           1   8.4822504532175144E-002           1      150083           0
</event>
<event>
      5   9999  3.79277E-02  5.50615E+01 -1.00000E+00  1.36727E-01
      21    -1     0     0   502   511  0.000000000E+00  0.000000000E+00  3.532216543E+03  3.532216543E+03  0.000000000E+00  0.00000E+00  9.000E+00
      21    -1     0     0   501   502  0.000000000E+00  0.000000000E+00 -8.712880823E+02  8.712880823E+02  0.000000000E+00  0.00000E+00  9.000E+00
      25     1     1     2     0     0  2.254254760E+02  3.892893480E+02  2.000719129E+02  5.079533562E+02  1.250000000E+02  0.00000E+00  9.000E+00
      25     1     1     2     0     0 -1.925992949E+02 -4.334958480E+02 -6.332098849E+02  8.009949419E+02  1.250000000E+02  0.00000E+00  9.000E+00
      21     1     1     2   501   511 -3.282618117E+01  4.420649997E+01  3.094066432E+03  3.094556327E+03  0.000000000E+00  0.00000E+00  9.000E+00
#rwgt            1           1   3.0994892952963576E-002           1      150318           0
</event>
<event>
      5   9999  3.79277E-02  8.44222E+00 -1.00000E+00  2.04662E-01
      21    -1     0     0   502   501  0.000000000E+00  0.000000000E+00  5.418344771E+01  5.418344771E+01  0.000000000E+00  0.00000E+00  9.000E+00
      21    -1     0     0   501   512  0.000000000E+00  0.000000000E+00 -9.387572086E+02  9.387572086E+02  0.000000000E+00  0.00000E+00  9.000E+00
      25     1     1     2     0     0 -1.140093657E+02 -1.332468971E+02 -4.283496672E+02  4.794385346E+02  1.250000000E+02  0.00000E+00  9.000E+00
      25     1     1     2     0     0  1.209017905E+02  1.283719114E+02 -3.829325928E+02  4.397260070E+02  1.250000000E+02  0.00000E+00  9.000E+00
      21     1     1     2   502   512 -6.892424849E+00  4.874985749E+00 -7.329150080E+01  7.377611467E+01  9.536743164E-07  0.00000E+00  9.000E+00
#rwgt            1           1   2.3453224306023836E-002           1      150716           0
</event>
<event>
      5   9999 -3.79277E-02  9.32688E+00 -1.00000E+00  1.99322E-01
      21    -1     0     0   502   511  0.000000000E+00  0.000000000E+00  1.585073887E+02  1.585073887E+02  0.000000000E+00  0.00000E+00  9.000E+00
      21    -1     0     0   501   502  0.000000000E+00  0.000000000E+00 -1.341190891E+03  1.341190891E+03  0.000000000E+00  0.00000E+00  9.000E+00
      25     1     1     2     0     0  5.420204508E+01 -3.024737081E+02 -2.826104697E+02  4.358002792E+02  1.250000000E+02  0.00000E+00  9.000E+00
      25     1     1     2     0     0 -4.665631505E+01  2.969916855E+02 -9.545909606E+02  1.008588011E+03  1.250000000E+02  0.00000E+00  9.000E+00
      21     1     1     2   501   511 -7.545730027E+00  5.482022527E+00  5.451792750E+01  5.530999034E+01  1.907348633E-06  0.00000E+00  9.000E+00
#rwgt            1           1  -2.9534413191992851E-002           1      151131           0
</event>
<event>
      5   9999  3.79277E-02  2.28278E+01 -1.00000E+00  1.61766E-01
      21    -1     0     0   502   501  0.000000000E+00  0.000000000E+00  2.468837823E+02  2.468837823E+02  0.000000000E+00  0.00000E+00  9.000E+00
      21    -1     0     0   501   512  0.000000000E+00  0.000000000E+00 -2.168267285E+02  2.168267285E+02  0.000000000E+00  0.00000E+00  9.000E+00
      25     1     1     2     0     0 -4.900125530E+01  3.754183262E+01  2.312970943E+01  1.413170042E+02  1.250000000E+02  0.00000E+00  9.000E+00
      25     1     1     2     0     0  6.997382818E+01 -2.852742738E+01  1.310205645E+02  1.962180906E+02  1.250000000E+02  0.00000E+00  9.000E+00
      21     1     1     2   502   512 -2.097257288E+01 -9.014405234E+00 -1.240932202E+02  1.261754160E+02  0.000000000E+00  0.00000E+00  9.000E+00
#rwgt            1           1   8.3395529396011650E-002           1      151449           0
</event>
<event>
      5   9999  3.79277E-02  4.70678E+01 -1.00000E+00  1.40590E-01
      21    -1     0     0   511   501  0.000000000E+00  0.000000000E+00  1.182883023E+02  1.182883023E+02  0.000000000E+00  0.00000E+00  9.000E+00
      21    -1     0     0   501   502  0.000000000E+00  0.000000000E+00 -7.992667801E+02  7.992667801E+02  0.000000000E+00  0.00000E+00  9.000E+00
      25     1     1     2     0     0  2.006500579E+02  1.130857149E+02 -1.505409869E+02  3.022191480E+02  1.250000000E+02  0.00000E+00  9.000E+00
      25     1     1     2     0     0 -1.753701210E+02 -7.338298124E+01 -5.193203750E+02  5.669730092E+02  1.250000000E+02  0.00000E+00  9.000E+00
      21     1     1     2   511   502 -2.527993696E+01 -3.970273361E+01 -1.111711588E+01  4.836292521E+01  5.591411304E-07  0.00000E+00  9.000E+00
#rwgt            1           1   3.8512432409005752E-002           1      151559           0
</event>
<event>
      5   9999  3.79277E-02  7.17016E+01 -1.00000E+00  1.30695E-01
      21    -1     0     0   502   512  0.000000000E+00  0.000000000E+00  1.188174451E+02  1.188174451E+02  0.000000000E+00  0.00000E+00  9.000E+00
      21    -1     0     0   501   502  0.000000000E+00  0.000000000E+00 -7.639480518E+02  7.639480518E+02  0.000000000E+00  0.00000E+00  9.000E+00
      25     1     1     2     0     0 -3.249877113E+00  8.825024066E+01 -6.286286553E+02  6.469912310E+02  1.250000000E+02  0.00000E+00  9.000E+00
      25     1     1     2     0     0  6.925833820E+01 -6.025021568E+01 -4.028145533E+01  1.602323361E+02  1.250000000E+02  0.00000E+00  9.000E+00
      21     1     1     2   501   512 -6.600846109E+01 -2.800002497E+01  2.377950398E+01  7.554192971E+01  3.371747881E-07  0.00000E+00  9.000E+00
#rwgt            1           1   2.8581517457890525E-002           1      151702           0
</event>
<event>
      5   9999  3.79277E-02  6.86409E+01 -1.00000E+00  1.31653E-01
      21    -1     0     0   511   501  0.000000000E+00  0.000000000E+00  1.392867358E+03  1.392867358E+03  0.000000000E+00  0.00000E+00  9.000E+00
      21    -1     0     0   501   502  0.000000000E+00  0.000000000E+00 -5.547626524E+01  5.547626524E+01  0.000000000E+00  0.00000E+00  9.000E+00
      25     1     1     2     0     0  1.167361651E+02  2.706674835E+01  1.520807879E+02  2.304636786E+02  1.250000000E+02  0.00000E+00  9.000E+00
      25     1     1     2     0     0 -1.688383888E+02  1.762035857E+01  9.184158396E+02  9.423001289E+02  1.250000000E+02  0.00000E+00  9.000E+00
      21     1     1     2   511   502  5.210222372E+01 -4.468710692E+01  2.668944655E+02  2.755798159E+02  3.814697266E-06  0.00000E+00  9.000E+00
#rwgt            1           1   4.5699695534812707E-002           1      151874           0
</event>
<event>
      5   9999  3.79277E-02  4.44719E+01 -1.00000E+00  1.42042E-01
      21    -1     0     0   512   501  0.000000000E+00  0.000000000E+00  1.557973397E+02  1.557973397E+02  0.000000000E+00  0.00000E+00  9.000E+00
      21    -1     0     0   501   502  0.000000000E+00  0.000000000E+00 -5.668035623E+02  5.668035623E+02  0.000000000E+00  0.00000E+00  9.000E+00
      25     1     1     2     0     0 -1.000428320E+02 -1.289997209E+02 -1.637368874E+02  2.628388566E+02  1.250000000E+02  0.00000E+00  9.000E+00
      25     1     1     2     0     0  1.141011852E+02  1.711911190E+02 -3.039406418E+02  3.877246361E+02  1.250000000E+02  0.00000E+00  9.000E+00
      21     1     1     2   512   502 -1.405835321E+01 -4.219139805E+01  5.667130659E+01  7.203740942E+01  0.000000000E+00  0.00000E+00  9.000E+00
#rwgt            1           1   3.7307640825985110E-002           1      152003           0
</event>
<event>
      5   9999  3.79277E-02  1.71008E+01 -1.00000E+00  1.72184E-01
      21    -1     0     0   502   501  0.000000000E+00  0.000000000E+00  3.351184519E+02  3.351184519E+02  0.000000000E+00  0.00000E+00  9.000E+00
      21    -1     0     0   501   511  0.000000000E+00  0.000000000E+00 -2.092087881E+02  2.092087881E+02  0.000000000E+00  0.00000E+00  9.000E+00
      25     1     1     2     0     0  1.829089020E+02  2.445386310E+00  7.607417767E+01  2.342518449E+02  1.250000000E+02  0.00000E+00  9.000E+00
      25     1     1     2     0     0 -1.659875239E+02 -4.915733748E+00  1.185394337E+02  2.392751969E+02  1.250000000E+02  0.00000E+00  9.000E+00
      21     1     1     2   502   511 -1.692137810E+01  2.470347439E+00 -6.870394758E+01  7.080019821E+01  1.907348633E-06  0.00000E+00  9.000E+00
#rwgt            1           1   4.6574661559691095E-002           1      152161           0
</event>
<event>
      5   9999  3.79277E-02  3.09105E+01 -1.00000E+00  1.52143E-01
      21    -1     0     0   502   512  0.000000000E+00  0.000000000E+00  6.734432647E+02  6.734432647E+02  0.000000000E+00  0.00000E+00  9.000E+00
      21    -1     0     0   501   502  0.000000000E+00  0.000000000E+00 -1.158478093E+02  1.158478093E+02  0.000000000E+00  0.00000E+00  9.000E+00
      25     1     1     2     0     0 -3.447926990E+01 -9.415371310E+01 -1.454738757E+01  1.609048422E+02  1.250000000E+02  0.00000E+00  9.000E+00
      25     1     1     2     0     0  2.672603079E+01  6.423133639E+01  1.581924710E+02  2.132833870E+02  1.250000000E+02  0.00000E+00  9.000E+00
      21     1     1     2   501   512  7.753239112E+00  2.992237671E+01  4.139503719E+02  4.151028448E+02  5.394796609E-06  0.00000E+00  9.000E+00
#rwgt            1           1   4.0823070257000417E-002           1      152410           0
</event>
<event>
      5   9999 -3.79277E-02  4.54845E+01 -1.00000E+00  1.41462E-01
      21    -1     0     0   502   501  0.000000000E+00  0.000000000E+00  6.717116781E+02  6.717116781E+02  0.000000000E+00  0.00000E+00  9.000E+00
      21    -1     0     0   501   511  0.000000000E+00  0.000000000E+00 -4.723095026E+02  4.723095026E+02  0.000000000E+00  0.00000E+00  9.000E+00
      25     1     1     2     0     0  2.223659315E+02  9.162374409E+00  3.235897064E+02  4.121478553E+02  1.250000000E+02  0.00000E+00  9.000E+00
      25     1     1     2     0     0 -2.295524779E+02  3.575076469E+01  2.449182750E+02  3.599755807E+02  1.250000000E+02  0.00000E+00  9.000E+00
      21     1     1     2   502   511  7.186546430E+00 -4.491313910E+01 -3.691058059E+02  3.718977447E+02  0.000000000E+00  0.00000E+00  9.000E+00
#rwgt            1           1  -6.5008436172745390E-002           1      152503           0
</event>
<event>
      5   9999  3.79277E-02  9.50347E+01 -1.00000E+00  1.24831E-01
      21    -1     0     0   502   501  0.000000000E+00  0.000000000E+00  8.406588375E+02  8.406588375E+02  0.000000000E+00  0.00000E+00  9.000E+00
      21    -1     0     0   512   502  0.000000000E+00  0.000000000E+00 -8.249514006E+01  8.249514006E+01  0.000000000E+00  0.00000E+00  9.000E+00
      25     1     1     2     0     0 -6.880024543E+01 -2.241185697E+01  6.030935856E+02  6.201472713E+02  1.250000000E+02  0.00000E+00  9.000E+00
      25     1     1     2     0     0  4.663061430E+01 -7.000085026E+01  4.426961014E+01  1.570328998E+02  1.250000000E+02  0.00000E+00  9.000E+00
      21     1     1     2   512   501  2.216963113E+01  9.241270724E+01  1.108005017E+02  1.459738065E+02  2.336015456E-06  0.00000E+00  9.000E+00
#rwgt            1           1   2.7913623553547023E-002           1      152624           0
</event>
<event>
      5   9999  3.79277E-02  1.87327E+01 -1.00000E+00  1.68749E-01
      21    -1     0     0   502   501  0.000000000E+00  0.000000000E+00  1.102347765E+02  1.102347765E+02  0.000000000E+00  0.00000E+00  9.000E+00
      21    -1     0     0   511   502  0.000000000E+00  0.000000000E+00 -1.008619425E+03  1.008619425E+03  0.000000000E+00  0.00000E+00  9.000E+00
      25     1     1     2     0     0  1.229290647E+02  7.707263960E+01 -8.362899421E+02  8.579380013E+02  1.250000000E+02  0.00000E+00  9.000E+00
      25     1     1     2     0     0 -1.416502968E+02 -7.772730228E+01 -8.851993996E+00  2.044741986E+02  1.250000000E+02  0.00000E+00  9.000E+00
      21     1     1     2   511   501  1.872123208E+01  6.546626833E-01 -5.324271222E+01  5.644200137E+01  9.536743164E-07  0.00000E+00  9.000E+00
#rwgt            1           1   3.0565421147337644E-002           1      152710           0
</event>
<event>
      5   9999 -3.79277E-02  1.11063E+01 -1.00000E+00  1.90633E-01
      21    -1     0     0   502   501  0.000000000E+00  0.000000000E+00  1.289500021E+03  1.289500021E+03  0.000000000E+00  0.00000E+00  9.000E+00
      21    -1     0     0   501   512  0.000000000E+00  0.000000000E+00 -1.425184240E+03  1.425184240E+03  0.000000000E+00  0.00000E+00  9.000E+00
      25     1     1     2     0     0 -4.018708731E+00 -1.220750972E+02  9.729201026E+02  9.884922890E+02  1.250000000E+02  0.00000E+00  9.000E+00
      25     1     1     2     0     0 -3.434571375E+00  1.138411662E+02  2.856181874E+02  3.319252271E+02  1.250000000E+02  0.00000E+00  9.000E+00
      21     1     1     2   502   512  7.453280106E+00  8.233930981E+00 -1.394222509E+03  1.394266744E+03  1.525878906E-05  0.00000E+00  9.000E+00
#rwgt            1           1  -6.1778856300796929E-002           1      153018           0
</event>
<event>
      5   9999 -3.79277E-02  9.08432E+01 -1.00000E+00  1.25733E-01
      21    -1     0     0   502   501  0.000000000E+00  0.000000000E+00  1.413058902E+03  1.413058902E+03  0.000000000E+00  0.00000E+00  9.000E+00
      -4    -1     0     0     0   502  0.000000000E+00  0.000000000E+00 -1.149528413E+02  1.149528413E+02  0.000000000E+00  0.00000E+00  9.000E+00
      25     1     1     2     0     0 -2.527701025E+02  1.014882611E+02  2.725379162E+02  4.050858028E+02  1.250000000E+02  0.00000E+00  9.000E+00
      25     1     1     2     0     0  2.133882955E+02 -1.962515331E+01  9.974388341E+02  1.027827290E+03  1.250000000E+02  0.00000E+00  9.000E+00
      -4     1     1     2     0   501  3.938180699E+01 -8.186310777E+01  2.812931046E+01  9.509865006E+01  1.390207266E-06  0.00000E+00  9.000E+00
#rwgt            1           1  -5.7100848170214156E-003           1      153290           0
</event>
<event>
      5   9999  3.79277E-02  1.37683E+01 -1.00000E+00  1.80962E-01
      21    -1     0     0   502   501  0.000000000E+00  0.000000000E+00  7.868967834E+02  7.868967834E+02  0.000000000E+00  0.00000E+00  9.000E+00
      21    -1     0     0   501   511  0.000000000E+00  0.000000000E+00 -8.699650102E+01  8.699650102E+01  0.000000000E+00  0.00000E+00  9.000E+00
      25     1     1     2     0     0  2.756784833E+00 -7.604767362E+01  4.513881034E+01  1.531449011E+02  1.250000000E+02  0.00000E+00  9.000E+00
      25     1     1     2     0     0 -1.526107072E+01  8.181036808E+01  6.776217954E+02  6.940620536E+02  1.250000000E+02  0.00000E+00  9.000E+00
      21     1     1     2   502   511  1.250428589E+01 -5.762694461E+00 -2.286032336E+01  2.668632978E+01  3.371747881E-07  0.00000E+00  9.000E+00
#rwgt            1           1   5.1421259997306255E-002           1      153366           0
</event>
<event>
      5   9999  3.79277E-02  2.11391E+02 -1.00000E+00  1.10779E-01
      21    -1     0     0   512   501  0.000000000E+00  0.000000000E+00  2.829030264E+02  2.829030264E+02  0.000000000E+00  0.00000E+00  9.000E+00
      21    -1     0     0   501   502  0.000000000E+00  0.000000000E+00 -1.276547340E+03  1.276547340E+03  0.000000000E+00  0.00000E+00  9.000E+00
      25     1     1     2     0     0  2.387023307E+02  4.303500013E+01 -6.103846275E+02  6.685994372E+02  1.250000000E+02  0.00000E+00  9.000E+00
      25     1     1     2     0     0 -5.478720315E+01  6.118214310E+01 -5.818764770E+02  6.007912506E+02  1.250000000E+02  0.00000E+00  9.000E+00
      21     1     1     2   512   502 -1.839151275E+02 -1.042171432E+02  1.986167914E+02  2.900596782E+02  3.814697266E-06  0.00000E+00  9.000E+00
#rwgt            1           1   4.0671282646733212E-002           1      153701           0
</event>
<event>
      5   9999 -3.79277E-02  2.78347E+01 -1.00000E+00  1.55334E-01
      21    -1     0     0   502   511  0.000000000E+00  0.000000000E+00  2.546935801E+02  2.546935801E+02  0.000000000E+00  0.00000E+00  9.000E+00
      21    -1     0     0   501   502  0.000000000E+00  0.000000000E+00 -4.209991201E+02  4.209991201E+02  0.000000000E+00  0.00000E+00  9.000E+00
      25     1     1     2     0     0  1.397290913E+02  5.349189016E+00 -2.596520571E+02  3.203077014E+02  1.250000000E+02  0.00000E+00  9.000E+00
      25     1     1     2     0     0 -1.674575892E+02 -7.778941154E+00 -4.530858559E+01  2.139636045E+02  1.250000000E+02  0.00000E+00  9.000E+00
      21     1     1     2   501   511  2.772849786E+01  2.429752138E+00  1.386551027E+02  1.414213944E+02  1.907348633E-06  0.00000E+00  9.000E+00
#rwgt            1           1  -7.7288170794422725E-002           1      153854           0
</event>
<event>
      5   9999  3.79277E-02  1.56626E+02 -1.00000E+00  1.15654E-01
      21    -1     0     0   502   501  0.000000000E+00  0.000000000E+00  9.004247703E+02  9.004247703E+02  0.000000000E+00  0.00000E+00  9.000E+00
      21    -1     0     0   501   512  0.000000000E+00  0.000000000E+00 -1.784037861E+02  1.784037861E+02  0.000000000E+00  0.00000E+00  9.000E+00
      25     1     1     2     0     0 -4.054129970E+01  1.577541799E+02  4.777022952E+02  5.199562107E+02  1.250000000E+02  0.00000E+00  9.000E+00
      25     1     1     2     0     0  9.429393227E+01 -3.048672127E+02  1.967394483E+02  3.951794195E+02  1.250000000E+02  0.00000E+00  9.000E+00
      21     1     1     2   502   512 -5.375263257E+01  1.471130329E+02  4.757924082E+01  1.636929263E+02  0.000000000E+00  0.00000E+00  9.000E+00
#rwgt            2          11   2.7380485832734312E-003           1      154216           0
</event>
<event>
      5   9999  3.79277E-02  2.32962E+01 -1.00000E+00  1.61082E-01
      21    -1     0     0   502   501  0.000000000E+00  0.000000000E+00  1.895858643E+01  1.895858643E+01  0.000000000E+00  0.00000E+00  9.000E+00
      21    -1     0     0   501   511  0.000000000E+00  0.000000000E+00 -2.991379945E+03  2.991379945E+03  0.000000000E+00  0.00000E+00  9.000E+00
      25     1     1     2     0     0 -5.069733851E+00  1.739452889E+02 -1.543286755E+03  1.558089109E+03  1.250000000E+02  0.00000E+00  9.000E+00
      25     1     1     2     0     0 -8.411153284E+00 -1.929446776E+02 -1.193748761E+03  1.215713576E+03  1.250000000E+02  0.00000E+00  9.000E+00
      21     1     1     2   502   511  1.348088714E+01  1.899938868E+01 -2.353858430E+02  2.365358454E+02  3.814697266E-06  0.00000E+00  9.000E+00
#rwgt            1           1   4.5757127078534236E-002           1      154251           0
</event>
<event>
      5   9999  3.79277E-02  2.12459E+01 -1.00000E+00  1.64232E-01
      21    -1     0     0   502   501  0.000000000E+00  0.000000000E+00  5.949240375E+02  5.949240375E+02  0.000000000E+00  0.00000E+00  9.000E+00
      21    -1     0     0   512   502  0.000000000E+00  0.000000000E+00 -8.342603861E+01  8.342603861E+01  0.000000000E+00  0.00000E+00  9.000E+00
      25     1     1     2     0     0 -1.137286611E+00 -1.919011377E+01  5.109595344E+02  5.263783807E+02  1.250000000E+02  0.00000E+00  9.000E+00
      25     1     1     2     0     0 -1.483607421E+00 -1.893526593E+00  1.550869833E+01  1.259813727E+02  1.250000000E+02  0.00000E+00  9.000E+00
      21     1     1     2   512   501  2.620894031E+00  2.108364036E+01 -1.497023382E+01  2.599032275E+01  1.685873940E-07  0.00000E+00  9.000E+00
#rwgt            1           1   2.3979793086756608E-002           1      154454           0
</event>
<event>
      5   9999  3.79277E-02  1.71626E+01 -1.00000E+00  1.72045E-01
      21    -1     0     0   502   511  0.000000000E+00  0.000000000E+00  3.598120396E+02  3.598120396E+02  0.000000000E+00  0.00000E+00  9.000E+00
      21    -1     0     0   501   502  0.000000000E+00  0.000000000E+00 -1.626068817E+02  1.626068817E+02  0.000000000E+00  0.00000E+00  9.000E+00
      25     1     1     2     0     0  1.077567696E+01 -6.690788785E+01 -1.046332976E+02  1.765386860E+02  1.250000000E+02  0.00000E+00  9.000E+00
      25     1     1     2     0     0 -1.589637482E+01  8.328881118E+01  2.605383712E+02  3.011560454E+02  1.250000000E+02  0.00000E+00  9.000E+00
      21     1     1     2   501   511  5.120697859E+00 -1.638092333E+01  4.130008444E+01  4.472418999E+01  4.768371582E-07  0.00000E+00  9.000E+00
#rwgt            1           1   3.4134438525790518E-002           1      154602           0
</event>
<event>
      5   9999  3.79277E-02  8.16190E+01 -1.00000E+00  1.27930E-01
      21    -1     0     0   502   501  0.000000000E+00  0.000000000E+00  3.309208375E+02  3.309208375E+02  0.000000000E+00  0.00000E+00  9.000E+00
      21    -1     0     0   501   512  0.000000000E+00  0.000000000E+00 -8.823477546E+02  8.823477546E+02  0.000000000E+00  0.00000E+00  9.000E+00
      25     1     1     2     0     0  1.311351629E+02  3.842412055E+02 -1.241397361E+02  4.425758794E+02  1.250000000E+02  0.00000E+00  9.000E+00
      25     1     1     2     0     0 -1.443996505E+02 -4.647751076E+02 -2.211753454E+02  5.490088279E+02  1.250000000E+02  0.00000E+00  9.000E+00
      21     1     1     2   502   512  1.326448763E+01  8.053390209E+01 -2.061118355E+02  2.216838848E+02  2.697398305E-06  0.00000E+00  9.000E+00
#rwgt            1           1  0.12820368820150663                1      154993           0
</event>
<event>
      5   9999  3.79277E-02  2.19578E+02 -1.00000E+00  1.10191E-01
       2    -1     0     0   502     0  0.000000000E+00  0.000000000E+00  4.797436011E+02  4.797436011E+02  0.000000000E+00  0.00000E+00  9.000E+00
      21    -1     0     0   501   502  0.000000000E+00  0.000000000E+00 -2.606203781E+02  2.606203781E+02  0.000000000E+00  0.00000E+00  9.000E+00
      25     1     1     2     0     0 -4.191260301E+01  6.338650927E+01 -6.509098287E+01  1.601135594E+02  1.250000000E+02  0.00000E+00  9.000E+00
      25     1     1     2     0     0 -1.045390420E+02 -2.269905153E+02  1.113529023E+02  3.007949039E+02  1.250000000E+02  0.00000E+00  9.000E+00
       2     1     1     2   501     0  1.464516451E+02  1.636040060E+02  1.728613036E+02  2.794555160E+02  2.697398305E-06  0.00000E+00  9.000E+00
#rwgt            1           1   1.6180286843866496E-002           1      155146           0
</event>
<event>
      5   9999  3.79277E-02  6.87717E+01 -1.00000E+00  1.31611E-01
       2    -1     0     0   502     0  0.000000000E+00  0.000000000E+00  4.830297392E+02  4.830297392E+02  0.000000000E+00  0.00000E+00  9.000E+00
      21    -1     0     0   501   502  0.000000000E+00  0.000000000E+00 -1.727993335E+02  1.727993335E+02  0.000000000E+00  0.00000E+00  9.000E+00
      25     1     1     2     0     0  1.231440617E+02  4.701000864E+01  9.755620035E+01  2.061955700E+02  1.250000000E+02  0.00000E+00  9.000E+00
      25     1     1     2     0     0 -1.912679620E+02 -3.759317514E+01  5.809053510E+00  2.316364074E+02  1.250000000E+02  0.00000E+00  9.000E+00
       2     1     1     2   501     0  6.812390030E+01 -9.416833499E+00  2.068651518E+02  2.179970953E+02  2.697398305E-06  0.00000E+00  9.000E+00
#rwgt            1           1   3.8859405056496633E-002           1      155262           0
</event>
<event>
      5   9999  3.79277E-02  8.89383E+00 -1.00000E+00  2.01833E-01
      21    -1     0     0   502   511  0.000000000E+00  0.000000000E+00  1.350816873E+02  1.350816873E+02  0.000000000E+00  0.00000E+00  9.000E+00
      21    -1     0     0   501   502  0.000000000E+00  0.000000000E+00 -7.000391285E+02  7.000391285E+02  0.000000000E+00  0.00000E+00  9.000E+00
      25     1     1     2     0     0  1.282864510E+02  1.533427048E+02 -5.314151561E+02  5.813763555E+02  1.250000000E+02  0.00000E+00  9.000E+00
      25     1     1     2     0     0 -1.243608705E+02 -1.613233069E+02 -4.057115742E+01  2.424084451E+02  1.250000000E+02  0.00000E+00  9.000E+00
      21     1     1     2   501   511 -3.925580470E+00  7.980602075E+00  7.028872378E+00  1.133601510E+01  2.064765462E-07  0.00000E+00  9.000E+00
#rwgt            1           1   4.6519182579803510E-002           1      155455           0
</event>
<event>
      5   9999  3.79277E-02  9.46472E+00 -1.00000E+00  1.98560E-01
      21    -1     0     0   502   512  0.000000000E+00  0.000000000E+00  5.179353015E+01  5.179353015E+01  0.000000000E+00  0.00000E+00  9.000E+00
      21    -1     0     0   501   502  0.000000000E+00  0.000000000E+00 -9.150754728E+02  9.150754728E+02  0.000000000E+00  0.00000E+00  9.000E+00
      25     1     1     2     0     0 -5.406769042E+00  1.623697650E+02 -4.302438406E+02  4.765794122E+02  1.250000000E+02  0.00000E+00  9.000E+00
      25     1     1     2     0     0 -3.416118948E+00 -1.657957689E+02 -4.336460496E+02  4.808053693E+02  1.250000000E+02  0.00000E+00  9.000E+00
      21     1     1     2   501   512  8.822887990E+00  3.426003906E+00  6.079475664E-01  9.484221396E+00  1.835627108E-07  0.00000E+00  9.000E+00
#rwgt            1           1   3.4676673294021770E-002           1      155757           0
</event>
<event>
      5   9999  3.79277E-02  5.66626E+01 -1.00000E+00  1.36045E-01
      21    -1     0     0   502   501  0.000000000E+00  0.000000000E+00  1.846907289E+02  1.846907289E+02  0.000000000E+00  0.00000E+00  9.000E+00
      21    -1     0     0   511   502  0.000000000E+00  0.000000000E+00 -4.769135190E+02  4.769135190E+02  0.000000000E+00  0.00000E+00  9.000E+00
      25     1     1     2     0     0  4.642968583E+01  2.093875776E+02 -7.065546508E+01  2.581008875E+02  1.250000000E+02  0.00000E+00  9.000E+00
      25     1     1     2     0     0 -9.691129117E+00 -1.662491119E+02 -3.835384456E+01  2.117278975E+02  1.250000000E+02  0.00000E+00  9.000E+00
      21     1     1     2   511   501 -3.673855672E+01 -4.313846568E+01 -1.832134804E+02  1.917754629E+02  2.697398305E-06  0.00000E+00  9.000E+00
#rwgt            2          11   1.0335514325885465E-003           1      156143           0
</event>
<event>
      5   9999  3.79277E-02  5.46859E+01 -1.00000E+00  1.36892E-01
      21    -1     0     0   512   501  0.000000000E+00  0.000000000E+00  1.783779014E+02  1.783779014E+02  0.000000000E+00  0.00000E+00  9.000E+00
      21    -1     0     0   501   502  0.000000000E+00  0.000000000E+00 -5.481765078E+02  5.481765078E+02  0.000000000E+00  0.00000E+00  9.000E+00
      25     1     1     2     0     0 -2.208398527E+02  9.025558227E+00 -2.393654694E+02  3.489592084E+02  1.250000000E+02  0.00000E+00  9.000E+00
      25     1     1     2     0     0  2.721504128E+02  9.889243964E+00 -1.089005001E+02  3.188227772E+02  1.250000000E+02  0.00000E+00  9.000E+00
      21     1     1     2   512   502 -5.131056011E+01 -1.891480219E+01 -2.153263700E+01  5.877242361E+01  3.371747881E-07  0.00000E+00  9.000E+00
#rwgt            1           1   2.4941703752831022E-002           1      156163           0
</event>
<event>
      5   9999  3.79277E-02  3.42965E+01 -1.00000E+00  1.49109E-01
      21    -1     0     0   502   501  0.000000000E+00  0.000000000E+00  9.403907926E+02  9.403907926E+02  0.000000000E+00  0.00000E+00  9.000E+00
      21    -1     0     0   511   502  0.000000000E+00  0.000000000E+00 -2.407620754E+02  2.407620754E+02  0.000000000E+00  0.00000E+00  9.000E+00
      25     1     1     2     0     0 -9.307989428E+01 -1.462378188E+02  1.463592147E+02  2.590277709E+02  1.250000000E+02  0.00000E+00  9.000E+00
      25     1     1     2     0     0  1.012506180E+02  1.129287948E+02  7.228588936E+02  7.491025166E+02  1.250000000E+02  0.00000E+00  9.000E+00
      21     1     1     2   511   501 -8.170723747E+00  3.330902398E+01 -1.695893911E+02  1.730225805E+02  3.303624740E-06  0.00000E+00  9.000E+00
#rwgt            1           1   3.9675368225790826E-002           1      156419           0
</event>
<event>
      5   9999  3.79277E-02  2.31783E+01 -1.00000E+00  1.61252E-01
      21    -1     0     0   502   501  0.000000000E+00  0.000000000E+00  6.161510415E+02  6.161510415E+02  0.000000000E+00  0.00000E+00  9.000E+00
      21    -1     0     0   512   502  0.000000000E+00  0.000000000E+00 -2.181123541E+02  2.181123541E+02  0.000000000E+00  0.00000E+00  9.000E+00
      25     1     1     2     0     0  8.566572141E+01  2.558701180E+02  3.161087089E+02  4.340021301E+02  1.250000000E+02  0.00000E+00  9.000E+00
      25     1     1     2     0     0 -8.545906480E+01 -2.326927709E+02  1.588978102E+02  3.198791826E+02  1.250000000E+02  0.00000E+00  9.000E+00
      21     1     1     2   512   501 -2.066566054E-01 -2.317734707E+01 -7.696783173E+01  8.038208287E+01  0.000000000E+00  0.00000E+00  9.000E+00
#rwgt            1           1   4.1415840382057693E-002           1      156704           0
</event>
<event>
      5   9999  3.79277E-02  4.92906E+00 -1.00000E+00  2.43781E-01
      21    -1     0     0   511   501  0.000000000E+00  0.000000000E+00  5.587559995E+02  5.587559995E+02  0.000000000E+00  0.00000E+00  9.000E+00
      21    -1     0     0   501   502  0.000000000E+00  0.000000000E+00 -6.246478707E+02  6.246478707E+02  0.000000000E+00  0.00000E+00  9.000E+00
      25     1     1     2     0     0  2.449434475E+01  1.092868418E+02 -5.117403949E+02  5.385599489E+02  1.250000000E+02  0.00000E+00  9.000E+00
      25     1     1     2     0     0 -2.867137350E+01 -1.119037191E+02 -2.668609394E+01  1.722835965E+02  1.250000000E+02  0.00000E+00  9.000E+00
      21     1     1     2   511   502  4.177028748E+00  2.616877335E+00  4.725346178E+02  4.725603248E+02  5.394796609E-06  0.00000E+00  9.000E+00
#rwgt            1           1   4.4063132776117175E-002           1      156894           0
</event>
<event>
      5   9999  3.79277E-02  1.08210E+02 -1.00000E+00  1.22306E-01
      21    -1     0     0   502   501  0.000000000E+00  0.000000000E+00  1.933850503E+02  1.933850503E+02  0.000000000E+00  0.00000E+00  9.000E+00
      21    -1     0     0   512   502  0.000000000E+00  0.000000000E+00 -4.925964894E+02  4.925964894E+02  0.000000000E+00  0.00000E+00  9.000E+00
      25     1     1     2     0     0 -9.177773555E+00  1.568660326E+02 -1.617772307E+01  2.014395751E+02  1.250000000E+02  0.00000E+00  9.000E+00
      25     1     1     2     0     0  1.109091443E+02 -1.199860748E+02 -2.815263729E+01  2.076416803E+02  1.250000000E+02  0.00000E+00  9.000E+00
      21     1     1     2   512   501 -1.017313707E+02 -3.687995778E+01 -2.548810788E+02  2.769002842E+02  4.672030912E-06  0.00000E+00  9.000E+00
#rwgt            1           1  0.11995881573183596                1      157314           0
</event>
<event>
      5   9999  3.79277E-02  8.54459E+01 -1.00000E+00  1.26980E-01
      21    -1     0     0   511   501  0.000000000E+00  0.000000000E+00  4.640035097E+02  4.640035097E+02  0.000000000E+00  0.00000E+00  9.000E+00
      21    -1     0     0   501   502  0.000000000E+00  0.000000000E+00 -1.932709581E+02  1.932709581E+02  0.000000000E+00  0.00000E+00  9.000E+00
      25     1     1     2     0     0 -1.040297934E+02  1.112814807E+02  1.793426833E+01  1.978696638E+02  1.250000000E+02  0.00000E+00  9.000E+00
      25     1     1     2     0     0  2.316924581E+01 -1.388961841E+02 -4.442115503E+00  1.883446211E+02  1.250000000E+02  0.00000E+00  9.000E+00
      21     1     1     2   511   502  8.086054758E+01  2.761470344E+01  2.572403987E+02  2.710601829E+02  5.394796609E-06  0.00000E+00  9.000E+00
#rwgt            1           1   3.8964788658453785E-002           1      157382           0
</event>
<event>
      5   9999  3.79277E-02  3.43183E+01 -1.00000E+00  1.49091E-01
      21    -1     0     0   502   501  0.000000000E+00  0.000000000E+00  9.321615151E+02  9.321615151E+02  0.000000000E+00  0.00000E+00  9.000E+00
      21    -1     0     0   501   512  0.000000000E+00  0.000000000E+00 -1.255395753E+02  1.255395753E+02  0.000000000E+00  0.00000E+00  9.000E+00
      25     1     1     2     0     0 -1.431074765E+02  1.155993357E+02  4.344382933E+02  4.880620728E+02  1.250000000E+02  0.00000E+00  9.000E+00
      25     1     1     2     0     0  1.673942058E+02 -1.398459397E+02  4.324908419E+02  5.002509723E+02  1.250000000E+02  0.00000E+00  9.000E+00
      21     1     1     2   502   512 -2.428672931E+01  2.424660403E+01 -6.030719530E+01  6.938804532E+01  1.507891493E-06  0.00000E+00  9.000E+00
#rwgt            1           1   3.8807036827681156E-002           1      157484           0
</event>
<event>
      5   9999 -3.79277E-02  6.88508E+01 -1.00000E+00  1.31586E-01
      21    -1     0     0   502   511  0.000000000E+00  0.000000000E+00  7.750917004E+01  7.750917004E+01  0.000000000E+00  0.00000E+00  9.000E+00
      21    -1     0     0   501   502  0.000000000E+00  0.000000000E+00 -1.160305477E+03  1.160305477E+03  0.000000000E+00  0.00000E+00  9.000E+00
      25     1     1     2     0     0 -5.578402724E-01 -1.406480148E+02 -7.659333649E+02  7.887084979E+02  1.250000000E+02  0.00000E+00  9.000E+00
      25     1     1     2     0     0 -1.123898900E+01  2.084806490E+02 -2.801497015E+02  3.710786320E+02  1.250000000E+02  0.00000E+00  9.000E+00
      21     1     1     2   501   511  1.179682928E+01 -6.783263413E+01 -3.671324106E+01  7.802751760E+01  1.966049969E-06  0.00000E+00  9.000E+00
#rwgt            1           1  -6.2185102472026250E-002           1      157566           0
</event>
<event>
      5   9999  3.79277E-02  6.62707E+01 -1.00000E+00  1.32436E-01
      21    -1     0     0   512   501  0.000000000E+00  0.000000000E+00  8.219777195E+01  8.219777195E+01  0.000000000E+00  0.00000E+00  9.000E+00
      21    -1     0     0   501   502  0.000000000E+00  0.000000000E+00 -6.710163468E+02  6.710163468E+02  0.000000000E+00  0.00000E+00  9.000E+00
      25     1     1     2     0     0  1.040140661E+02  1.574711372E+02 -3.077559016E+02  3.820402858E+02  1.250000000E+02  0.00000E+00  9.000E+00
      25     1     1     2     0     0 -7.299655434E+01 -9.890729704E+01 -2.173495398E+02  2.792435725E+02  1.250000000E+02  0.00000E+00  9.000E+00
      21     1     1     2   512   502 -3.101751177E+01 -5.856384012E+01 -6.371313343E+01  9.193026040E+01  1.507891493E-06  0.00000E+00  9.000E+00
#rwgt            1           1   4.7376347050900450E-002           1      157690           0
</event>
<event>
      5   9999  3.79277E-02  6.17889E+01 -1.00000E+00  1.34025E-01
      21    -1     0     0   511   501  0.000000000E+00  0.000000000E+00  1.602817944E+03  1.602817944E+03  0.000000000E+00  0.00000E+00  9.000E+00
      21    -1     0     0   501   502  0.000000000E+00  0.000000000E+00 -4.085183645E+01  4.085183645E+01  0.000000000E+00  0.00000E+00  9.000E+00
      25     1     1     2     0     0  1.261229597E+02  1.307913968E+02  4.210307647E+02  4.752949560E+02  1.250000000E+02  0.00000E+00  9.000E+00
      25     1     1     2     0     0 -6.538543090E+01 -1.194415571E+02  7.416638379E+02  7.643505666E+02  1.250000000E+02  0.00000E+00  9.000E+00
      21     1     1     2   511   502 -6.073752876E+01 -1.134983965E+01  3.992715049E+02  4.040242578E+02  0.000000000E+00  0.00000E+00  9.000E+00
#rwgt            1           1   3.5863063501875368E-002           1      157812           0
</event>
<event>
      5   9999  3.79277E-02  7.65953E+01 -1.00000E+00  1.29270E-01
       2    -1     0     0   502     0  0.000000000E+00  0.000000000E+00  1.045135199E+03  1.045135199E+03  0.000000000E+00  0.00000E+00  9.000E+00
      21    -1     0     0   501   502  0.000000000E+00  0.000000000E+00 -2.979138513E+02  2.979138513E+02  0.000000000E+00  0.00000E+00  9.000E+00
      25     1     1     2     0     0 -1.638069983E+02 -8.345334234E+01 -5.181121275E+01  2.282686899E+02  1.250000000E+02  0.00000E+00  9.000E+00
      25     1     1     2     0     0  1.138326749E+02  1.414999461E+02 -7.841517703E+01  2.339958389E+02  1.250000000E+02  0.00000E+00  9.000E+00
       2     1     1     2   501     0  4.997432339E+01 -5.804660373E+01  8.774477371E+02  8.807845211E+02  1.078959322E-05  0.00000E+00  9.000E+00
#rwgt            1           1   3.3858079047572792E-002           1      158081           0
</event>
<event>
      5   9999  3.79277E-02  8.39539E+00 -1.00000E+00  2.04968E-01
      21    -1     0     0   511   501  0.000000000E+00  0.000000000E+00  1.974305599E+02  1.974305599E+02  0.000000000E+00  0.00000E+00  9.000E+00
      21    -1     0     0   501   502  0.000000000E+00  0.000000000E+00 -6.585645862E+02  6.585645862E+02  0.000000000E+00  0.00000E+00  9.000E+00
      25     1     1     2     0     0  4.981536324E+01  1.022812485E+02 -1.850879159E+02  2.506502759E+02  1.250000000E+02  0.00000E+00  9.000E+00
      25     1     1     2     0     0 -4.455752933E+01 -9.573618883E+01 -4.253840184E+02  4.557711645E+02  1.250000000E+02  0.00000E+00  9.000E+00
      21     1     1     2   511   502 -5.257833904E+00 -6.545059678E+00  1.493379081E+02  1.495737056E+02  1.907348633E-06  0.00000E+00  9.000E+00
#rwgt            1           1   2.9993417124242788E-002           1      158238           0
</event>
<event>
      5   9999  3.79277E-02  1.23795E+01 -1.00000E+00  1.85617E-01
      21    -1     0     0   512   501  0.000000000E+00  0.000000000E+00  1.668225649E+03  1.668225649E+03  0.000000000E+00  0.00000E+00  9.000E+00
      21    -1     0     0   501   502  0.000000000E+00  0.000000000E+00 -3.140731580E+01  3.140731580E+01  0.000000000E+00  0.00000E+00  9.000E+00
      25     1     1     2     0     0  1.029186950E+02  6.159646218E+01  5.611951774E+02  5.873256415E+02  1.250000000E+02  0.00000E+00  9.000E+00
      25     1     1     2     0     0 -1.139466062E+02 -6.722115901E+01  4.347172492E+02  4.712818690E+02  1.250000000E+02  0.00000E+00  9.000E+00
      21     1     1     2   512   502  1.102791118E+01  5.624696826E+00  6.409059064E+02  6.410254542E+02  0.000000000E+00  0.00000E+00  9.000E+00
#rwgt            1           1   4.7048977833025266E-002           1      158474           0
</event>
<event>
      5   9999  3.79277E-02  5.57768E+01 -1.00000E+00  1.36419E-01
      21    -1     0     0   502   501  0.000000000E+00  0.000000000E+00  4.521461743E+02  4.521461743E+02  0.000000000E+00  0.00000E+00  9.000E+00
      21    -1     0     0   511   502  0.000000000E+00  0.000000000E+00 -6.558690461E+02  6.558690461E+02  0.000000000E+00  0.00000E+00  9.000E+00
      25     1     1     2     0     0  1.639664216E+02 -6.539451038E+01 -5.561036456E+02  5.966889425E+02  1.250000000E+02  0.00000E+00  9.000E+00
      25     1     1     2     0     0 -1.517051973E+02  1.198069849E+02  3.836255199E+02  4.473943675E+02  1.250000000E+02  0.00000E+00  9.000E+00
      21     1     1     2   511   501 -1.226122431E+01 -5.441247457E+01 -3.124474607E+01  6.393191040E+01  8.259061849E-07  0.00000E+00  9.000E+00
#rwgt            1           1  0.12525532729742977                1      158738           0
</event>
<event>
      5   9999  3.79277E-02  2.19733E+01 -1.00000E+00  1.63066E-01
      21    -1     0     0   512   501  0.000000000E+00  0.000000000E+00  6.908741413E+01  6.908741413E+01  0.000000000E+00  0.00000E+00  9.000E+00
      21    -1     0     0   501   502  0.000000000E+00  0.000000000E+00 -5.194274333E+02  5.194274333E+02  0.000000000E+00  0.00000E+00  9.000E+00
      25     1     1     2     0     0 -2.752838966E+00 -1.086520429E+02 -2.966008108E+02  3.397203048E+02  1.250000000E+02  0.00000E+00  9.000E+00
      25     1     1     2     0     0 -1.758896080E+01  1.169609735E+02 -1.454082754E+02  2.252949343E+02  1.250000000E+02  0.00000E+00  9.000E+00
      21     1     1     2   512   502  2.034179977E+01 -8.308930653E+00 -8.330933011E+00  2.349960832E+01  4.460403188E-07  0.00000E+00  9.000E+00
#rwgt            1           1   2.7393027374185055E-002           1      158889           0
</event>
<event>
      5   9999  3.79277E-02  2.98720E+01 -1.00000E+00  1.53169E-01
      21    -1     0     0   502   501  0.000000000E+00  0.000000000E+00  6.497023758E+01  6.497023758E+01  0.000000000E+00  0.00000E+00  9.000E+00
      21    -1     0     0   511   502  0.000000000E+00  0.000000000E+00 -9.326041316E+02  9.326041316E+02  0.000000000E+00  0.00000E+00  9.000E+00
      25     1     1     2     0     0  5.488688906E+01  1.485217029E+02 -1.948596066E+02  2.804755481E+02  1.250000000E+02  0.00000E+00  9.000E+00
      25     1     1     2     0     0 -8.327471994E+01 -1.578205354E+02 -5.764043572E+02  6.162053094E+02  1.250000000E+02  0.00000E+00  9.000E+00
      21     1     1     2   511   501  2.838783089E+01  9.298832420E+00 -9.636993022E+01  1.008935116E+02  1.907348633E-06  0.00000E+00  9.000E+00
#rwgt            1           1   3.9690290862581891E-002           1      159034           0
</event>
<event>
      5   9999  3.79277E-02  3.17116E+01 -1.00000E+00  1.51385E-01
      21    -1     0     0   512   501  0.000000000E+00  0.000000000E+00  6.597067898E+02  6.597067898E+02  0.000000000E+00  0.00000E+00  9.000E+00
      21    -1     0     0   501   502  0.000000000E+00  0.000000000E+00 -1.247244657E+02  1.247244657E+02  0.000000000E+00  0.00000E+00  9.000E+00
      25     1     1     2     0     0  1.102471232E+02 -6.504715039E+01  6.296800730E+01  1.896721642E+02  1.250000000E+02  0.00000E+00  9.000E+00
      25     1     1     2     0     0 -1.309356085E+02  4.101363895E+01  8.109027201E+01  2.025509426E+02  1.250000000E+02  0.00000E+00  9.000E+00
      21     1     1     2   512   502  2.068848530E+01  2.403351144E+01  3.909240448E+02  3.922081487E+02  0.000000000E+00  0.00000E+00  9.000E+00
#rwgt            1           1   4.2484552235721819E-002           1      159238           0
</event>
<event>
      5   9999  3.79277E-02  1.55576E+01 -1.00000E+00  1.75903E-01
      21    -1     0     0   502   501  0.000000000E+00  0.000000000E+00  1.007698136E+02  1.007698136E+02  0.000000000E+00  0.00000E+00  9.000E+00
      21    -1     0     0   501   511  0.000000000E+00  0.000000000E+00 -1.118970235E+03  1.118970235E+03  0.000000000E+00  0.00000E+00  9.000E+00
      25     1     1     2     0     0  2.560293260E+02 -6.433177169E+01 -6.025645588E+02  6.696257463E+02  1.250000000E+02  0.00000E+00  9.000E+00
      25     1     1     2     0     0 -2.472613067E+02  5.148022346E+01 -2.297842568E+02  3.636126674E+02  1.250000000E+02  0.00000E+00  9.000E+00
      21     1     1     2   502   511 -8.768019362E+00  1.285154822E+01 -1.858516054E+02  1.865016346E+02  2.697398305E-06  0.00000E+00  9.000E+00
#rwgt            1           1   3.7546620723372788E-002           1      159346           0
</event>
<event>
      5   9999  3.79277E-02  1.01653E+01 -1.00000E+00  1.94938E-01
      21    -1     0     0   502   501  0.000000000E+00  0.000000000E+00  7.744257489E+02  7.744257489E+02  0.000000000E+00  0.00000E+00  9.000E+00
      21    -1     0     0   512   502  0.000000000E+00  0.000000000E+00 -6.895166491E+01  6.895166491E+01  0.000000000E+00  0.00000E+00  9.000E+00
      25     1     1     2     0     0  1.319832267E+01 -1.695898425E+02  5.026113532E+02  5.451404248E+02  1.250000000E+02  0.00000E+00  9.000E+00
      25     1     1     2     0     0 -2.217757588E+01  1.648247555E+02  1.892416580E+02  2.812409110E+02  1.250000000E+02  0.00000E+00  9.000E+00
      21     1     1     2   512   501  8.979253215E+00  4.765087013E+00  1.362107284E+01  1.699607802E+01  2.384185791E-07  0.00000E+00  9.000E+00
#rwgt            1           1   4.5067673162104117E-002           1      159585           0
</event>
<event>
      5   9999  3.79277E-02  5.89580E+02 -1.00000E+00  9.68604E-02
      21    -1     0     0   502   501  0.000000000E+00  0.000000000E+00  1.598392649E+02  1.598392649E+02  0.000000000E+00  0.00000E+00  9.000E+00
       1    -1     0     0   501     0  0.000000000E+00  0.000000000E+00 -2.676246657E+03  2.676246657E+03  0.000000000E+00  0.00000E+00  9.000E+00
      25     1     1     2     0     0  2.365105032E+02  2.415109562E+02 -4.976306063E+02  6.144314286E+02  1.250000000E+02  0.00000E+00  9.000E+00
      25     1     1     2     0     0  1.391028386E+02  2.129334935E+02 -3.415196663E+02  4.437915669E+02  1.250000000E+02  0.00000E+00  9.000E+00
       1     1     1     2   502     0 -3.756133418E+02 -4.544444497E+02 -1.677257120E+03  1.777862927E+03  3.051757812E-05  0.00000E+00  9.000E+00
#rwgt            2          12   8.8475043173775081E-004           1      159949           0
</event>
<event>
      5   9999  3.79277E-02  9.19358E+01 -1.00000E+00  1.25493E-01
      21    -1     0     0   502   501  0.000000000E+00  0.000000000E+00  6.565332231E+02  6.565332231E+02  0.000000000E+00  0.00000E+00  9.000E+00
       2    -1     0     0   501     0  0.000000000E+00  0.000000000E+00 -3.667367106E+02  3.667367106E+02  0.000000000E+00  0.00000E+00  9.000E+00
      25     1     1     2     0     0  1.961881408E+02 -1.659168714E+02  4.736641093E+02  5.531734658E+02  1.250000000E+02  0.00000E+00  9.000E+00
      25     1     1     2     0     0 -1.190093805E+02  1.159605636E+02  5.421304325E+01  2.148816861E+02  1.250000000E+02  0.00000E+00  9.000E+00
       2     1     1     2   502     0 -7.717876032E+01  4.995630776E+01 -2.380806401E+02  2.552147819E+02  5.394796609E-06  0.00000E+00  9.000E+00
#rwgt            1           1   3.1200065516303752E-002           1      159998           0
</event>
<event>
      5   9999 -3.79277E-02  1.32077E+01 -1.00000E+00  1.82753E-01
      21    -1     0     0   502   511  0.000000000E+00  0.000000000E+00  6.237965775E+01  6.237965775E+01  0.000000000E+00  0.00000E+00  9.000E+00
      21    -1     0     0   501   502  0.000000000E+00  0.000000000E+00 -5.805183335E+02  5.805183335E+02  0.000000000E+00  0.00000E+00  9.000E+00
      25     1     1     2     0     0  5.110186043E+01  1.184048143E+02 -1.792197514E+02  2.537239041E+02  1.250000000E+02  0.00000E+00  9.000E+00
      25     1     1     2     0     0 -4.940136501E+01 -1.053070531E+02 -3.339358787E+02  3.750576507E+02  1.250000000E+02  0.00000E+00  9.000E+00
      21     1     1     2   501   511 -1.700495418E+00 -1.309776125E+01 -4.983045656E+00  1.411643647E+01  2.731427965E-07  0.00000E+00  9.000E+00
#rwgt            1           1  -7.0502889711403602E-002           1      160236           0
</event>
<event>
      5   9999 -3.79277E-02  6.09186E+01 -1.00000E+00  1.34352E-01
      21    -1     0     0   502   501  0.000000000E+00  0.000000000E+00  1.474289170E+03  1.474289170E+03  0.000000000E+00  0.00000E+00  9.000E+00
       4    -1     0     0   501     0  0.000000000E+00  0.000000000E+00 -8.100434279E+01  8.100434279E+01  0.000000000E+00  0.00000E+00  9.000E+00
      25     1     1     2     0     0 -1.587745881E+02  3.422610950E+01  4.138327067E+02  4.618044018E+02  1.250000000E+02  0.00000E+00  9.000E+00
      25     1     1     2     0     0  2.121091441E+02 -4.789630800E+00  9.994758585E+02  1.029363989E+03  1.250000000E+02  0.00000E+00  9.000E+00
       4     1     1     2   502     0 -5.333455600E+01 -2.943647870E+01 -2.002373844E+01  6.412512178E+01  2.407909617E-06  0.00000E+00  9.000E+00
#rwgt            1           1 -0.39651713927026122                1      160394           0
</event>
<event>
      5   9999  3.79277E-02  1.05832E+02 -1.00000E+00  1.22731E-01
      21    -1     0     0   502   511  0.000000000E+00  0.000000000E+00  2.380210858E+02  2.380210858E+02  0.000000000E+00  0.00000E+00  9.000E+00
      21    -1     0     0   501   502  0.000000000E+00  0.000000000E+00 -4.855768073E+02  4.855768073E+02  0.000000000E+00  0.00000E+00  9.000E+00
      25     1     1     2     0     0  3.293268579E+01  1.511168240E+01 -3.324059139E+02  3.569756523E+02  1.250000000E+02  0.00000E+00  9.000E+00
      25     1     1     2     0     0 -1.370477490E+02 -3.409642255E+01 -5.008379798E+01  1.951359484E+02  1.250000000E+02  0.00000E+00  9.000E+00
      21     1     1     2   501   511  1.041150632E+02  1.898474015E+01  1.349339904E+02  1.714862924E+02  3.303624740E-06  0.00000E+00  9.000E+00
#rwgt            1           1   3.8429473478098435E-002           1      160499           0
</event>
<event>
      5   9999  3.79277E-02  8.04628E+01 -1.00000E+00  1.28228E-01
      21    -1     0     0   502   501  0.000000000E+00  0.000000000E+00  3.903033314E+02  3.903033314E+02  0.000000000E+00  0.00000E+00  9.000E+00
      21    -1     0     0   501   512  0.000000000E+00  0.000000000E+00 -2.169242350E+02  2.169242350E+02  0.000000000E+00  0.00000E+00  9.000E+00
      25     1     1     2     0     0 -1.784812007E+02 -7.883748310E+01 -1.382012311E+01  2.321354854E+02  1.250000000E+02  0.00000E+00  9.000E+00
      25     1     1     2     0     0  9.819828757E+01  8.421459539E+01  2.234316082E+02  2.868478435E+02  1.250000000E+02  0.00000E+00  9.000E+00
      21     1     1     2   502   512  8.028291316E+01 -5.377112290E+00 -3.623238873E+01  8.824423763E+01  1.581489940E-06  0.00000E+00  9.000E+00
#rwgt            1           1   4.1446878510627651E-002           1      160639           0
</event>
<event>
      5   9999  3.79277E-02  7.59346E+01 -1.00000E+00  1.29455E-01
      21    -1     0     0   502   511  0.000000000E+00  0.000000000E+00  6.578429660E+02  6.578429660E+02  0.000000000E+00  0.00000E+00  9.000E+00
      21    -1     0     0   501   502  0.000000000E+00  0.000000000E+00 -7.831384027E+01  7.831384027E+01  0.000000000E+00  0.00000E+00  9.000E+00
      25     1     1     2     0     0  7.190742893E+01  8.482264549E+01  1.148258140E+02  2.029175376E+02  1.250000000E+02  0.00000E+00  9.000E+00
      25     1     1     2     0     0 -1.208907607E+02 -2.679945373E+01  2.516583687E+02  3.070663142E+02  1.250000000E+02  0.00000E+00  9.000E+00
      21     1     1     2   501   511  4.898333182E+01 -5.802319176E+01  2.130449431E+02  2.261729545E+02  3.814697266E-06  0.00000E+00  9.000E+00
#rwgt            2          11   1.9375337382740614E-003           1      160852           0
</event>
<event>
      5   9999 -3.79277E-02  8.64966E+01 -1.00000E+00  1.26729E-01
      21    -1     0     0   502   512  0.000000000E+00  0.000000000E+00  2.295830865E+02  2.295830865E+02  0.000000000E+00  0.00000E+00  9.000E+00
      21    -1     0     0   501   502  0.000000000E+00  0.000000000E+00 -4.329696422E+02  4.329696422E+02  0.000000000E+00  0.00000E+00  9.000E+00
      25     1     1     2     0     0  1.391089643E+02  1.950089143E+01 -1.922407826E+02  2.689109652E+02  1.250000000E+02  0.00000E+00  9.000E+00
      25     1     1     2     0     0 -2.191781391E+02  1.321908145E+01 -9.805661881E+01  2.710238020E+02  1.250000000E+02  0.00000E+00  9.000E+00
      21     1     1     2   501   512  8.006917482E+01 -3.271997288E+01  8.691084569E+01  1.226179615E+02  1.907348633E-06  0.00000E+00  9.000E+00
#rwgt            1           1  -2.5448032635430516E-002           1      160872           0
</event>
<event>
      5   9999  3.79277E-02  1.89343E+01 -1.00000E+00  1.68355E-01
      -2    -1     0     0     0   501  0.000000000E+00  0.000000000E+00  4.502831932E+02  4.502831932E+02  0.000000000E+00  0.00000E+00  9.000E+00
      21    -1     0     0   501   502  0.000000000E+00  0.000000000E+00 -7.821106834E+02  7.821106834E+02  0.000000000E+00  0.00000E+00  9.000E+00
      25     1     1     2     0     0 -1.922402238E+01 -1.460185561E+02 -4.167188984E+02  4.593153841E+02  1.250000000E+02  0.00000E+00  9.000E+00
      25     1     1     2     0     0  3.803404948E+01  1.438530033E+02 -3.164142846E+02  3.713263726E+02  1.250000000E+02  0.00000E+00  9.000E+00
      -2     1     1     2     0   502 -1.881002710E+01  2.165552848E+00  4.013056928E+02  4.017521199E+02  7.629394531E-06  0.00000E+00  9.000E+00
#rwgt            1           1   3.8587119367292394E-002           1      161038           0
</event>
<event>
      5   9999  3.79277E-02  1.02231E+02 -1.00000E+00  1.23399E-01
       1    -1     0     0   502     0  0.000000000E+00  0.000000000E+00  7.972327679E+02  7.972327679E+02  0.000000000E+00  0.00000E+00  9.000E+00
      21    -1     0     0   501   502  0.000000000E+00  0.000000000E+00 -1.145765118E+02  1.145765118E+02  0.000000000E+00  0.00000E+00  9.000E+00
      25     1     1     2     0     0 -3.078982787E+00  1.218749922E+02  2.350753551E+02  2.928283054E+02  1.250000000E+02  0.00000E+00  9.000E+00
      25     1     1     2     0     0 -9.406842740E+01 -1.537102728E+02  7.369264858E+01  2.313683718E+02  1.250000000E+02  0.00000E+00  9.000E+00
       1     1     1     2   501     0  9.714741019E+01  3.183528065E+01  3.738882524E+02  3.876126025E+02  5.394796609E-06  0.00000E+00  9.000E+00
#rwgt            2          17   1.4263569989013115E-004           1      161321           0
</event>
<event>
      5   9999  3.79277E-02  2.55587E+01 -1.00000E+00  1.58035E-01
      21    -1     0     0   502   511  0.000000000E+00  0.000000000E+00  1.574125415E+03  1.574125415E+03  0.000000000E+00  0.00000E+00  9.000E+00
      21    -1     0     0   501   502  0.000000000E+00  0.000000000E+00 -3.293917400E+01  3.293917400E+01  0.000000000E+00  0.00000E+00  9.000E+00
      25     1     1     2     0     0 -1.007802525E+02  4.661829576E+01  1.160265818E+03  1.172250695E+03  1.250000000E+02  0.00000E+00  9.000E+00
      25     1     1     2     0     0  1.105014336E+02 -2.298045204E+01  2.500923608E+02  3.015126149E+02  1.250000000E+02  0.00000E+00  9.000E+00
      21     1     1     2   501   511 -9.721181094E+00 -2.363784372E+01  1.308280627E+02  1.333012791E+02  0.000000000E+00  0.00000E+00  9.000E+00
#rwgt            1           1   4.5381636345633213E-002           1      161385           0
</event>
<event>
      5   9999  3.79277E-02  8.15093E+01 -1.00000E+00  1.27958E-01
       2    -1     0     0   502     0  0.000000000E+00  0.000000000E+00  7.590483943E+02  7.590483943E+02  0.000000000E+00  0.00000E+00  9.000E+00
      21    -1     0     0   501   502  0.000000000E+00  0.000000000E+00 -7.544300491E+02  7.544300491E+02  0.000000000E+00  0.00000E+00  9.000E+00
      25     1     1     2     0     0 -5.298339545E+00 -2.760895301E+02 -4.408787331E+02  5.350257548E+02  1.250000000E+02  0.00000E+00  9.000E+00
      25     1     1     2     0     0 -1.609873212E+01  1.974388872E+02 -2.119969392E+02  3.159256014E+02  1.250000000E+02  0.00000E+00  9.000E+00
       2     1     1     2   501     0  2.139707167E+01  7.865064287E+01  6.574940174E+02  6.625270872E+02  1.078959322E-05  0.00000E+00  9.000E+00
#rwgt            1           1   3.8592463190691553E-002           1      161689           0
</event>
<event>
      5   9999  3.79277E-02  3.60855E+02 -1.00000E+00  1.03050E-01
      21    -1     0     0   502   501  0.000000000E+00  0.000000000E+00  1.282767998E+03  1.282767998E+03  0.000000000E+00  0.00000E+00  9.000E+00
      21    -1     0     0   511   502  0.000000000E+00  0.000000000E+00 -1.904452177E+02  1.904452177E+02  0.000000000E+00  0.00000E+00  9.000E+00
      25     1     1     2     0     0 -1.444458206E+02 -2.496699622E+01  1.151488250E+02  2.244375144E+02  1.250000000E+02  0.00000E+00  9.000E+00
      25     1     1     2     0     0 -2.163594524E+02  1.898658847E+01  8.159107648E+02  8.535263788E+02  1.250000000E+02  0.00000E+00  9.000E+00
      21     1     1     2   511   501  3.608052730E+02  5.980407744E+00  1.612631905E+02  3.952493225E+02  8.946258087E-06  0.00000E+00  9.000E+00
#rwgt            1           1   4.1333864930302451E-002           1      161822           0
</event>
<event>
      5   9999  3.79277E-02  3.94940E+01 -1.00000E+00  1.45184E-01
      21    -1     0     0   502   501  0.000000000E+00  0.000000000E+00  2.759523968E+02  2.759523968E+02  0.000000000E+00  0.00000E+00  9.000E+00
      21    -1     0     0   512   502  0.000000000E+00  0.000000000E+00 -2.423675544E+02  2.423675544E+02  0.000000000E+00  0.00000E+00  9.000E+00
      25     1     1     2     0     0  1.590903924E+02  9.967718667E+01  9.693038094E+01  2.454909229E+02  1.250000000E+02  0.00000E+00  9.000E+00
      25     1     1     2     0     0 -1.287845043E+02 -1.250017359E+02 -2.926512556E+01  2.206633864E+02  1.250000000E+02  0.00000E+00  9.000E+00
      21     1     1     2   512   501 -3.030588808E+01  2.532454918E+01 -3.408041296E+01  5.216564186E+01  4.768371582E-07  0.00000E+00  9.000E+00
#rwgt            1           1  0.16666021031052178                1      161895           0
</event>
<event>
      5   9999  3.79277E-02  4.78721E+01 -1.00000E+00  1.40162E-01
      21    -1     0     0   502   501  0.000000000E+00  0.000000000E+00  1.247326410E+03  1.247326410E+03  0.000000000E+00  0.00000E+00  9.000E+00
      21    -1     0     0   511   502  0.000000000E+00  0.000000000E+00 -9.065971986E+01  9.065971986E+01  0.000000000E+00  0.00000E+00  9.000E+00
      25     1     1     2     0     0  1.098766173E+02 -7.069068183E+00  1.833716224E+02  2.477357355E+02  1.250000000E+02  0.00000E+00  9.000E+00
      25     1     1     2     0     0 -1.100257254E+02 -4.080276022E+01  1.013398896E+03  1.027800004E+03  1.250000000E+02  0.00000E+00  9.000E+00
      21     1     1     2   511   501  1.491081317E-01  4.787182840E+01 -4.010382848E+01  6.245039029E+01  1.168007728E-06  0.00000E+00  9.000E+00
#rwgt            2          11   1.4644315654123623E-003           1      162056           0
</event>
<event>
      5   9999  3.79277E-02  1.90941E+01 -1.00000E+00  1.68047E-01
      21    -1     0     0   502   501  0.000000000E+00  0.000000000E+00  2.017846834E+02  2.017846834E+02  0.000000000E+00  0.00000E+00  9.000E+00
      21    -1     0     0   512   502  0.000000000E+00  0.000000000E+00 -9.505476404E+02  9.505476404E+02  0.000000000E+00  0.00000E+00  9.000E+00
      25     1     1     2     0     0 -7.908444221E+01 -1.471559215E+02 -7.446014337E+01  2.215367400E+02  1.250000000E+02  0.00000E+00  9.000E+00
      25     1     1     2     0     0  6.044121597E+01  1.512807556E+02  4.584529484E+01  2.103943884E+02  1.250000000E+02  0.00000E+00  9.000E+00
      21     1     1     2   512   501  1.864322624E+01 -4.124834093E+00 -7.201481085E+02  7.204011954E+02  7.629394531E-06  0.00000E+00  9.000E+00
#rwgt            1           1   3.9034634393940684E-002           1      162091           0
</event>
<event>
      5   9999  3.79277E-02  1.94675E+02 -1.00000E+00  1.12076E-01
      21    -1     0     0   502   501  0.000000000E+00  0.000000000E+00  5.614124411E+02  5.614124411E+02  0.000000000E+00  0.00000E+00  9.000E+00
      21    -1     0     0   511   502  0.000000000E+00  0.000000000E+00 -2.732708990E+02  2.732708990E+02  0.000000000E+00  0.00000E+00  9.000E+00
      25     1     1     2     0     0 -5.105070441E+01 -1.059344659E+01  4.036317194E+01  1.413243828E+02  1.250000000E+02  0.00000E+00  9.000E+00
      25     1     1     2     0     0  2.072965109E+02 -1.055342257E+02  3.765724070E+02  4.599359672E+02  1.250000000E+02  0.00000E+00  9.000E+00
      21     1     1     2   511   501 -1.562458065E+02  1.161276723E+02 -1.287940368E+02  2.334229900E+02  1.907348633E-06  0.00000E+00  9.000E+00
#rwgt            1           1   3.6503718090592413E-002           1      162249           0
</event>
<event>
      5   9999  3.79277E-02  3.24206E+01 -1.00000E+00  1.50735E-01
      21    -1     0     0   502   501  0.000000000E+00  0.000000000E+00  2.177364142E+02  2.177364142E+02  0.000000000E+00  0.00000E+00  9.000E+00
       2    -1     0     0   501     0  0.000000000E+00  0.000000000E+00 -5.299134375E+02  5.299134375E+02  0.000000000E+00  0.00000E+00  9.000E+00
      25     1     1     2     0     0  2.640207022E+02 -3.343522431E+00 -4.607873009E+01  2.957471212E+02  1.250000000E+02  0.00000E+00  9.000E+00
      25     1     1     2     0     0 -2.356585337E+02  1.904970082E+01 -1.045725337E+02  2.871554464E+02  1.250000000E+02  0.00000E+00  9.000E+00
       2     1     1     2   502     0 -2.836216854E+01 -1.570617839E+01 -1.615257595E+02  1.647472841E+02  0.000000000E+00  0.00000E+00  9.000E+00
#rwgt            1           1   8.2305823335785955E-002           1      162402           0
</event>
<event>
      5   9999  3.79277E-02  9.20676E+01 -1.00000E+00  1.25464E-01
      21    -1     0     0   502   501  0.000000000E+00  0.000000000E+00  1.729565907E+02  1.729565907E+02  0.000000000E+00  0.00000E+00  9.000E+00
      21    -1     0     0   501   511  0.000000000E+00  0.000000000E+00 -4.064372158E+02  4.064372158E+02  0.000000000E+00  0.00000E+00  9.000E+00
      25     1     1     2     0     0  4.746736813E+00  4.434767419E+00  9.794580967E+01  1.589357742E+02  1.250000000E+02  0.00000E+00  9.000E+00
      25     1     1     2     0     0 -9.303407916E+01  2.167627497E+01 -1.518296436E+02  2.186376945E+02  1.250000000E+02  0.00000E+00  9.000E+00
      21     1     1     2   502   511  8.828734235E+01 -2.611104239E+01 -1.795967912E+02  2.018203378E+02  1.907348633E-06  0.00000E+00  9.000E+00
#rwgt            1           1   4.1745989476372120E-002           1      162534           0
</event>
<event>
      5   9999  3.79277E-02  1.43093E+02 -1.00000E+00  1.17211E-01
      21    -1     0     0   502   501  0.000000000E+00  0.000000000E+00  4.091908794E+02  4.091908794E+02  0.000000000E+00  0.00000E+00  9.000E+00
      21    -1     0     0   501   512  0.000000000E+00  0.000000000E+00 -2.844544433E+02  2.844544433E+02  0.000000000E+00  0.00000E+00  9.000E+00
      25     1     1     2     0     0 -5.858355980E+01 -5.094436601E+01  1.321490873E+02  1.977770037E+02  1.250000000E+02  0.00000E+00  9.000E+00
      25     1     1     2     0     0  1.870033456E+02 -1.217540418E+01  1.595005628E+02  2.760143498E+02  1.250000000E+02  0.00000E+00  9.000E+00
      21     1     1     2   502   512 -1.284197859E+02  6.311977019E+01 -1.669132140E+02  2.198539693E+02  3.814697266E-06  0.00000E+00  9.000E+00
#rwgt            1           1   3.4356337542767700E-002           1      162602           0
</event>
<event>
      5   9999  3.79277E-02  1.40247E+01 -1.00000E+00  1.80179E-01
      21    -1     0     0   502   501  0.000000000E+00  0.000000000E+00  6.941650583E+01  6.941650583E+01  0.000000000E+00  0.00000E+00  9.000E+00
       1    -1     0     0   501     0  0.000000000E+00  0.000000000E+00 -1.341999230E+03  1.341999230E+03  0.000000000E+00  0.00000E+00  9.000E+00
      25     1     1     2     0     0 -1.942801846E+02  9.020314881E+01 -3.893539648E+02  4.616307053E+02  1.250000000E+02  0.00000E+00  9.000E+00
      25     1     1     2     0     0  1.810046005E+02 -9.472546189E+01 -3.990601875E+02  4.654133773E+02  1.250000000E+02  0.00000E+00  9.000E+00
       1     1     1     2   502     0  1.327558408E+01  4.522313086E+00 -4.841685720E+02  4.843716534E+02  7.629394531E-06  0.00000E+00  9.000E+00
#rwgt            1           1   3.3328483778424484E-002           1      162646           0
</event>
<event>
      5   9999  3.79277E-02  1.32178E+01 -1.00000E+00  1.82720E-01
      21    -1     0     0   502   511  0.000000000E+00  0.000000000E+00  2.241653620E+02  2.241653620E+02  0.000000000E+00  0.00000E+00  9.000E+00
      21    -1     0     0   501   502  0.000000000E+00  0.000000000E+00 -2.901543636E+02  2.901543636E+02  0.000000000E+00  0.00000E+00  9.000E+00
      25     1     1     2     0     0  2.019877785E+02  5.848232450E+01  6.937206664E+00  2.447291764E+02  1.250000000E+02  0.00000E+00  9.000E+00
      25     1     1     2     0     0 -1.968934872E+02 -4.628570004E+01 -8.417948577E+01  2.522312374E+02  1.250000000E+02  0.00000E+00  9.000E+00
      21     1     1     2   501   511 -5.094291296E+00 -1.219662445E+01  1.125327756E+01  1.735931184E+01  3.153981341E-07  0.00000E+00  9.000E+00
#rwgt            1           1   4.2729407797996305E-002           1      163031           0
</event>
<event>
      5   9999 -3.79277E-02  1.04846E+01 -1.00000E+00  1.93411E-01
      21    -1     0     0   502   501  0.000000000E+00  0.000000000E+00  3.880970300E+03  3.880970300E+03  0.000000000E+00  0.00000E+00  9.000E+00
      21    -1     0     0   501   512  0.000000000E+00  0.000000000E+00 -1.095768979E+01  1.095768979E+01  0.000000000E+00  0.00000E+00  9.000E+00
      25     1     1     2     0     0 -1.058643582E+02 -6.636917819E+01  2.404370415E+03  2.410857570E+03  1.250000000E+02  0.00000E+00  9.000E+00
      25     1     1     2     0     0  1.126757178E+02  5.839842963E+01  1.455904152E+03  1.466761090E+03  1.250000000E+02  0.00000E+00  9.000E+00
      21     1     1     2   502   512 -6.811359579E+00  7.970748554E+00  9.738043686E+00  1.430933075E+01  5.960464478E-07  0.00000E+00  9.000E+00
#rwgt            1           1  -4.5950179843278994E-003           1      163377           0
</event>
<event>
      5   9999  3.79277E-02  3.52784E+01 -1.00000E+00  1.48307E-01
      21    -1     0     0   502   511  0.000000000E+00  0.000000000E+00  3.165951716E+02  3.165951716E+02  0.000000000E+00  0.00000E+00  9.000E+00
      21    -1     0     0   501   502  0.000000000E+00  0.000000000E+00 -2.264991198E+02  2.264991198E+02  0.000000000E+00  0.00000E+00  9.000E+00
      25     1     1     2     0     0  4.627180350E+01  1.470383153E+02  4.764474235E+01  2.040989158E+02  1.250000000E+02  0.00000E+00  9.000E+00
      25     1     1     2     0     0 -4.987383637E+01 -1.821323864E+02 -5.695611083E+01  2.335136062E+02  1.250000000E+02  0.00000E+00  9.000E+00
      21     1     1     2   501   511  3.602032875E+00  3.509407114E+01  9.940742023E+01  1.054817694E+02  2.336015456E-06  0.00000E+00  9.000E+00
#rwgt            1           1   3.8518175069246138E-002           1      163640           0
</event>
<event>
      5   9999  3.79277E-02  4.56160E+01 -1.00000E+00  1.41388E-01
      21    -1     0     0   512   501  0.000000000E+00  0.000000000E+00  4.552104225E+02  4.552104225E+02  0.000000000E+00  0.00000E+00  9.000E+00
      21    -1     0     0   501   502  0.000000000E+00  0.000000000E+00 -2.187716655E+02  2.187716655E+02  0.000000000E+00  0.00000E+00  9.000E+00
      25     1     1     2     0     0  9.624760135E+01 -1.776128614E+02 -4.140803885E+01  2.411421883E+02  1.250000000E+02  0.00000E+00  9.000E+00
      25     1     1     2     0     0 -1.272072016E+02  1.441118391E+02  1.016142016E+02  2.507994024E+02  1.250000000E+02  0.00000E+00  9.000E+00
      21     1     1     2   512   502  3.095960021E+01  3.350102236E+01  1.762325943E+02  1.820404973E+02  2.697398305E-06  0.00000E+00  9.000E+00
#rwgt            1           1   3.6208390322599371E-002           1      163784           0
</event>
<event>
      5   9999  3.79277E-02  6.35742E+01 -1.00000E+00  1.33374E-01
      21    -1     0     0   502   511  0.000000000E+00  0.000000000E+00  4.250672966E+02  4.250672966E+02  0.000000000E+00  0.00000E+00  9.000E+00
      21    -1     0     0   501   502  0.000000000E+00  0.000000000E+00 -3.158966848E+02  3.158966848E+02  0.000000000E+00  0.00000E+00  9.000E+00
      25     1     1     2     0     0  1.045747567E+02  1.603785946E+02 -2.777726135E+01  2.303339958E+02  1.250000000E+02  0.00000E+00  9.000E+00
      25     1     1     2     0     0 -1.271321789E+02 -2.198162771E+02 -7.214855786E+01  2.920825243E+02  1.250000000E+02  0.00000E+00  9.000E+00
      21     1     1     2   501   511  2.255742215E+01  5.943768243E+01  2.090964310E+02  2.185474613E+02  3.814697266E-06  0.00000E+00  9.000E+00
#rwgt            1           1   2.8982654570313234E-002           1      163980           0
</event>
<event>
      5   9999  3.79277E-02  1.30127E+02 -1.00000E+00  1.18893E-01
      21    -1     0     0   502   512  0.000000000E+00  0.000000000E+00  1.701132346E+02  1.701132346E+02  0.000000000E+00  0.00000E+00  9.000E+00
      21    -1     0     0   501   502  0.000000000E+00  0.000000000E+00 -7.730256205E+02  7.730256205E+02  0.000000000E+00  0.00000E+00  9.000E+00
      25     1     1     2     0     0  2.559783904E+01 -2.190523614E+02 -4.960570757E+02  5.570788173E+02  1.250000000E+02  0.00000E+00  9.000E+00
      25     1     1     2     0     0 -1.265518808E+02  1.369466763E+02 -1.158700625E+01  2.247866308E+02  1.250000000E+02  0.00000E+00  9.000E+00
      21     1     1     2   501   512  1.009540418E+02  8.210568511E+01 -9.526830394E+01  1.612734070E+02  2.336015456E-06  0.00000E+00  9.000E+00
#rwgt            2          11   3.0595186512304006E-003           1      164130           0
</event>
<event>
      5   9999  3.79277E-02  2.62695E+02 -1.00000E+00  1.07500E-01
      21    -1     0     0   502   511  0.000000000E+00  0.000000000E+00  2.035213679E+03  2.035213679E+03  0.000000000E+00  0.00000E+00  9.000E+00
      21    -1     0     0   501   502  0.000000000E+00  0.000000000E+00 -1.294213014E+02  1.294213014E+02  0.000000000E+00  0.00000E+00  9.000E+00
      25     1     1     2     0     0  7.892103637E+01  6.525215715E+01  1.441041326E+02  2.165118357E+02  1.250000000E+02  0.00000E+00  9.000E+00
      25     1     1     2     0     0  8.950474929E+01 -2.668498777E+02  2.062400782E+02  3.706479829E+02  1.250000000E+02  0.00000E+00  9.000E+00
      21     1     1     2   501   511 -1.684257857E+02  2.015977206E+02  1.555448167E+03  1.577475162E+03  0.000000000E+00  0.00000E+00  9.000E+00
#rwgt            1           1   3.3914394232504058E-002           1      164165           0
</event>
<event>
      5   9999  3.79277E-02  4.73065E+01 -1.00000E+00  1.40462E-01
      21    -1     0     0   502   501  0.000000000E+00  0.000000000E+00  2.273479489E+02  2.273479489E+02  0.000000000E+00  0.00000E+00  9.000E+00
      21    -1     0     0   512   502  0.000000000E+00  0.000000000E+00 -5.048536102E+02  5.048536102E+02  0.000000000E+00  0.00000E+00  9.000E+00
      25     1     1     2     0     0  1.470015019E+02 -1.295699538E+02  1.135870363E+02  2.586983365E+02  1.250000000E+02  0.00000E+00  9.000E+00
      25     1     1     2     0     0 -1.230924738E+02  8.875010181E+01 -2.157574675E+02  2.918983084E+02  1.250000000E+02  0.00000E+00  9.000E+00
      21     1     1     2   512   501 -2.390902808E+01  4.081985202E+01 -1.753352301E+02  1.816049142E+02  1.907348633E-06  0.00000E+00  9.000E+00
#rwgt            1           1   4.3762281543407083E-002           1      164248           0
</event>
<event>
      5   9999  3.79277E-02  7.35510E+01 -1.00000E+00  1.30141E-01
      21    -1     0     0   502   511  0.000000000E+00  0.000000000E+00  1.760159746E+02  1.760159746E+02  0.000000000E+00  0.00000E+00  9.000E+00
      21    -1     0     0   501   502  0.000000000E+00  0.000000000E+00 -4.484064504E+02  4.484064504E+02  0.000000000E+00  0.00000E+00  9.000E+00
      25     1     1     2     0     0 -9.943142671E+01 -4.628873228E+01  1.359990779E+01  1.668508701E+02  1.250000000E+02  0.00000E+00  9.000E+00
      25     1     1     2     0     0  1.722645142E+02  5.654037939E+01 -3.099484104E+02  3.802169045E+02  1.250000000E+02  0.00000E+00  9.000E+00
      21     1     1     2   501   511 -7.283308747E+01 -1.025164711E+01  2.395802688E+01  7.735465048E+01  1.581489940E-06  0.00000E+00  9.000E+00
#rwgt            1           1   1.1888917500442105E-002           1      164341           0
</event>
<event>
      5   9999  3.79277E-02  2.75538E+01 -1.00000E+00  1.55651E-01
      21    -1     0     0   502   501  0.000000000E+00  0.000000000E+00  1.320003942E+03  1.320003942E+03  0.000000000E+00  0.00000E+00  9.000E+00
      21    -1     0     0   501   512  0.000000000E+00  0.000000000E+00 -1.082902918E+02  1.082902918E+02  0.000000000E+00  0.00000E+00  9.000E+00
      25     1     1     2     0     0  2.068065224E+02 -1.850366576E+02  9.767893449E+02  1.023107974E+03  1.250000000E+02  0.00000E+00  9.000E+00
      25     1     1     2     0     0 -1.797670068E+02  1.797380504E+02  2.462960760E+02  3.753780768E+02  1.250000000E+02  0.00000E+00  9.000E+00
      21     1     1     2   502   512 -2.703951556E+01  5.298607226E+00 -1.137177022E+01  2.980818342E+01  1.118282261E-06  0.00000E+00  9.000E+00
#rwgt            1           1   4.7976778815125500E-002           1      164434           0
</event>
<event>
      5   9999  3.79277E-02  1.30852E+01 -1.00000E+00  1.83160E-01
      21    -1     0     0   502   511  0.000000000E+00  0.000000000E+00  9.062726230E+01  9.062726230E+01  0.000000000E+00  0.00000E+00  9.000E+00
      21    -1     0     0   501   502  0.000000000E+00  0.000000000E+00 -4.678537002E+02  4.678537002E+02  0.000000000E+00  0.00000E+00  9.000E+00
      25     1     1     2     0     0  1.398735732E+02  3.134315891E+01 -2.544934357E+02  3.177088587E+02  1.250000000E+02  0.00000E+00  9.000E+00
      25     1     1     2     0     0 -1.272454980E+02 -3.477170687E+01 -1.321096821E+02  2.246741117E+02  1.250000000E+02  0.00000E+00  9.000E+00
      21     1     1     2   501   511 -1.262807518E+01  3.428547962E+00  9.376679860E+00  1.609799208E+01  2.064765462E-07  0.00000E+00  9.000E+00
#rwgt            1           1   3.3094952959593388E-002           1      164603           0
</event>
<event>
      5   9999  3.79277E-02  4.93723E+01 -1.00000E+00  1.39389E-01
      21    -1     0     0   502   501  0.000000000E+00  0.000000000E+00  7.494126369E+01  7.494126369E+01  0.000000000E+00  0.00000E+00  9.000E+00
      21    -1     0     0   501   512  0.000000000E+00  0.000000000E+00 -8.879175533E+02  8.879175533E+02  0.000000000E+00  0.00000E+00  9.000E+00
      25     1     1     2     0     0  6.009316354E+01 -7.277547441E+01 -4.382637697E+02  4.654112050E+02  1.250000000E+02  0.00000E+00  9.000E+00
      25     1     1     2     0     0 -5.307029860E+01  1.216456975E+02 -8.080256479E+01  1.994196249E+02  1.250000000E+02  0.00000E+00  9.000E+00
      21     1     1     2   502   512 -7.022864935E+00 -4.887022308E+01 -2.939099552E+02  2.980279871E+02  3.814697266E-06  0.00000E+00  9.000E+00
#rwgt            1           1   3.3052722159561378E-002           1      164802           0
</event>
<event>
      5   9999  3.79277E-02  5.36229E+01 -1.00000E+00  1.37364E-01
      21    -1     0     0   511   501  0.000000000E+00  0.000000000E+00  5.885957965E+01  5.885957965E+01  0.000000000E+00  0.00000E+00  9.000E+00
      21    -1     0     0   501   502  0.000000000E+00  0.000000000E+00 -9.336243650E+02  9.336243650E+02  0.000000000E+00  0.00000E+00  9.000E+00
      25     1     1     2     0     0 -7.000824345E+01 -1.629889165E+02 -3.274841260E+02  3.928579818E+02  1.250000000E+02  0.00000E+00  9.000E+00
      25     1     1     2     0     0  2.154565558E+01  1.400369523E+02 -4.585427166E+02  4.959445395E+02  1.250000000E+02  0.00000E+00  9.000E+00
      21     1     1     2   511   502  4.846258786E+01  2.295196412E+01 -8.873794272E+01  1.036814234E+02  1.651812370E-06  0.00000E+00  9.000E+00
#rwgt            1           1   3.7446802225348880E-002           1      164975           0
</event>
<event>
      5   9999  3.79277E-02  1.16893E+02 -1.00000E+00  1.20854E-01
      21    -1     0     0   502   501  0.000000000E+00  0.000000000E+00  3.556970486E+02  3.556970486E+02  0.000000000E+00  0.00000E+00  9.000E+00
      21    -1     0     0   512   502  0.000000000E+00  0.000000000E+00 -3.591028120E+02  3.591028120E+02  0.000000000E+00  0.00000E+00  9.000E+00
      25     1     1     2     0     0 -3.385414151E+01  7.269664127E-01 -2.084063129E+02  2.453667105E+02  1.250000000E+02  0.00000E+00  9.000E+00
      25     1     1     2     0     0 -6.323680364E+01  6.436839989E+01  2.875911659E+02  3.263063942E+02  1.250000000E+02  0.00000E+00  9.000E+00
      21     1     1     2   512   501  9.709094515E+01 -6.509536631E+01 -8.259061640E+01  1.431267559E+02  1.651812370E-06  0.00000E+00  9.000E+00
#rwgt            1           1   1.7666127906814016E-002           1      165074           0
</event>
<event>
      5   9999  3.79277E-02  7.23570E+01 -1.00000E+00  1.30496E-01
      21    -1     0     0   502   501  0.000000000E+00  0.000000000E+00  9.182552854E+02  9.182552854E+02  0.000000000E+00  0.00000E+00  9.000E+00
      21    -1     0     0   501   511  0.000000000E+00  0.000000000E+00 -1.208277589E+02  1.208277589E+02  0.000000000E+00  0.00000E+00  9.000E+00
      25     1     1     2     0     0 -1.430667723E+02  1.883772232E+02  6.777786799E+02  7.286720926E+02  1.250000000E+02  0.00000E+00  9.000E+00
      25     1     1     2     0     0  9.982773857E+01 -1.303606974E+02  5.545215271E+01  2.136806731E+02  1.250000000E+02  0.00000E+00  9.000E+00
      21     1     1     2   502   511  4.323903377E+01 -5.801652579E+01  6.419669377E+01  9.673027860E+01  0.000000000E+00  0.00000E+00  9.000E+00
#rwgt            1           1   4.5686076522405333E-002           1      165190           0
</event>
<event>
      5   9999  3.79277E-02  4.93728E+01 -1.00000E+00  1.39389E-01
      21    -1     0     0   502   501  0.000000000E+00  0.000000000E+00  5.279574355E+01  5.279574355E+01  0.000000000E+00  0.00000E+00  9.000E+00
      21    -1     0     0   512   502  0.000000000E+00  0.000000000E+00 -1.366653813E+03  1.366653813E+03  0.000000000E+00  0.00000E+00  9.000E+00
      25     1     1     2     0     0  1.014804319E+02  1.541337190E+02 -3.695617010E+02  4.315742488E+02  1.250000000E+02  0.00000E+00  9.000E+00
      25     1     1     2     0     0 -5.213134769E+01 -1.526034300E+02 -4.883014380E+02  5.292152479E+02  1.250000000E+02  0.00000E+00  9.000E+00
      21     1     1     2   512   501 -4.934908420E+01 -1.530288979E+00 -4.559949301E+02  4.586600595E+02  0.000000000E+00  0.00000E+00  9.000E+00
#rwgt            1           1  0.15690661594097141                1      165262           0
</event>
<event>
      5   9999  3.79277E-02  4.67321E+01 -1.00000E+00  1.40771E-01
      21    -1     0     0   502   501  0.000000000E+00  0.000000000E+00  1.149835510E+03  1.149835510E+03  0.000000000E+00  0.00000E+00  9.000E+00
      21    -1     0     0   501   511  0.000000000E+00  0.000000000E+00 -9.191501787E+01  9.191501787E+01  0.000000000E+00  0.00000E+00  9.000E+00
      25     1     1     2     0     0  1.128956646E+02 -1.380046882E+02  8.406653006E+02  8.684088165E+02  1.250000000E+02  0.00000E+00  9.000E+00
      25     1     1     2     0     0 -1.592491576E+02  1.320684839E+02  2.195659312E+02  3.265525636E+02  1.250000000E+02  0.00000E+00  9.000E+00
      21     1     1     2   502   511  4.635349308E+01  5.936204336E+00 -2.310739482E+00  4.678914789E+01  5.847637913E-07  0.00000E+00  9.000E+00
#rwgt            1           1   3.5233354540703553E-002           1      165364           0
</event>
<event>
      5   9999  3.79277E-02  1.46515E+01 -1.00000E+00  1.78351E-01
      21    -1     0     0   502   512  0.000000000E+00  0.000000000E+00  6.510381342E+02  6.510381342E+02  0.000000000E+00  0.00000E+00  9.000E+00
      21    -1     0     0   501   502  0.000000000E+00  0.000000000E+00 -3.925362881E+02  3.925362881E+02  0.000000000E+00  0.00000E+00  9.000E+00
      25     1     1     2     0     0 -1.270607024E+02 -1.523190573E+02 -1.164907991E+02  2.618026425E+02  1.250000000E+02  0.00000E+00  9.000E+00
      25     1     1     2     0     0  1.365941890E+02  1.634446529E+02 -1.282678976E+02  2.782980068E+02  1.250000000E+02  0.00000E+00  9.000E+00
      21     1     1     2   501   512 -9.533486635E+00 -1.112559551E+01  5.032605428E+02  5.034737731E+02  5.394796609E-06  0.00000E+00  9.000E+00
#rwgt            1           1   3.4709129700170427E-002           1      165492           0
</event>
<event>
      5   9999  3.79277E-02  7.34170E+01 -1.00000E+00  1.30181E-01
       2    -1     0     0   502     0  0.000000000E+00  0.000000000E+00  2.714877165E+03  2.714877165E+03  0.000000000E+00  0.00000E+00  9.000E+00
      21    -1     0     0   501   502  0.000000000E+00  0.000000000E+00 -2.759642844E+02  2.759642844E+02  0.000000000E+00  0.00000E+00  9.000E+00
      25     1     1     2     0     0 -8.540293321E+01 -6.221211317E+01  5.317706529E+01  1.720953465E+02  1.250000000E+02  0.00000E+00  9.000E+00
      25     1     1     2     0     0  2.214466058E+01  9.947407025E+01 -1.858739223E+02  2.460885849E+02  1.250000000E+02  0.00000E+00  9.000E+00
       2     1     1     2   501     0  6.325827263E+01 -3.726195708E+01  2.571609738E+03  2.572657518E+03  4.315837288E-05  0.00000E+00  9.000E+00
#rwgt            1           1   3.0058720553977587E-002           1      165716           0
</event>
<event>
      5   9999  3.79277E-02  6.69904E+01 -1.00000E+00  1.32195E-01
      21    -1     0     0   502   501  0.000000000E+00  0.000000000E+00  3.731853780E+01  3.731853780E+01  0.000000000E+00  0.00000E+00  9.000E+00
      21    -1     0     0   501   511  0.000000000E+00  0.000000000E+00 -2.053856412E+03  2.053856412E+03  0.000000000E+00  0.00000E+00  9.000E+00
      25     1     1     2     0     0 -1.343703486E+01  1.669572640E+02 -5.282827509E+02  5.681222991E+02  1.250000000E+02  0.00000E+00  9.000E+00
      25     1     1     2     0     0  6.030036666E+01 -2.148272536E+02 -1.129191592E+03  1.157793390E+03  1.250000000E+02  0.00000E+00  9.000E+00
      21     1     1     2   502   511 -4.686333180E+01  4.786998956E+01 -3.590635313E+02  3.652592603E+02  5.394796609E-06  0.00000E+00  9.000E+00
#rwgt            1           1   4.3556583651752086E-002           1      165871           0
</event>
<event>
      5   9999  3.79277E-02  8.52164E+01 -1.00000E+00  1.27036E-01
      21    -1     0     0   512   501  0.000000000E+00  0.000000000E+00  9.074927353E+02  9.074927353E+02  0.000000000E+00  0.00000E+00  9.000E+00
      21    -1     0     0   501   502  0.000000000E+00  0.000000000E+00 -2.150461091E+02  2.150461091E+02  0.000000000E+00  0.00000E+00  9.000E+00
      25     1     1     2     0     0  1.962395883E+02  1.665297187E+00 -8.118917004E+01  2.464334201E+02  1.250000000E+02  0.00000E+00  9.000E+00
      25     1     1     2     0     0 -2.224491397E+02 -8.275103388E+01  3.344784767E+02  4.287565798E+02  1.250000000E+02  0.00000E+00  9.000E+00
      21     1     1     2   512   502  2.620955144E+01  8.108573669E+01  4.391573196E+02  4.473488445E+02  0.000000000E+00  0.00000E+00  9.000E+00
#rwgt            1           1  0.13482998608206148                1      166000           0
</event>
<event>
      5   9999  3.79277E-02  5.36504E+01 -1.00000E+00  1.37352E-01
      21    -1     0     0   502   501  0.000000000E+00  0.000000000E+00  3.953341754E+02  3.953341754E+02  0.000000000E+00  0.00000E+00  9.000E+00
      21    -1     0     0   501   511  0.000000000E+00  0.000000000E+00 -7.062352758E+02  7.062352758E+02  0.000000000E+00  0.00000E+00  9.000E+00
      25     1     1     2     0     0  1.200564907E+02  1.636980761E+02 -6.105065706E+01  2.460951113E+02  1.250000000E+02  0.00000E+00  9.000E+00
      25     1     1     2     0     0 -6.929744356E+01 -1.463232145E+02  2.667225482E+02  3.361227997E+02  1.250000000E+02  0.00000E+00  9.000E+00
      21     1     1     2   502   511 -5.075904717E+01 -1.737486155E+01 -5.165729915E+02  5.193515402E+02  0.000000000E+00  0.00000E+00  9.000E+00
#rwgt            1           1   2.6186095528417060E-002           1      166088           0
</event>
<event>
      5   9999  3.79277E-02  1.35064E+02 -1.00000E+00  1.18228E-01
      21    -1     0     0   512   501  0.000000000E+00  0.000000000E+00  1.489796201E+02  1.489796201E+02  0.000000000E+00  0.00000E+00  9.000E+00
      21    -1     0     0   501   502  0.000000000E+00  0.000000000E+00 -5.102364372E+02  5.102364372E+02  0.000000000E+00  0.00000E+00  9.000E+00
      25     1     1     2     0     0  4.458513603E+01 -9.693041058E+01 -1.341201148E+02  2.121238884E+02  1.250000000E+02  0.00000E+00  9.000E+00
      25     1     1     2     0     0 -1.786098716E+02  8.020527055E+01 -2.058188680E+02  3.103558894E+02  1.250000000E+02  0.00000E+00  9.000E+00
      21     1     1     2   512   502  1.340247356E+02  1.672514003E+01 -2.131783435E+01  1.367362794E+02  1.702649219E-06  0.00000E+00  9.000E+00
#rwgt            1           1   2.6532319240554762E-002           1      166201           0
</event>
<event>
      5   9999  3.79277E-02  1.08597E+02 -1.00000E+00  1.22238E-01
      21    -1     0     0   511   501  0.000000000E+00  0.000000000E+00  2.031850773E+02  2.031850773E+02  0.000000000E+00  0.00000E+00  9.000E+00
      21    -1     0     0   501   502  0.000000000E+00  0.000000000E+00 -6.937958257E+02  6.937958257E+02  0.000000000E+00  0.00000E+00  9.000E+00
      25     1     1     2     0     0  1.124209460E+02  1.116478497E+02 -1.888627297E+02  2.764015957E+02  1.250000000E+02  0.00000E+00  9.000E+00
      25     1     1     2     0     0 -1.388910299E+02 -6.326651879E+00 -4.201778254E+02  4.598968903E+02  1.250000000E+02  0.00000E+00  9.000E+00
      21     1     1     2   511   502  2.647008385E+01 -1.053211978E+02  1.184298067E+02  1.606824171E+02  3.303624740E-06  0.00000E+00  9.000E+00
#rwgt            1           1   3.1016319965564105E-002           1      166404           0
</event>
<event>
      5   9999  3.79277E-02  1.13996E+02 -1.00000E+00  1.21322E-01
      21    -1     0     0   512   501  0.000000000E+00  0.000000000E+00  3.703545592E+02  3.703545592E+02  0.000000000E+00  0.00000E+00  9.000E+00
      21    -1     0     0   501   502  0.000000000E+00  0.000000000E+00 -1.837350227E+02  1.837350227E+02  0.000000000E+00  0.00000E+00  9.000E+00
      25     1     1     2     0     0 -1.177258329E+02  1.408296368E+02 -1.450999417E+01  2.225486425E+02  1.250000000E+02  0.00000E+00  9.000E+00
      25     1     1     2     0     0  4.154475417E+01 -5.602720464E+01  1.475728237E+02  2.055912268E+02  1.250000000E+02  0.00000E+00  9.000E+00
      21     1     1     2   512   502  7.618107870E+01 -8.480243220E+01  5.355670697E+01  1.259497127E+02  1.168007728E-06  0.00000E+00  9.000E+00
#rwgt            1           1   1.3474555988292952E-002           1      166569           0
</event>
<event>
      5   9999 -3.79277E-02  2.19726E+01 -1.00000E+00  1.63068E-01
      21    -1     0     0   502   501  0.000000000E+00  0.000000000E+00  2.926374056E+01  2.926374056E+01  0.000000000E+00  0.00000E+00  9.000E+00
      21    -1     0     0   511   502  0.000000000E+00  0.000000000E+00 -1.961674586E+03  1.961674586E+03  0.000000000E+00  0.00000E+00  9.000E+00
      25     1     1     2     0     0  1.304818942E+02 -1.268869747E+01 -1.547857583E+03  1.558420554E+03  1.250000000E+02  0.00000E+00  9.000E+00
      25     1     1     2     0     0 -1.085152506E+02  1.217855622E+01 -2.784685674E+02  3.241814613E+02  1.250000000E+02  0.00000E+00  9.000E+00
      21     1     1     2   511   501 -2.196664363E+01  5.101412493E-01 -1.060846953E+02  1.083363108E+02  0.000000000E+00  0.00000E+00  9.000E+00
#rwgt            1           1  -4.0772546083887681E-002           1      166689           0
</event>
<event>
      5   9999  3.79277E-02  9.25476E+01 -1.00000E+00  1.25360E-01
      21    -1     0     0   512   501  0.000000000E+00  0.000000000E+00  9.624272074E+02  9.624272074E+02  0.000000000E+00  0.00000E+00  9.000E+00
      21    -1     0     0   501   502  0.000000000E+00  0.000000000E+00 -1.144455784E+02  1.144455784E+02  0.000000000E+00  0.00000E+00  9.000E+00
      25     1     1     2     0     0  1.769976802E+02  1.815984282E+02  3.629636980E+02  4.600802256E+02  1.250000000E+02  0.00000E+00  9.000E+00
      25     1     1     2     0     0 -2.331428712E+02 -1.080268535E+02  3.327269746E+02  4.385859540E+02  1.250000000E+02  0.00000E+00  9.000E+00
      21     1     1     2   512   502  5.614519102E+01 -7.357157473E+01  1.522909564E+02  1.782066061E+02  1.907348633E-06  0.00000E+00  9.000E+00
#rwgt            1           1   7.9539533790054115E-002           1      166903           0
</event>
<event>
      5   9999  3.79277E-02  1.05138E+02 -1.00000E+00  1.22857E-01
      21    -1     0     0   502   501  0.000000000E+00  0.000000000E+00  2.815214307E+01  2.815214307E+01  0.000000000E+00  0.00000E+00  9.000E+00
      21    -1     0     0   511   502  0.000000000E+00  0.000000000E+00 -2.829576318E+03  2.829576318E+03  0.000000000E+00  0.00000E+00  9.000E+00
      25     1     1     2     0     0  8.483025481E+00  3.625021393E+01 -1.579304283E+03  1.584680743E+03  1.250000000E+02  0.00000E+00  9.000E+00
      25     1     1     2     0     0 -1.743446574E+01  6.850568871E+01 -2.037843832E+02  2.492991473E+02  1.250000000E+02  0.00000E+00  9.000E+00
      21     1     1     2   511   501  8.951440255E+00 -1.047559026E+02 -1.018335509E+03  1.023748571E+03  1.078959322E-05  0.00000E+00  9.000E+00
#rwgt            1           1   3.4200355428587112E-002           1      166953           0
</event>
<event>
      5   9999  3.79277E-02  7.25893E+01 -1.00000E+00  1.30427E-01
      21    -1     0     0   502   501  0.000000000E+00  0.000000000E+00  2.922715981E+02  2.922715981E+02  0.000000000E+00  0.00000E+00  9.000E+00
      21    -1     0     0   512   502  0.000000000E+00  0.000000000E+00 -8.769787056E+02  8.769787056E+02  0.000000000E+00  0.00000E+00  9.000E+00
      25     1     1     2     0     0  4.162942952E+01 -1.471171207E+02  2.083987378E+02  2.871088479E+02  1.250000000E+02  0.00000E+00  9.000E+00
      25     1     1     2     0     0  3.094732315E+01  1.484641777E+02 -1.856116230E+02  2.703257728E+02  1.250000000E+02  0.00000E+00  9.000E+00
      21     1     1     2   512   501 -7.257675267E+01 -1.347057024E+00 -6.074942224E+02  6.118156829E+02  7.629394531E-06  0.00000E+00  9.000E+00
#rwgt            1           1   2.8879586518699277E-002           1      167105           0
</event>
<event>
      5   9999  3.79277E-02  6.86973E+01 -1.00000E+00  1.31635E-01
      21    -1     0     0   502   501  0.000000000E+00  0.000000000E+00  4.712393060E+02  4.712393060E+02  0.000000000E+00  0.00000E+00  9.000E+00
      21    -1     0     0   501   511  0.000000000E+00  0.000000000E+00 -1.504045634E+02  1.504045634E+02  0.000000000E+00  0.00000E+00  9.000E+00
      25     1     1     2     0     0  1.499043620E+01 -1.941338793E+02  2.926976312E+02  3.731079998E+02  1.250000000E+02  0.00000E+00  9.000E+00
      25     1     1     2     0     0 -8.042486186E+00  1.257888370E+02  2.878046381E+01  1.798355588E+02  1.250000000E+02  0.00000E+00  9.000E+00
      21     1     1     2   502   511 -6.947950017E+00  6.834504227E+01 -6.433523750E-01  6.870031087E+01  1.616140677E-06  0.00000E+00  9.000E+00
#rwgt            1           1   4.8207868576500744E-002           1      167297           0
</event>
<event>
      5   9999  3.79277E-02  9.98620E+00 -1.00000E+00  1.95826E-01
      21    -1     0     0   502   501  0.000000000E+00  0.000000000E+00  1.331482798E+03  1.331482798E+03  0.000000000E+00  0.00000E+00  9.000E+00
      21    -1     0     0   512   502  0.000000000E+00  0.000000000E+00 -7.150085167E+01  7.150085167E+01  0.000000000E+00  0.00000E+00  9.000E+00
      25     1     1     2     0     0 -1.864916848E+02  2.004540262E+02  7.632671648E+02  8.204649474E+02  1.250000000E+02  0.00000E+00  9.000E+00
      25     1     1     2     0     0  1.765719583E+02 -1.993036975E+02  4.766676509E+02  5.601220133E+02  1.250000000E+02  0.00000E+00  9.000E+00
      21     1     1     2   512   501  9.919726478E+00 -1.150328680E+00  2.004713037E+01  2.239668872E+01  0.000000000E+00  0.00000E+00  9.000E+00
#rwgt            1           1   2.7835457241234492E-002           1      167403           0
</event>
<event>
      5   9999  3.79277E-02  1.64847E+01 -1.00000E+00  1.73607E-01
      21    -1     0     0   511   501  0.000000000E+00  0.000000000E+00  5.121261167E+01  5.121261167E+01  0.000000000E+00  0.00000E+00  9.000E+00
      21    -1     0     0   501   502  0.000000000E+00  0.000000000E+00 -6.198301684E+02  6.198301684E+02  0.000000000E+00  0.00000E+00  9.000E+00
      25     1     1     2     0     0  4.852378879E+01  9.943303438E+01 -3.774169503E+02  4.126863710E+02  1.250000000E+02  0.00000E+00  9.000E+00
      25     1     1     2     0     0 -4.638776265E+01 -8.308734033E+01 -1.695429159E+02  2.311387700E+02  1.250000000E+02  0.00000E+00  9.000E+00
      21     1     1     2   511   502 -2.136026141E+00 -1.634569405E+01 -2.165769049E+01  2.721763911E+01  0.000000000E+00  0.00000E+00  9.000E+00
#rwgt            1           1   4.6333753398014946E-002           1      167657           0
</event>
<event>
      5   9999  3.79277E-02  4.25632E+01 -1.00000E+00  1.43187E-01
      21    -1     0     0   502   512  0.000000000E+00  0.000000000E+00  5.111303712E+01  5.111303712E+01  0.000000000E+00  0.00000E+00  9.000E+00
      21    -1     0     0   501   502  0.000000000E+00  0.000000000E+00 -1.236972917E+03  1.236972917E+03  0.000000000E+00  0.00000E+00  9.000E+00
      25     1     1     2     0     0 -8.915642722E+01 -1.255702910E+02 -2.887322456E+02  3.502971255E+02  1.250000000E+02  0.00000E+00  9.000E+00
      25     1     1     2     0     0  1.311813933E+02  1.188227356E+02 -8.337345893E+02  8.614323919E+02  1.250000000E+02  0.00000E+00  9.000E+00
      21     1     1     2   501   512 -4.202496611E+01  6.747555369E+00 -6.339304539E+01  7.635643708E+01  6.743495762E-07  0.00000E+00  9.000E+00
#rwgt            1           1   7.6389531139458011E-002           1      167891           0
</event>
<event>
      5   9999  3.79277E-02  8.64255E+01 -1.00000E+00  1.26746E-01
      21    -1     0     0   511   501  0.000000000E+00  0.000000000E+00  2.361758966E+02  2.361758966E+02  0.000000000E+00  0.00000E+00  9.000E+00
      21    -1     0     0   501   502  0.000000000E+00  0.000000000E+00 -4.341953886E+02  4.341953886E+02  0.000000000E+00  0.00000E+00  9.000E+00
      25     1     1     2     0     0 -1.720341828E+02  1.383061588E+01 -3.037785152E+02  3.710706567E+02  1.250000000E+02  0.00000E+00  9.000E+00
      25     1     1     2     0     0  1.276634867E+02  6.033550147E+01  4.565502301E+01  1.940302030E+02  1.250000000E+02  0.00000E+00  9.000E+00
      21     1     1     2   511   502  4.437069614E+01 -7.416611736E+01  6.010400017E+01  1.052704255E+02  0.000000000E+00  0.00000E+00  9.000E+00
#rwgt            1           1   4.2917279987481426E-002           1      168097           0
</event>
<event>
      5   9999  3.79277E-02  3.11596E+01 -1.00000E+00  1.51905E-01
      21    -1     0     0   502   501  0.000000000E+00  0.000000000E+00  1.044551886E+03  1.044551886E+03  0.000000000E+00  0.00000E+00  9.000E+00
      21    -1     0     0   501   512  0.000000000E+00  0.000000000E+00 -5.887091955E+01  5.887091955E+01  0.000000000E+00  0.00000E+00  9.000E+00
      25     1     1     2     0     0  1.546121954E+02  9.970206234E+01  3.423777045E+02  4.082804486E+02  1.250000000E+02  0.00000E+00  9.000E+00
      25     1     1     2     0     0 -1.400728461E+02 -7.214255605E+01  6.298878473E+02  6.612175518E+02  1.250000000E+02  0.00000E+00  9.000E+00
      21     1     1     2   502   512 -1.453934934E+01 -2.755950630E+01  1.341541497E+01  3.392480546E+01  7.539457465E-07  0.00000E+00  9.000E+00
#rwgt            1           1   5.4372570087348991E-002           1      168207           0
</event>
<event>
      5   9999  3.79277E-02  7.50480E+00 -1.00000E+00  2.11366E-01
      21    -1     0     0   502   501  0.000000000E+00  0.000000000E+00  9.287982573E+02  9.287982573E+02  0.000000000E+00  0.00000E+00  9.000E+00
      21    -1     0     0   511   502  0.000000000E+00  0.000000000E+00 -5.590718045E+01  5.590718045E+01  0.000000000E+00  0.00000E+00  9.000E+00
      25     1     1     2     0     0  3.078275955E+01 -1.311947093E+02  7.006094767E+02  7.243191761E+02  1.250000000E+02  0.00000E+00  9.000E+00
      25     1     1     2     0     0 -3.183172096E+01  1.237635822E+02  1.769651317E+02  2.515399383E+02  1.250000000E+02  0.00000E+00  9.000E+00
      21     1     1     2   511   501  1.048961403E+00  7.431127056E+00 -4.683531498E+00  8.846323340E+00  2.308477966E-07  0.00000E+00  9.000E+00
#rwgt            1           1   3.5274920995282746E-002           1      168492           0
</event>
<event>
      5   9999  3.79277E-02  2.25652E+01 -1.00000E+00  1.62158E-01
      21    -1     0     0   502   501  0.000000000E+00  0.000000000E+00  9.865532205E+02  9.865532205E+02  0.000000000E+00  0.00000E+00  9.000E+00
      21    -1     0     0   512   502  0.000000000E+00  0.000000000E+00 -5.100629285E+01  5.100629285E+01  0.000000000E+00  0.00000E+00  9.000E+00
      25     1     1     2     0     0  1.121830839E+02 -1.157795224E+02  6.366373105E+02  6.685222563E+02  1.250000000E+02  0.00000E+00  9.000E+00
      25     1     1     2     0     0 -8.961784487E+01  1.157824636E+02  2.788183728E+02  3.388238805E+02  1.250000000E+02  0.00000E+00  9.000E+00
      21     1     1     2   512   501 -2.256523901E+01 -2.941143763E-03  2.009124440E+01  3.021337654E+01  6.743495762E-07  0.00000E+00  9.000E+00
#rwgt            1           1  0.20835261417760484                1      168803           0
</event>
<event>
      5   9999  3.79277E-02  2.45034E+01 -1.00000E+00  1.59406E-01
      21    -1     0     0   502   511  0.000000000E+00  0.000000000E+00  4.375917226E+02  4.375917226E+02  0.000000000E+00  0.00000E+00  9.000E+00
      21    -1     0     0   501   502  0.000000000E+00  0.000000000E+00 -1.911237519E+02  1.911237519E+02  0.000000000E+00  0.00000E+00  9.000E+00
      25     1     1     2     0     0 -1.110063949E+02 -4.527441528E+01 -1.157367256E+02  2.083079020E+02  1.250000000E+02  0.00000E+00  9.000E+00
      25     1     1     2     0     0  1.213939724E+02  6.746707757E+01  3.364875394E+02  3.848859146E+02  1.250000000E+02  0.00000E+00  9.000E+00
      21     1     1     2   501   511 -1.038757746E+01 -2.219266229E+01  2.571715694E+01  3.552165799E+01  3.371747881E-07  0.00000E+00  9.000E+00
#rwgt            2          11   1.0533605875150655E-002           1      168981           0
</event>
<event>
      5   9999  3.79277E-02  5.57823E+01 -1.00000E+00  1.36417E-01
       2    -1     0     0   502     0  0.000000000E+00  0.000000000E+00  1.525887711E+03  1.525887711E+03  0.000000000E+00  0.00000E+00  9.000E+00
      21    -1     0     0   501   502  0.000000000E+00  0.000000000E+00 -1.519337164E+03  1.519337164E+03  0.000000000E+00  0.00000E+00  9.000E+00
      25     1     1     2     0     0  1.063356786E+02 -1.917212196E+02 -1.692619816E+02  3.038731989E+02  1.250000000E+02  0.00000E+00  9.000E+00
      25     1     1     2     0     0 -6.376800965E+01  1.556704146E+02 -1.273668997E+03  1.290797176E+03  1.250000000E+02  0.00000E+00  9.000E+00
       2     1     1     2   501     0 -4.256766895E+01  3.605080508E+01  1.449481525E+03  1.450554500E+03  0.000000000E+00  0.00000E+00  9.000E+00
#rwgt            1           1   4.6572290604142565E-002           1      169121           0
</event>
<event>
      5   9999  3.79277E-02  3.90352E+02 -1.00000E+00  1.02006E-01
      21    -1     0     0   502   501  0.000000000E+00  0.000000000E+00  2.851955220E+02  2.851955220E+02  0.000000000E+00  0.00000E+00  9.000E+00
      -2    -1     0     0     0   502  0.000000000E+00  0.000000000E+00 -1.105622510E+03  1.105622510E+03  0.000000000E+00  0.00000E+00  9.000E+00
      25     1     1     2     0     0 -2.099968283E+02 -1.849884543E+02 -1.199894211E+02  3.291532429E+02  1.250000000E+02  0.00000E+00  9.000E+00
      25     1     1     2     0     0 -1.801980692E+02  1.739130384E+02 -2.431663826E+01  2.809508640E+02  1.250000000E+02  0.00000E+00  9.000E+00
      -2     1     1     2     0   501  3.901948975E+02  1.107541589E+01 -6.761209288E+02  7.807139253E+02  0.000000000E+00  0.00000E+00  9.000E+00
#rwgt            2           9   2.5580913916804735E-005           1      169385           0
</event>
<event>
      5   9999  3.79277E-02  2.69359E+01 -1.00000E+00  1.56362E-01
      21    -1     0     0   502   501  0.000000000E+00  0.000000000E+00  1.253030133E+02  1.253030133E+02  0.000000000E+00  0.00000E+00  9.000E+00
      21    -1     0     0   501   511  0.000000000E+00  0.000000000E+00 -6.923324648E+02  6.923324648E+02  0.000000000E+00  0.00000E+00  9.000E+00
      25     1     1     2     0     0 -9.142422570E+00  1.250132504E+02  2.418911945E+01  1.786673170E+02  1.250000000E+02  0.00000E+00  9.000E+00
      25     1     1     2     0     0 -1.710919605E+01 -1.310460492E+02 -3.338411944E+02  3.801851321E+02  1.250000000E+02  0.00000E+00  9.000E+00
      21     1     1     2   502   511  2.625161862E+01  6.032798861E+00 -2.573773766E+02  2.587830290E+02  0.000000000E+00  0.00000E+00  9.000E+00
#rwgt            1           1   4.3804828029469493E-002           1      169524           0
</event>
<event>
      5   9999  3.79277E-02  9.93101E+01 -1.00000E+00  1.23963E-01
      21    -1     0     0   502   512  0.000000000E+00  0.000000000E+00  1.009115670E+03  1.009115670E+03  0.000000000E+00  0.00000E+00  9.000E+00
      21    -1     0     0   501   502  0.000000000E+00  0.000000000E+00 -3.469591171E+02  3.469591171E+02  0.000000000E+00  0.00000E+00  9.000E+00
      25     1     1     2     0     0 -1.194565135E+02  6.491425601E+00  3.811373888E+02  4.185722236E+02  1.250000000E+02  0.00000E+00  9.000E+00
      25     1     1     2     0     0  8.365362387E+01  8.614034167E+01 -3.008558315E+02  3.472136498E+02  1.250000000E+02  0.00000E+00  9.000E+00
      21     1     1     2   501   512  3.580288962E+01 -9.263176727E+01  5.818749957E+02  5.902889139E+02  1.321449896E-05  0.00000E+00  9.000E+00
#rwgt            1           1   4.5158552594743419E-002           1      169625           0
</event>
<event>
      5   9999  3.79277E-02  2.89171E+01 -1.00000E+00  1.54157E-01
      21    -1     0     0   502   511  0.000000000E+00  0.000000000E+00  9.920412805E+01  9.920412805E+01  0.000000000E+00  0.00000E+00  9.000E+00
      21    -1     0     0   501   502  0.000000000E+00  0.000000000E+00 -5.562370029E+02  5.562370029E+02  0.000000000E+00  0.00000E+00  9.000E+00
      25     1     1     2     0     0  1.691015913E+02 -6.202385077E+01 -1.776265990E+02  2.821675299E+02  1.250000000E+02  0.00000E+00  9.000E+00
      25     1     1     2     0     0 -1.554683045E+02  3.652224650E+01 -2.782748606E+02  3.443343814E+02  1.250000000E+02  0.00000E+00  9.000E+00
      21     1     1     2   501   511 -1.363328680E+01  2.550160428E+01 -1.131415211E+00  2.893921958E+01  2.360787916E-07  0.00000E+00  9.000E+00
#rwgt            1           1   4.9938698449924858E-002           1      169869           0
</event>
<event>
      5   9999  3.79277E-02  1.16908E+02 -1.00000E+00  1.20851E-01
      21    -1     0     0   502   512  0.000000000E+00  0.000000000E+00  2.237507227E+03  2.237507227E+03  0.000000000E+00  0.00000E+00  9.000E+00
      21    -1     0     0   501   502  0.000000000E+00  0.000000000E+00 -3.295751354E+01  3.295751354E+01  0.000000000E+00  0.00000E+00  9.000E+00
      25     1     1     2     0     0  1.852207996E+01  1.426645782E+02  9.601479942E+02  9.788796760E+02  1.250000000E+02  0.00000E+00  9.000E+00
      25     1     1     2     0     0  9.749924431E+01 -1.570368725E+02  6.973481776E+02  7.321790511E+02  1.250000000E+02  0.00000E+00  9.000E+00
      21     1     1     2   501   512 -1.160213243E+02  1.437229431E+01  5.470535421E+02  5.594060139E+02  7.629394531E-06  0.00000E+00  9.000E+00
#rwgt            1           1   3.5378518297521401E-002           1      169980           0
</event>
<event>
      5   9999  3.79277E-02  4.59732E+01 -1.00000E+00  1.41188E-01
      21    -1     0     0   502   501  0.000000000E+00  0.000000000E+00  4.261999578E+01  4.261999578E+01  0.000000000E+00  0.00000E+00  9.000E+00
      21    -1     0     0   501   511  0.000000000E+00  0.000000000E+00 -9.625236849E+02  9.625236849E+02  0.000000000E+00  0.00000E+00  9.000E+00
      25     1     1     2     0     0 -2.813778083E+01 -1.207981368E+01 -6.964316039E+02  7.082228714E+02  1.250000000E+02  0.00000E+00  9.000E+00
      25     1     1     2     0     0 -3.771519950E+00 -2.101605039E+01 -8.931883794E+01  1.551088442E+02  1.250000000E+02  0.00000E+00  9.000E+00
      21     1     1     2   502   511  3.190930078E+01  3.309586407E+01 -1.341532473E+02  1.418119651E+02  0.000000000E+00  0.00000E+00  9.000E+00
#rwgt            1           1   5.3071268743672455E-002           1      170087           0
</event>
<event>
      5   9999  3.79277E-02  2.68270E+01 -1.00000E+00  1.56490E-01
      21    -1     0     0   502   512  0.000000000E+00  0.000000000E+00  6.090602629E+02  6.090602629E+02  0.000000000E+00  0.00000E+00  9.000E+00
      21    -1     0     0   501   502  0.000000000E+00  0.000000000E+00 -9.137207607E+01  9.137207607E+01  0.000000000E+00  0.00000E+00  9.000E+00
      25     1     1     2     0     0 -6.001800948E+01 -7.285249087E+01  1.406727681E+02  2.105314100E+02  1.250000000E+02  0.00000E+00  9.000E+00
      25     1     1     2     0     0  7.709095370E+01  5.215946971E+01  5.275822261E+01  1.645358790E+02  1.250000000E+02  0.00000E+00  9.000E+00
      21     1     1     2   501   512 -1.707294423E+01  2.069302116E+01  3.242571961E+02  3.253650500E+02  3.814697266E-06  0.00000E+00  9.000E+00
#rwgt            1           1   5.1275590705253386E-002           1      170182           0
</event>
<event>
      5   9999  3.79277E-02  1.24052E+02 -1.00000E+00  1.19759E-01
      21    -1     0     0   502   501  0.000000000E+00  0.000000000E+00  7.048263381E+02  7.048263381E+02  0.000000000E+00  0.00000E+00  9.000E+00
       3    -1     0     0   501     0  0.000000000E+00  0.000000000E+00 -1.463959039E+02  1.463959039E+02  0.000000000E+00  0.00000E+00  9.000E+00
      25     1     1     2     0     0 -1.285792050E+02 -3.174737067E+01  4.303994976E+02  4.673427383E+02  1.250000000E+02  0.00000E+00  9.000E+00
      25     1     1     2     0     0  6.961746619E+01  1.408912916E+02  1.588720021E+02  2.560512853E+02  1.250000000E+02  0.00000E+00  9.000E+00
       3     1     1     2   502     0  5.896173882E+01 -1.091439209E+02 -3.084106547E+01  1.278282185E+02  1.348699152E-06  0.00000E+00  9.000E+00
#rwgt            1           1   3.6719238453995662E-002           1      170358           0
</event>
<event>
      5   9999  3.79277E-02  7.92395E+00 -1.00000E+00  2.08214E-01
      21    -1     0     0   502   511  0.000000000E+00  0.000000000E+00  9.743207923E+02  9.743207923E+02  0.000000000E+00  0.00000E+00  9.000E+00
      21    -1     0     0   501   502  0.000000000E+00  0.000000000E+00 -6.742033016E+01  6.742033016E+01  0.000000000E+00  0.00000E+00  9.000E+00
      25     1     1     2     0     0 -6.015705519E+01 -1.789115937E+02  2.551037273E+02  3.410735131E+02  1.250000000E+02  0.00000E+00  9.000E+00
      25     1     1     2     0     0  6.743636111E+01  1.757809811E+02  5.004092236E+02  5.490728614E+02  1.250000000E+02  0.00000E+00  9.000E+00
      21     1     1     2   501   511 -7.279305919E+00  3.130612559E+00  1.513875113E+02  1.515947480E+02  2.697398305E-06  0.00000E+00  9.000E+00
#rwgt            1           1   5.2579855660367804E-002           1      170416           0
</event>
<event>
      5   9999  3.79277E-02  5.68584E+01 -1.00000E+00  1.35963E-01
      21    -1     0     0   502   501  0.000000000E+00  0.000000000E+00  1.235303005E+02  1.235303005E+02  0.000000000E+00  0.00000E+00  9.000E+00
      21    -1     0     0   512   502  0.000000000E+00  0.000000000E+00 -5.121482340E+02  5.121482340E+02  0.000000000E+00  0.00000E+00  9.000E+00
      25     1     1     2     0     0 -5.277723440E+01 -4.108763693E+01  4.664803117E+01  1.492470073E+02  1.250000000E+02  0.00000E+00  9.000E+00
      25     1     1     2     0     0  3.256359628E+01  9.423164589E+01 -3.074998848E+02  3.465850113E+02  1.250000000E+02  0.00000E+00  9.000E+00
      21     1     1     2   512   501  2.021363812E+01 -5.314400896E+01 -1.277660799E+02  1.398465159E+02  2.336015456E-06  0.00000E+00  9.000E+00
#rwgt            1           1   2.7669227111144917E-002           1      170748           0
</event>
<event>
      5   9999  3.79277E-02  3.30809E+01 -1.00000E+00  1.50148E-01
      21    -1     0     0   511   501  0.000000000E+00  0.000000000E+00  4.395527279E+02  4.395527279E+02  0.000000000E+00  0.00000E+00  9.000E+00
      21    -1     0     0   501   502  0.000000000E+00  0.000000000E+00 -3.106931943E+02  3.106931943E+02  0.000000000E+00  0.00000E+00  9.000E+00
      25     1     1     2     0     0 -2.070231207E+02 -2.533247948E+02  7.834268915E+01  3.588796471E+02  1.250000000E+02  0.00000E+00  9.000E+00
      25     1     1     2     0     0  1.800059461E+02  2.342349739E+02 -1.161138254E+01  3.209797312E+02  1.250000000E+02  0.00000E+00  9.000E+00
      21     1     1     2   511   502  2.701717460E+01  1.908982088E+01  6.212822697E+01  7.038654396E+01  1.348699152E-06  0.00000E+00  9.000E+00
#rwgt            1           1   5.3552234734758244E-002           1      170861           0
</event>
<event>
      5   9999  3.79277E-02  4.33097E+01 -1.00000E+00  1.42731E-01
      21    -1     0     0   502   501  0.000000000E+00  0.000000000E+00  2.750460714E+02  2.750460714E+02  0.000000000E+00  0.00000E+00  9.000E+00
      21    -1     0     0   512   502  0.000000000E+00  0.000000000E+00 -2.614036813E+02  2.614036813E+02  0.000000000E+00  0.00000E+00  9.000E+00
      25     1     1     2     0     0  1.118103819E+02 -6.941775006E+01  6.432432375E+00  1.816225804E+02  1.250000000E+02  0.00000E+00  9.000E+00
      25     1     1     2     0     0 -1.023913045E+02  2.714465732E+01  1.397749310E+02  2.153667639E+02  1.250000000E+02  0.00000E+00  9.000E+00
      21     1     1     2   512   501 -9.419077369E+00  4.227309274E+01 -1.325649732E+02  1.394604084E+02  0.000000000E+00  0.00000E+00  9.000E+00
#rwgt            1           1   3.6638800747627563E-002           1      170990           0
</event>
<event>
      5   9999  3.79277E-02  6.06003E+01 -1.00000E+00  1.34473E-01
      -2    -1     0     0     0   501  0.000000000E+00  0.000000000E+00  1.415207177E+03  1.415207177E+03  0.000000000E+00  0.00000E+00  9.000E+00
      21    -1     0     0   501   502  0.000000000E+00  0.000000000E+00 -8.322973330E+01  8.322973330E+01  0.000000000E+00  0.00000E+00  9.000E+00
      25     1     1     2     0     0 -1.311453728E+02 -5.756895300E+00  8.459169100E+01  2.000325094E+02  1.250000000E+02  0.00000E+00  9.000E+00
      25     1     1     2     0     0  1.771885943E+02 -3.364384516E+01  4.704703226E+02  5.191291080E+02  1.250000000E+02  0.00000E+00  9.000E+00
      -2     1     1     2     0   502 -4.604322154E+01  3.940074046E+01  7.769154303E+02  7.792752931E+02  1.525878906E-05  0.00000E+00  9.000E+00
#rwgt            1           1   3.9821905771237759E-002           1      171075           0
</event>
<event>
      5   9999  3.79277E-02  2.21897E+02 -1.00000E+00  1.10030E-01
       2    -1     0     0   502     0  0.000000000E+00  0.000000000E+00  6.627666125E+02  6.627666125E+02  0.000000000E+00  0.00000E+00  9.000E+00
      21    -1     0     0   501   502  0.000000000E+00  0.000000000E+00 -4.006888755E+02  4.006888755E+02  0.000000000E+00  0.00000E+00  9.000E+00
      25     1     1     2     0     0 -1.851339986E+01  1.253945345E+02 -3.917085878E+01  1.822797066E+02  1.250000000E+02  0.00000E+00  9.000E+00
      25     1     1     2     0     0  2.253118818E+02 -2.058463416E+02 -1.620681826E+02  3.674632719E+02  1.250000000E+02  0.00000E+00  9.000E+00
       2     1     1     2   501     0 -2.067984820E+02  8.045180709E+01  4.633167783E+02  5.137125095E+02  7.629394531E-06  0.00000E+00  9.000E+00
#rwgt            1           1   3.9773301620851992E-002           1      171164           0
</event>
<event>
      5   9999 -3.79277E-02  5.78066E+00 -1.00000E+00  2.28013E-01
      21    -1     0     0   502   501  0.000000000E+00  0.000000000E+00  2.685581109E+02  2.685581109E+02  0.000000000E+00  0.00000E+00  9.000E+00
      21    -1     0     0   511   502  0.000000000E+00  0.000000000E+00 -2.232630234E+02  2.232630234E+02  0.000000000E+00  0.00000E+00  9.000E+00
      25     1     1     2     0     0 -1.417097676E+02  4.116094240E+01 -4.582228374E+01  1.987474858E+02  1.250000000E+02  0.00000E+00  9.000E+00
      25     1     1     2     0     0  1.466582426E+02 -4.414901898E+01  1.410207185E+02  2.428366098E+02  1.250000000E+02  0.00000E+00  9.000E+00
      21     1     1     2   511   501 -4.948475010E+00  2.988076575E+00 -4.990334725E+01  5.023703886E+01  6.743495762E-07  0.00000E+00  9.000E+00
#rwgt            1           1  -7.3331726687993370E-002           1      171220           0
</event>
<event>
      5   9999  3.79277E-02  3.06849E+01 -1.00000E+00  1.52362E-01
       2    -1     0     0   502     0  0.000000000E+00  0.000000000E+00  1.908468058E+02  1.908468058E+02  0.000000000E+00  0.00000E+00  9.000E+00
      21    -1     0     0   501   502  0.000000000E+00  0.000000000E+00 -4.238804828E+02  4.238804828E+02  0.000000000E+00  0.00000E+00  9.000E+00
      25     1     1     2     0     0  7.557587853E+01 -1.596707335E+02 -2.801062593E+02  3.539646495E+02  1.250000000E+02  0.00000E+00  9.000E+00
      25     1     1     2     0     0 -5.702513083E+01  1.352283325E+02 -1.309447553E+01  1.932227542E+02  1.250000000E+02  0.00000E+00  9.000E+00
       2     1     1     2   501     0 -1.855074770E+01  2.444240108E+01  6.016705783E+01  6.753988495E+01  1.168007728E-06  0.00000E+00  9.000E+00
#rwgt            1           1   3.9768342481355655E-002           1      171693           0
</event>
<event>
      5   9999 -3.79277E-02  2.77069E+01 -1.00000E+00  1.55478E-01
      21    -1     0     0   502   501  0.000000000E+00  0.000000000E+00  1.654835196E+03  1.654835196E+03  0.000000000E+00  0.00000E+00  9.000E+00
      21    -1     0     0   501   511  0.000000000E+00  0.000000000E+00 -2.762735342E+01  2.762735342E+01  0.000000000E+00  0.00000E+00  9.000E+00
      25     1     1     2     0     0  4.391793003E+01 -1.333671646E+02  5.623151654E+02  5.929071854E+02  1.250000000E+02  0.00000E+00  9.000E+00
      25     1     1     2     0     0 -7.156290928E+01  1.352183741E+02  9.939577869E+02  1.013401372E+03  1.250000000E+02  0.00000E+00  9.000E+00
      21     1     1     2   502   511  2.764497925E+01 -1.851209442E+00  7.093489064E+01  7.615399244E+01  1.348699152E-06  0.00000E+00  9.000E+00
#rwgt            1           1  -6.7315532319835697E-002           1      171786           0
</event>
<event>
      5   9999  3.79277E-02  2.64439E+01 -1.00000E+00  1.56946E-01
      21    -1     0     0   502   501  0.000000000E+00  0.000000000E+00  2.285361516E+02  2.285361516E+02  0.000000000E+00  0.00000E+00  9.000E+00
      21    -1     0     0   512   502  0.000000000E+00  0.000000000E+00 -1.553993521E+02  1.553993521E+02  0.000000000E+00  0.00000E+00  9.000E+00
      25     1     1     2     0     0  5.660235352E+01 -9.239548197E+01  1.038889281E+02  1.953424196E+02  1.250000000E+02  0.00000E+00  9.000E+00
      25     1     1     2     0     0 -4.786111750E+01  6.743814558E+01 -2.504745520E+00  1.498995123E+02  1.250000000E+02  0.00000E+00  9.000E+00
      21     1     1     2   512   501 -8.741236019E+00  2.495733639E+01 -2.824738311E+01  3.869357181E+01  3.371747881E-07  0.00000E+00  9.000E+00
#rwgt            1           1   4.7431846748656824E-002           1      171890           0
</event>
<event>
      5   9999  3.79277E-02  1.50276E+01 -1.00000E+00  1.77308E-01
      21    -1     0     0   502   501  0.000000000E+00  0.000000000E+00  1.635076440E+02  1.635076440E+02  0.000000000E+00  0.00000E+00  9.000E+00
      21    -1     0     0   511   502  0.000000000E+00  0.000000000E+00 -2.489901292E+02  2.489901292E+02  0.000000000E+00  0.00000E+00  9.000E+00
      25     1     1     2     0     0 -3.503058592E+00  1.439026133E+02 -3.350395949E+01  1.935658773E+02  1.250000000E+02  0.00000E+00  9.000E+00
      25     1     1     2     0     0  5.144058483E+00 -1.289648727E+02 -1.653601926E+01  1.804351398E+02  1.250000000E+02  0.00000E+00  9.000E+00
      21     1     1     2   511   501 -1.640999891E+00 -1.493774059E+01 -3.544250639E+01  3.849675615E+01  4.768371582E-07  0.00000E+00  9.000E+00
#rwgt            1           1   5.3757860511518159E-002           1      171966           0
</event>
<event>
      5   9999  3.79277E-02  2.00342E+01 -1.00000E+00  1.66308E-01
      21    -1     0     0   502   501  0.000000000E+00  0.000000000E+00  2.991287352E+02  2.991287352E+02  0.000000000E+00  0.00000E+00  9.000E+00
      21    -1     0     0   501   512  0.000000000E+00  0.000000000E+00 -8.854580536E+02  8.854580536E+02  0.000000000E+00  0.00000E+00  9.000E+00
      25     1     1     2     0     0 -2.792872205E+02  1.577233254E+02 -2.118588457E+02  4.042117878E+02  1.250000000E+02  0.00000E+00  9.000E+00
      25     1     1     2     0     0  2.624001420E+02 -1.469439842E+02  7.192230032E+01  3.335328864E+02  1.250000000E+02  0.00000E+00  9.000E+00
      21     1     1     2   502   512  1.688707849E+01 -1.077934121E+01 -4.463927730E+02  4.468421146E+02  5.394796609E-06  0.00000E+00  9.000E+00
#rwgt            1           1   3.2830638410341867E-002           1      172116           0
</event>
<event>
      5   9999  3.79277E-02  2.58463E+01 -1.00000E+00  1.57676E-01
      21    -1     0     0   511   501  0.000000000E+00  0.000000000E+00  4.598859653E+01  4.598859653E+01  0.000000000E+00  0.00000E+00  9.000E+00
      21    -1     0     0   501   502  0.000000000E+00  0.000000000E+00 -2.987784054E+03  2.987784054E+03  0.000000000E+00  0.00000E+00  9.000E+00
      25     1     1     2     0     0  5.577738084E+01  1.081263873E+02 -9.238618570E+02  9.401851746E+02  1.250000000E+02  0.00000E+00  9.000E+00
      25     1     1     2     0     0 -3.375031168E+01 -9.460464572E+01 -2.047812188E+03  2.054081030E+03  1.250000000E+02  0.00000E+00  9.000E+00
      21     1     1     2   511   502 -2.202706916E+01 -1.352174157E+01  2.987858725E+01  3.950644564E+01  7.539457465E-07  0.00000E+00  9.000E+00
#rwgt            1           1   2.5840759021636250E-002           1      172352           0
</event>
<event>
      5   9999  3.79277E-02  2.94140E+01 -1.00000E+00  1.53637E-01
      21    -1     0     0   502   501  0.000000000E+00  0.000000000E+00  3.293522216E+02  3.293522216E+02  0.000000000E+00  0.00000E+00  9.000E+00
      21    -1     0     0   512   502  0.000000000E+00  0.000000000E+00 -1.946157503E+02  1.946157503E+02  0.000000000E+00  0.00000E+00  9.000E+00
      25     1     1     2     0     0 -1.048547389E+02  8.088797458E+01 -7.980702502E+01  1.988254057E+02  1.250000000E+02  0.00000E+00  9.000E+00
      25     1     1     2     0     0  1.320746580E+02 -9.203521120E+01  2.142789560E+02  2.957273514E+02  1.250000000E+02  0.00000E+00  9.000E+00
      21     1     1     2   512   501 -2.721991911E+01  1.114723663E+01  2.645403384E-01  2.941521481E+01  2.768519858E-07  0.00000E+00  9.000E+00
#rwgt            1           1   4.5935878211450260E-002           1      172494           0
</event>
<event>
      5   9999  3.79277E-02  6.59965E+01 -1.00000E+00  1.32529E-01
      21    -1     0     0   511   501  0.000000000E+00  0.000000000E+00  8.568023148E+01  8.568023148E+01  0.000000000E+00  0.00000E+00  9.000E+00
      21    -1     0     0   501   502  0.000000000E+00  0.000000000E+00 -9.428484344E+02  9.428484344E+02  0.000000000E+00  0.00000E+00  9.000E+00
      25     1     1     2     0     0 -2.009388291E+02 -4.375003163E+01 -6.676766056E+02  7.097235574E+02  1.250000000E+02  0.00000E+00  9.000E+00
      25     1     1     2     0     0  1.412982150E+02  1.549165921E+01 -1.530051834E+02  2.433942547E+02  1.250000000E+02  0.00000E+00  9.000E+00
      21     1     1     2   511   502  5.964061412E+01  2.825837242E+01 -3.648641393E+01  7.541085376E+01  1.581489940E-06  0.00000E+00  9.000E+00
#rwgt            1           1   3.8614641302094826E-002           1      172626           0
</event>
<event>
      5   9999  3.79277E-02  6.06596E+01 -1.00000E+00  1.34450E-01
      21    -1     0     0   512   501  0.000000000E+00  0.000000000E+00  4.906975693E+02  4.906975693E+02  0.000000000E+00  0.00000E+00  9.000E+00
      21    -1     0     0   501   502  0.000000000E+00  0.000000000E+00 -2.031004062E+02  2.031004062E+02  0.000000000E+00  0.00000E+00  9.000E+00
      25     1     1     2     0     0 -1.132562819E+02 -1.838277647E+02  4.203223327E+01  2.530046266E+02  1.250000000E+02  0.00000E+00  9.000E+00
      25     1     1     2     0     0  1.711756437E+02  2.018535454E+02  1.534009118E+02  3.304584611E+02  1.250000000E+02  0.00000E+00  9.000E+00
      21     1     1     2   512   502 -5.791936181E+01 -1.802578063E+01  9.216401805E+01  1.103348878E+02  1.348699152E-06  0.00000E+00  9.000E+00
#rwgt            1           1   5.4465892225569433E-002           1      172688           0
</event>
<event>
      5   9999  3.79277E-02  4.16577E+01 -1.00000E+00  1.43755E-01
      21    -1     0     0   511   501  0.000000000E+00  0.000000000E+00  3.989725626E+02  3.989725626E+02  0.000000000E+00  0.00000E+00  9.000E+00
      21    -1     0     0   501   502  0.000000000E+00  0.000000000E+00 -1.234417522E+03  1.234417522E+03  0.000000000E+00  0.00000E+00  9.000E+00
      25     1     1     2     0     0 -9.520870556E+01 -1.146717755E+02 -6.435053187E+02  6.722636454E+02  1.250000000E+02  0.00000E+00  9.000E+00
      25     1     1     2     0     0  1.307456933E+02  9.293497523E+01 -5.573796047E+02  5.933197870E+02  1.250000000E+02  0.00000E+00  9.000E+00
      21     1     1     2   511   502 -3.553698772E+01  2.173680026E+01  3.654399641E+02  3.678066521E+02  7.629394531E-06  0.00000E+00  9.000E+00
#rwgt            1           1   3.9641865298137915E-002           1      172776           0
</event>
<event>
      5   9999  3.79277E-02  2.55505E+01 -1.00000E+00  1.58046E-01
       3    -1     0     0   502     0  0.000000000E+00  0.000000000E+00  3.121618732E+03  3.121618732E+03  0.000000000E+00  0.00000E+00  9.000E+00
      21    -1     0     0   501   502  0.000000000E+00  0.000000000E+00 -2.778822628E+01  2.778822628E+01  0.000000000E+00  0.00000E+00  9.000E+00
      25     1     1     2     0     0 -1.174823563E+02 -2.096806210E+01  3.523974429E+02  3.924929571E+02  1.250000000E+02  0.00000E+00  9.000E+00
      25     1     1     2     0     0  1.226512037E+02 -4.054184845E+00  9.955168569E+02  1.010810846E+03  1.250000000E+02  0.00000E+00  9.000E+00
       3     1     1     2   501     0 -5.168847455E+00  2.502224694E+01  1.745916206E+03  1.746103155E+03  2.157918644E-05  0.00000E+00  9.000E+00
#rwgt            1           1   4.8632996719141064E-002           1      172905           0
</event>
<event>
      5   9999  3.79277E-02  7.79907E+00 -1.00000E+00  2.09125E-01
      21    -1     0     0   502   511  0.000000000E+00  0.000000000E+00  4.916904532E+01  4.916904532E+01  0.000000000E+00  0.00000E+00  9.000E+00
      21    -1     0     0   501   502  0.000000000E+00  0.000000000E+00 -1.041157157E+03  1.041157157E+03  0.000000000E+00  0.00000E+00  9.000E+00
      25     1     1     2     0     0  8.530332802E+01  4.612897770E+01 -1.509238158E+02  2.186493506E+02  1.250000000E+02  0.00000E+00  9.000E+00
      25     1     1     2     0     0 -8.026173209E+01 -5.207942902E+01 -8.472333415E+02  8.617328748E+02  1.250000000E+02  0.00000E+00  9.000E+00
      21     1     1     2   501   511 -5.041595931E+00  5.950451320E+00  6.169045379E+00  9.943977139E+00  4.042583694E-07  0.00000E+00  9.000E+00
#rwgt            1           1   4.8741019464513598E-002           1      173052           0
</event>
<event>
      5   9999 -3.79277E-02  1.67098E+01 -1.00000E+00  1.73078E-01
      21    -1     0     0   502   501  0.000000000E+00  0.000000000E+00  1.652815729E+02  1.652815729E+02  0.000000000E+00  0.00000E+00  9.000E+00
      21    -1     0     0   501   512  0.000000000E+00  0.000000000E+00 -2.330337334E+02  2.330337334E+02  0.000000000E+00  0.00000E+00  9.000E+00
      25     1     1     2     0     0 -3.378100668E+01 -1.193268935E+02 -9.785657584E+01  2.014471974E+02  1.250000000E+02  0.00000E+00  9.000E+00
      25     1     1     2     0     0  2.902421592E+01  1.033084162E+02  4.877591388E+01  1.718113027E+02  1.250000000E+02  0.00000E+00  9.000E+00
      21     1     1     2   502   512  4.756790761E+00  1.601847732E+01 -1.867149855E+01  2.505680610E+01  3.371747881E-07  0.00000E+00  9.000E+00
#rwgt            1           1  -4.5202109994844974E-002           1      173370           0
</event>
<event>
      5   9999  3.79277E-02  1.03075E+02 -1.00000E+00  1.23239E-01
      21    -1     0     0   502   501  0.000000000E+00  0.000000000E+00  1.153164273E+03  1.153164273E+03  0.000000000E+00  0.00000E+00  9.000E+00
      21    -1     0     0   501   511  0.000000000E+00  0.000000000E+00 -1.165003317E+02  1.165003317E+02  0.000000000E+00  0.00000E+00  9.000E+00
      25     1     1     2     0     0 -8.689818248E+00 -1.463183776E+02  8.102002949E+02  8.327869466E+02  1.250000000E+02  0.00000E+00  9.000E+00
      25     1     1     2     0     0 -5.586676981E+01  6.596312530E+01  2.815917325E+02  3.199861460E+02  1.250000000E+02  0.00000E+00  9.000E+00
      21     1     1     2   502   511  6.455658805E+01  8.035525232E+01 -5.512808634E+01  1.168915118E+02  3.015782986E-06  0.00000E+00  9.000E+00
#rwgt            1           1   4.4697198657560104E-002           1      173589           0
</event>
<event>
      5   9999  3.79277E-02  2.80850E+01 -1.00000E+00  1.55057E-01
      21    -1     0     0   502   512  0.000000000E+00  0.000000000E+00  1.079632327E+02  1.079632327E+02  0.000000000E+00  0.00000E+00  9.000E+00
      21    -1     0     0   501   502  0.000000000E+00  0.000000000E+00 -1.278710662E+03  1.278710662E+03  0.000000000E+00  0.00000E+00  9.000E+00
      25     1     1     2     0     0  2.206843507E+02  1.845124177E+01 -1.047226338E+02  2.750161104E+02  1.250000000E+02  0.00000E+00  9.000E+00
      25     1     1     2     0     0 -2.485666518E+02 -1.508349203E+01 -1.023082089E+03  1.060346573E+03  1.250000000E+02  0.00000E+00  9.000E+00
      21     1     1     2   501   512  2.788230111E+01 -3.367749736E+00 -4.294270644E+01  5.131121213E+01  4.768371582E-07  0.00000E+00  9.000E+00
#rwgt            1           1   4.0763095421892694E-002           1      173770           0
</event>
<event>
      5   9999  3.79277E-02  4.21685E+01 -1.00000E+00  1.43432E-01
      21    -1     0     0   502   501  0.000000000E+00  0.000000000E+00  1.052602525E+03  1.052602525E+03  0.000000000E+00  0.00000E+00  9.000E+00
       2    -1     0     0   501     0  0.000000000E+00  0.000000000E+00 -9.723824450E+02  9.723824450E+02  0.000000000E+00  0.00000E+00  9.000E+00
      25     1     1     2     0     0 -1.523260937E+02 -2.296080316E+02  3.478219610E+02  4.610078129E+02  1.250000000E+02  0.00000E+00  9.000E+00
      25     1     1     2     0     0  1.527615367E+02  2.717743049E+02  6.041291922E+02  6.912267651E+02  1.250000000E+02  0.00000E+00  9.000E+00
       2     1     1     2   502     0 -4.354429424E-01 -4.216627322E+01 -8.717310728E+02  8.727503924E+02  1.078959322E-05  0.00000E+00  9.000E+00
#rwgt            1           1   4.9048516134046968E-002           1      174002           0
</event>
<event>
      5   9999  3.79277E-02  3.37845E+01 -1.00000E+00  1.49540E-01
      21    -1     0     0   511   501  0.000000000E+00  0.000000000E+00  1.296660163E+02  1.296660163E+02  0.000000000E+00  0.00000E+00  9.000E+00
      21    -1     0     0   501   502  0.000000000E+00  0.000000000E+00 -7.756977682E+02  7.756977682E+02  0.000000000E+00  0.00000E+00  9.000E+00
      25     1     1     2     0     0  3.843004561E+01  1.211588216E+02 -1.314038446E+02  2.214685053E+02  1.250000000E+02  0.00000E+00  9.000E+00
      25     1     1     2     0     0 -6.757949644E+01 -1.040795604E+02 -5.822470550E+02  6.083059890E+02  1.250000000E+02  0.00000E+00  9.000E+00
      21     1     1     2   511   502  2.914945083E+01 -1.707926120E+01  6.761914769E+01  7.558929012E+01  1.907348633E-06  0.00000E+00  9.000E+00
#rwgt            1           1   4.0130327883748727E-002           1      174167           0
</event>
<event>
      5   9999  3.79277E-02  1.52788E+01 -1.00000E+00  1.76633E-01
      21    -1     0     0   502   501  0.000000000E+00  0.000000000E+00  6.290586355E+02  6.290586355E+02  0.000000000E+00  0.00000E+00  9.000E+00
       1    -1     0     0   501     0  0.000000000E+00  0.000000000E+00 -1.262616999E+03  1.262616999E+03  0.000000000E+00  0.00000E+00  9.000E+00
      25     1     1     2     0     0 -8.332904354E+01 -7.772024542E+01  4.125088251E+02  4.458393173E+02  1.250000000E+02  0.00000E+00  9.000E+00
      25     1     1     2     0     0  8.145746045E+01  9.288402550E+01  1.611948822E+02  2.384775673E+02  1.250000000E+02  0.00000E+00  9.000E+00
       1     1     1     2   502     0  1.871583085E+00 -1.516378007E+01 -1.207262071E+03  1.207358750E+03  1.525878906E-05  0.00000E+00  9.000E+00
#rwgt            1           1   4.0054583759630773E-002           1      174284           0
</event>
<event>
      5   9999  3.79277E-02  3.89039E+01 -1.00000E+00  1.45592E-01
      21    -1     0     0   502   501  0.000000000E+00  0.000000000E+00  1.258433859E+02  1.258433859E+02  0.000000000E+00  0.00000E+00  9.000E+00
      21    -1     0     0   511   502  0.000000000E+00  0.000000000E+00 -1.060205256E+03  1.060205256E+03  0.000000000E+00  0.00000E+00  9.000E+00
      25     1     1     2     0     0 -4.161448171E+01  2.046288292E+02 -6.679792273E+01  2.523721168E+02  1.250000000E+02  0.00000E+00  9.000E+00
      25     1     1     2     0     0  1.248266732E+01 -2.304135972E+02 -5.058195521E+02  5.698461741E+02  1.250000000E+02  0.00000E+00  9.000E+00
      21     1     1     2   511   501  2.913181439E+01  2.578476801E+01 -3.617443956E+02  3.638303514E+02  0.000000000E+00  0.00000E+00  9.000E+00
#rwgt            1           1   2.4769638019689656E-002           1      174471           0
</event>
<event>
      5   9999  3.79277E-02  2.31154E+02 -1.00000E+00  1.09406E-01
      21    -1     0     0   502   501  0.000000000E+00  0.000000000E+00  5.169807530E+02  5.169807530E+02  0.000000000E+00  0.00000E+00  9.000E+00
      21    -1     0     0   512   502  0.000000000E+00  0.000000000E+00 -2.198596523E+02  2.198596523E+02  0.000000000E+00  0.00000E+00  9.000E+00
      25     1     1     2     0     0 -1.200367686E+02 -3.181576991E+01  1.125387233E+02  2.090718376E+02  1.250000000E+02  0.00000E+00  9.000E+00
      25     1     1     2     0     0  1.168315710E+02 -1.993160747E+02  8.517092358E+01  2.761441650E+02  1.250000000E+02  0.00000E+00  9.000E+00
      21     1     1     2   512   501  3.205197642E+00  2.311318446E+02  9.941145377E+01  2.516244027E+02  3.303624740E-06  0.00000E+00  9.000E+00
#rwgt            2          11   1.3636731062187282E-003           1      174751           0
</event>
<event>
      5   9999  3.79277E-02  4.16931E+01 -1.00000E+00  1.43732E-01
      21    -1     0     0   502   511  0.000000000E+00  0.000000000E+00  3.621071021E+02  3.621071021E+02  0.000000000E+00  0.00000E+00  9.000E+00
      21    -1     0     0   501   502  0.000000000E+00  0.000000000E+00 -5.815237213E+02  5.815237213E+02  0.000000000E+00  0.00000E+00  9.000E+00
      25     1     1     2     0     0 -3.586447608E+01 -8.334713503E+01 -3.193913997E+01  1.577279754E+02  1.250000000E+02  0.00000E+00  9.000E+00
      25     1     1     2     0     0  7.576493583E+01  7.125310326E+01 -4.715431299E+02  4.987937987E+02  1.250000000E+02  0.00000E+00  9.000E+00
      21     1     1     2   501   511 -3.990045975E+01  1.209403177E+01  2.840656507E+02  2.871090493E+02  5.394796609E-06  0.00000E+00  9.000E+00
#rwgt            1           1   3.5679173564170441E-002           1      174786           0
</event>
<event>
      5   9999  3.79277E-02  9.15581E+01 -1.00000E+00  1.25576E-01
      -1    -1     0     0     0   501  0.000000000E+00  0.000000000E+00  1.065203307E+02  1.065203307E+02  0.000000000E+00  0.00000E+00  9.000E+00
      21    -1     0     0   501   502  0.000000000E+00  0.000000000E+00 -9.444018719E+02  9.444018719E+02  0.000000000E+00  0.00000E+00  9.000E+00
      25     1     1     2     0     0 -1.221618073E+02 -5.608597039E+01 -5.288457057E+02  5.597963234E+02  1.250000000E+02  0.00000E+00  9.000E+00
      25     1     1     2     0     0  2.081504272E+02  2.464010652E+01 -3.160409883E+02  3.993001896E+02  1.250000000E+02  0.00000E+00  9.000E+00
      -1     1     1     2     0   502 -8.598861987E+01  3.144586387E+01  7.005152680E+00  9.182568957E+01  9.195356739E-07  0.00000E+00  9.000E+00
#rwgt            2           5   2.7121233220248039E-005           1      174933           0
</event>
<event>
      5   9999  3.79277E-02  4.82087E+01 -1.00000E+00  1.39986E-01
      21    -1     0     0   511   501  0.000000000E+00  0.000000000E+00  6.015089805E+02  6.015089805E+02  0.000000000E+00  0.00000E+00  9.000E+00
      21    -1     0     0   501   502  0.000000000E+00  0.000000000E+00 -6.631549851E+01  6.631549851E+01  0.000000000E+00  0.00000E+00  9.000E+00
      25     1     1     2     0     0 -6.783097631E+01 -5.898363524E+01  8.458949154E+01  1.756715476E+02  1.250000000E+02  0.00000E+00  9.000E+00
      25     1     1     2     0     0  2.385565436E+01  7.873834099E+01  3.354857848E+02  3.673479691E+02  1.250000000E+02  0.00000E+00  9.000E+00
      21     1     1     2   511   502  4.397532195E+01 -1.975470575E+01  1.151182056E+02  1.248049622E+02  1.348699152E-06  0.00000E+00  9.000E+00
#rwgt            1           1   4.3612011689586401E-002           1      174982           0
</event>
<event>
      5   9999  3.79277E-02  5.38594E+01 -1.00000E+00  1.37258E-01
      21    -1     0     0   502   501  0.000000000E+00  0.000000000E+00  5.598019148E+02  5.598019148E+02  0.000000000E+00  0.00000E+00  9.000E+00
      21    -1     0     0   501   512  0.000000000E+00  0.000000000E+00 -7.896988056E+02  7.896988056E+02  0.000000000E+00  0.00000E+00  9.000E+00
      25     1     1     2     0     0 -1.456403555E+02  1.268018315E+02  4.187797092E+02  4.777983492E+02  1.250000000E+02  0.00000E+00  9.000E+00
      25     1     1     2     0     0  1.986085234E+02 -1.365593519E+02 -5.681189699E+01  2.773921300E+02  1.250000000E+02  0.00000E+00  9.000E+00
      21     1     1     2   502   512 -5.296816789E+01  9.757520447E+00 -5.918647031E+02  5.943102412E+02  0.000000000E+00  0.00000E+00  9.000E+00
#rwgt            1           1  0.12236135144706453                1      175048           0
</event>
<event>
      5   9999  3.79277E-02  5.41949E+01 -1.00000E+00  1.37108E-01
      21    -1     0     0   502   501  0.000000000E+00  0.000000000E+00  5.959543225E+01  5.959543225E+01  0.000000000E+00  0.00000E+00  9.000E+00
       2    -1     0     0   501     0  0.000000000E+00  0.000000000E+00 -2.781455216E+03  2.781455216E+03  0.000000000E+00  0.00000E+00  9.000E+00
      25     1     1     2     0     0 -2.185131846E+02 -2.899526682E+01 -5.868528454E+02  6.392260942E+02  1.250000000E+02  0.00000E+00  9.000E+00
      25     1     1     2     0     0  1.644303163E+02  2.551214803E+01 -2.950227489E+02  3.610424088E+02  1.250000000E+02  0.00000E+00  9.000E+00
       2     1     1     2   502     0  5.408286835E+01  3.483118792E+00 -1.839984189E+03  1.840782145E+03  2.157918644E-05  0.00000E+00  9.000E+00
#rwgt            1           1   3.5197048142929198E-002           1      175151           0
</event>
<event>
      5   9999  3.79277E-02  1.03905E+02 -1.00000E+00  1.23084E-01
      21    -1     0     0   502   501  0.000000000E+00  0.000000000E+00  1.601428672E+02  1.601428672E+02  0.000000000E+00  0.00000E+00  9.000E+00
       2    -1     0     0   501     0  0.000000000E+00  0.000000000E+00 -1.910392490E+03  1.910392490E+03  0.000000000E+00  0.00000E+00  9.000E+00
      25     1     1     2     0     0  1.772886945E+02 -5.872009679E+00 -3.873030979E+01  2.204332066E+02  1.250000000E+02  0.00000E+00  9.000E+00
      25     1     1     2     0     0 -1.411100583E+02  1.032750844E+02 -1.032155419E+02  2.384454648E+02  1.250000000E+02  0.00000E+00  9.000E+00
       2     1     1     2   502     0 -3.617863620E+01 -9.740307477E+01 -1.608303771E+03  1.611656685E+03  3.051757812E-05  0.00000E+00  9.000E+00
#rwgt            1           1   5.8899798412670470E-002           1      175256           0
</event>
<event>
      5   9999  3.79277E-02  2.51501E+01 -1.00000E+00  1.58556E-01
      21    -1     0     0   502   511  0.000000000E+00  0.000000000E+00  1.444857890E+02  1.444857890E+02  0.000000000E+00  0.00000E+00  9.000E+00
      21    -1     0     0   501   502  0.000000000E+00  0.000000000E+00 -1.229371754E+03  1.229371754E+03  0.000000000E+00  0.00000E+00  9.000E+00
      25     1     1     2     0     0  2.160596146E+02 -2.647679474E+02 -4.587395934E+02  5.855346596E+02  1.250000000E+02  0.00000E+00  9.000E+00
      25     1     1     2     0     0 -2.164903342E+02  2.899143954E+02 -6.495539096E+02  7.539653195E+02  1.250000000E+02  0.00000E+00  9.000E+00
      21     1     1     2   501   511  4.307195897E-01 -2.514644802E+01  2.340753799E+01  3.435756397E+01  8.259061849E-07  0.00000E+00  9.000E+00
#rwgt            1           1   9.2068208858842954E-002           1      175324           0
</event>
<event>
      5   9999  3.79277E-02  8.40644E+00 -1.00000E+00  2.04896E-01
      21    -1     0     0   502   501  0.000000000E+00  0.000000000E+00  5.659819587E+02  5.659819587E+02  0.000000000E+00  0.00000E+00  9.000E+00
      21    -1     0     0   512   502  0.000000000E+00  0.000000000E+00 -9.948672148E+02  9.948672148E+02  0.000000000E+00  0.00000E+00  9.000E+00
      25     1     1     2     0     0 -3.634335314E+02 -1.470663745E+02 -1.002116892E+01  4.116283203E+02  1.250000000E+02  0.00000E+00  9.000E+00
      25     1     1     2     0     0  3.617360535E+02  1.388331012E+02  2.516701261E+02  4.786339465E+02  1.250000000E+02  0.00000E+00  9.000E+00
      21     1     1     2   512   501  1.697477853E+00  8.233273341E+00 -6.705342133E+02  6.705869067E+02  1.078959322E-05  0.00000E+00  9.000E+00
#rwgt            1           1   3.6767149297344044E-002           1      175625           0
</event>
<event>
      5   9999 -3.79277E-02  1.02822E+01 -1.00000E+00  1.94370E-01
       2    -1     0     0   502     0  0.000000000E+00  0.000000000E+00  1.106805498E+03  1.106805498E+03  0.000000000E+00  0.00000E+00  9.000E+00
      21    -1     0     0   501   502  0.000000000E+00  0.000000000E+00 -3.614518670E+01  3.614518670E+01  0.000000000E+00  0.00000E+00  9.000E+00
      25     1     1     2     0     0  6.163339646E+01 -8.208813609E+01  5.258900412E+02  5.502022111E+02  1.250000000E+02  0.00000E+00  9.000E+00
      25     1     1     2     0     0 -6.359417237E+01  9.218169007E+01  2.708285418E+02  3.186138443E+02  1.250000000E+02  0.00000E+00  9.000E+00
       2     1     1     2   501     0  1.960775910E+00 -1.009355398E+01  2.739417287E+02  2.741346297E+02  0.000000000E+00  0.00000E+00  9.000E+00
#rwgt            1           1  -9.6595354997945637E-002           1      176167           0
</event>
<event>
      5   9999  3.79277E-02  4.93216E+01 -1.00000E+00  1.39415E-01
      21    -1     0     0   511   501  0.000000000E+00  0.000000000E+00  2.694109585E+02  2.694109585E+02  0.000000000E+00  0.00000E+00  9.000E+00
      21    -1     0     0   501   502  0.000000000E+00  0.000000000E+00 -1.961583777E+02  1.961583777E+02  0.000000000E+00  0.00000E+00  9.000E+00
      25     1     1     2     0     0  9.680606742E+00  1.199204460E+00 -1.312406391E+02  1.815055305E+02  1.250000000E+02  0.00000E+00  9.000E+00
      25     1     1     2     0     0 -4.136144982E+01  3.660211645E+01  1.872505325E+02  2.318151125E+02  1.250000000E+02  0.00000E+00  9.000E+00
      21     1     1     2   511   502  3.168084308E+01 -3.780132091E+01  1.724268729E+01  5.224869324E+01  0.000000000E+00  0.00000E+00  9.000E+00
#rwgt            1           1   3.7604889137226240E-002           1      176432           0
</event>
<event>
      5   9999  3.79277E-02  3.13321E+01 -1.00000E+00  1.51741E-01
      21    -1     0     0   512   501  0.000000000E+00  0.000000000E+00  1.073918641E+03  1.073918641E+03  0.000000000E+00  0.00000E+00  9.000E+00
      21    -1     0     0   501   502  0.000000000E+00  0.000000000E+00 -1.060409398E+02  1.060409398E+02  0.000000000E+00  0.00000E+00  9.000E+00
      25     1     1     2     0     0 -9.403554195E+01  2.352585910E+02  3.509419386E+02  4.505269493E+02  1.250000000E+02  0.00000E+00  9.000E+00
      25     1     1     2     0     0  1.137212438E+02 -2.108828684E+02  2.732114366E+02  3.842832218E+02  1.250000000E+02  0.00000E+00  9.000E+00
      21     1     1     2   512   502 -1.968570181E+01 -2.437572259E+01  3.437243255E+02  3.451494091E+02  0.000000000E+00  0.00000E+00  9.000E+00
#rwgt            1           1   3.4534282794247792E-002           1      176558           0
</event>
<event>
      5   9999  3.79277E-02  7.92824E+01 -1.00000E+00  1.28539E-01
      21    -1     0     0   502   501  0.000000000E+00  0.000000000E+00  1.290117246E+02  1.290117246E+02  0.000000000E+00  0.00000E+00  9.000E+00
       3    -1     0     0   501     0  0.000000000E+00  0.000000000E+00 -1.004109610E+03  1.004109610E+03  0.000000000E+00  0.00000E+00  9.000E+00
      25     1     1     2     0     0 -3.659546492E+01 -5.165286569E+01  6.450659003E+01  1.542509214E+02  1.250000000E+02  0.00000E+00  9.000E+00
      25     1     1     2     0     0  9.931337268E+01  1.001519245E+02 -5.533680346E+02  5.845808205E+02  1.250000000E+02  0.00000E+00  9.000E+00
       3     1     1     2   502     0 -6.271790776E+01 -4.849905877E+01 -3.862364408E+02  3.942895927E+02  7.629394531E-06  0.00000E+00  9.000E+00
#rwgt            1           1   5.1051276194669773E-002           1      176685           0
</event>
<event>
      5   9999  3.79277E-02  1.80013E+01 -1.00000E+00  1.70232E-01
      21    -1     0     0   511   501  0.000000000E+00  0.000000000E+00  5.374466397E+02  5.374466397E+02  0.000000000E+00  0.00000E+00  9.000E+00
      21    -1     0     0   501   502  0.000000000E+00  0.000000000E+00 -2.713596936E+02  2.713596936E+02  0.000000000E+00  0.00000E+00  9.000E+00
      25     1     1     2     0     0 -1.421474509E+02  2.793493382E+02  2.844128323E+02  4.413135051E+02  1.250000000E+02  0.00000E+00  9.000E+00
      25     1     1     2     0     0  1.375480444E+02 -2.619454961E+02 -5.572825761E+01  3.259839661E+02  1.250000000E+02  0.00000E+00  9.000E+00
      21     1     1     2   511   502  4.599406533E+00 -1.740384211E+01  3.740237134E+01  4.150886222E+01  4.768371582E-07  0.00000E+00  9.000E+00
#rwgt            1           1   3.3670991046364084E-002           1      176795           0
</event>
<event>
      5   9999  3.79277E-02  1.30227E+01 -1.00000E+00  1.83369E-01
      21    -1     0     0   502   512  0.000000000E+00  0.000000000E+00  2.193545274E+03  2.193545274E+03  0.000000000E+00  0.00000E+00  9.000E+00
      21    -1     0     0   501   502  0.000000000E+00  0.000000000E+00 -3.656205375E+01  3.656205375E+01  0.000000000E+00  0.00000E+00  9.000E+00
      25     1     1     2     0     0 -1.091918674E+02  3.606307788E+01  5.114501007E+02  5.389152206E+02  1.250000000E+02  0.00000E+00  9.000E+00
      25     1     1     2     0     0  1.145255647E+02 -4.794345862E+01  3.175861239E+02  3.631812582E+02  1.250000000E+02  0.00000E+00  9.000E+00
      21     1     1     2   501   512 -5.333697264E+00  1.188038074E+01  1.327946996E+03  1.328010849E+03  2.157918644E-05  0.00000E+00  9.000E+00
#rwgt            1           1   4.9233863559937009E-002           1      177016           0
</event>
<event>
      5   9999  3.79277E-02  7.39548E+01 -1.00000E+00  1.30023E-01
      21    -1     0     0   511   501  0.000000000E+00  0.000000000E+00  5.641309912E+02  5.641309912E+02  0.000000000E+00  0.00000E+00  9.000E+00
      21    -1     0     0   501   502  0.000000000E+00  0.000000000E+00 -1.548000933E+02  1.548000933E+02  0.000000000E+00  0.00000E+00  9.000E+00
      25     1     1     2     0     0 -6.822103858E+01  1.253192214E+02  1.975227526E+02  2.738599188E+02  1.250000000E+02  0.00000E+00  9.000E+00
      25     1     1     2     0     0 -1.980633606E+00 -1.020589063E+02 -5.320808905E+01  1.699295266E+02  1.250000000E+02  0.00000E+00  9.000E+00
      21     1     1     2   511   502  7.020167218E+01 -2.326031509E+01  2.650162345E+02  2.751416391E+02  3.814697266E-06  0.00000E+00  9.000E+00
#rwgt            1           1   4.1087281655512155E-002           1      177202           0
</event>
<event>
      5   9999  3.79277E-02  2.35627E+01 -1.00000E+00  1.60701E-01
      21    -1     0     0   502   501  0.000000000E+00  0.000000000E+00  3.271590241E+02  3.271590241E+02  0.000000000E+00  0.00000E+00  9.000E+00
      21    -1     0     0   512   502  0.000000000E+00  0.000000000E+00 -5.913182030E+02  5.913182030E+02  0.000000000E+00  0.00000E+00  9.000E+00
      25     1     1     2     0     0 -1.954960084E+02 -8.157258210E+01 -1.818153957E+01  2.466340282E+02  1.250000000E+02  0.00000E+00  9.000E+00
      25     1     1     2     0     0  1.722957220E+02  7.745556755E+01  1.522436175E+02  2.729254474E+02  1.250000000E+02  0.00000E+00  9.000E+00
      21     1     1     2   512   501  2.320028650E+01  4.117014556E+00 -3.982212569E+02  3.989177516E+02  5.394796609E-06  0.00000E+00  9.000E+00
#rwgt            1           1   3.1887380928204659E-002           1      177329           0
</event>
<event>
      5   9999  3.79277E-02  1.10308E+02 -1.00000E+00  1.21941E-01
      -1    -1     0     0     0   501  0.000000000E+00  0.000000000E+00  1.044494785E+03  1.044494785E+03  0.000000000E+00  0.00000E+00  9.000E+00
      21    -1     0     0   501   502  0.000000000E+00  0.000000000E+00 -2.596489173E+02  2.596489173E+02  0.000000000E+00  0.00000E+00  9.000E+00
      25     1     1     2     0     0 -3.268511770E+02 -6.160852101E+01  4.193361386E+02  5.496317848E+02  1.250000000E+02  0.00000E+00  9.000E+00
      25     1     1     2     0     0  3.755926186E+02 -3.734711655E+01  2.704282391E+01  3.985234455E+02  1.250000000E+02  0.00000E+00  9.000E+00
      -1     1     1     2     0   502 -4.874144165E+01  9.895563756E+01  3.384669054E+02  3.559884723E+02  0.000000000E+00  0.00000E+00  9.000E+00
#rwgt            2           5   3.6807942636270237E-005           1      177609           0
</event>
<event>
      5   9999  3.79277E-02  4.87299E+02 -1.00000E+00  9.91705E-02
      21    -1     0     0   502   511  0.000000000E+00  0.000000000E+00  3.309338112E+02  3.309338112E+02  0.000000000E+00  0.00000E+00  9.000E+00
      21    -1     0     0   501   502  0.000000000E+00  0.000000000E+00 -1.348640782E+03  1.348640782E+03  0.000000000E+00  0.00000E+00  9.000E+00
      25     1     1     2     0     0 -1.828766769E+02  3.823807630E+02 -3.294258322E+02  5.511853642E+02  1.250000000E+02  0.00000E+00  9.000E+00
      25     1     1     2     0     0  3.807280141E+02  6.294488205E+01 -3.422133104E+02  5.307078563E+02  1.250000000E+02  0.00000E+00  9.000E+00
      21     1     1     2   501   511 -1.978513372E+02 -4.453256450E+02 -3.460678284E+02  5.976813729E+02  8.529922400E-06  0.00000E+00  9.000E+00
#rwgt            2          11   6.7933956383054047E-004           1      177703           0
</event>
<event>
      5   9999  3.79277E-02  1.13100E+01 -1.00000E+00  1.89773E-01
      21    -1     0     0   502   501  0.000000000E+00  0.000000000E+00  5.104484779E+02  5.104484779E+02  0.000000000E+00  0.00000E+00  9.000E+00
      21    -1     0     0   501   512  0.000000000E+00  0.000000000E+00 -1.462229785E+02  1.462229785E+02  0.000000000E+00  0.00000E+00  9.000E+00
      25     1     1     2     0     0  1.451849139E+02  1.364637587E+02  4.697679745E+01  2.398600345E+02  1.250000000E+02  0.00000E+00  9.000E+00
      25     1     1     2     0     0 -1.389328391E+02 -1.270388840E+02  3.298786178E+02  3.998576176E+02  1.250000000E+02  0.00000E+00  9.000E+00
      21     1     1     2   502   512 -6.252074803E+00 -9.424874732E+00 -1.262991587E+01  1.695380423E+01  0.000000000E+00  0.00000E+00  9.000E+00
#rwgt            1           1   3.3338133315414908E-002           1      177723           0
</event>
<event>
      5   9999  3.79277E-02  5.89636E+01 -1.00000E+00  1.35109E-01
      21    -1     0     0   502   501  0.000000000E+00  0.000000000E+00  7.651932798E+02  7.651932798E+02  0.000000000E+00  0.00000E+00  9.000E+00
      21    -1     0     0   511   502  0.000000000E+00  0.000000000E+00 -8.054354340E+01  8.054354340E+01  0.000000000E+00  0.00000E+00  9.000E+00
      25     1     1     2     0     0 -9.822976967E+01  3.710629863E+01  1.572671742E+02  2.266802354E+02  1.250000000E+02  0.00000E+00  9.000E+00
      25     1     1     2     0     0  4.172153431E+01 -2.026792156E+01  5.421236738E+02  5.582782037E+02  1.250000000E+02  0.00000E+00  9.000E+00
      21     1     1     2   511   501  5.650823536E+01 -1.683837707E+01 -1.474111153E+01  6.077838411E+01  9.078709013E-07  0.00000E+00  9.000E+00
#rwgt            1           1   3.7460490296374847E-002           1      178027           0
</event>
<event>
      5   9999 -5.54253E-02  1.59273E+01 -1.00000E+00  1.74964E-01
      21    -1     0     0   502   512  0.000000000E+00  0.000000000E+00  4.391094603E+01  4.391094603E+01  0.000000000E+00  0.00000E+00  9.000E+00
      21    -1     0     0   501   502  0.000000000E+00  0.000000000E+00 -1.460480625E+03  1.460480625E+03  0.000000000E+00  0.00000E+00  9.000E+00
      25     1     1     2     0     0 -1.183497702E+02  1.577742159E+02 -5.570623444E+02  6.040222072E+02  1.250000000E+02  0.00000E+00  9.000E+00
      25     1     1     2     0     0  1.342706967E+02 -1.573233589E+02 -8.448104904E+02  8.786973449E+02  1.250000000E+02  0.00000E+00  9.000E+00
      21     1     1     2   501   512 -1.592092653E+01 -4.508570672E-01 -1.469684419E+01  2.167201889E+01  4.460403188E-07  0.00000E+00  9.000E+00
#rwgt            1           1 -0.67708702782010166                1      178141           0
</event>
<event>
      5   9999 -3.79277E-02  3.40710E+01 -1.00000E+00  1.49298E-01
      21    -1     0     0   502   501  0.000000000E+00  0.000000000E+00  3.421972255E+02  3.421972255E+02  0.000000000E+00  0.00000E+00  9.000E+00
      21    -1     0     0   501   511  0.000000000E+00  0.000000000E+00 -3.223842001E+02  3.223842001E+02  0.000000000E+00  0.00000E+00  9.000E+00
      25     1     1     2     0     0 -4.558050166E+01 -2.601657413E+02  1.015862505E+02  3.093680031E+02  1.250000000E+02  0.00000E+00  9.000E+00
      25     1     1     2     0     0  2.171089341E+01  2.844777498E+02 -7.095364592E+01  3.194657617E+02  1.250000000E+02  0.00000E+00  9.000E+00
      21     1     1     2   502   511  2.386960825E+01 -2.431200848E+01 -1.081957921E+01  3.574766074E+01  6.194296387E-07  0.00000E+00  9.000E+00
#rwgt            1           1 -0.42640711048231594                1      178399           0
</event>
<event>
      5   9999 -3.79277E-02  4.01586E+01 -1.00000E+00  1.44734E-01
      21    -1     0     0   502   512  0.000000000E+00  0.000000000E+00  2.431607574E+02  2.431607574E+02  0.000000000E+00  0.00000E+00  9.000E+00
      21    -1     0     0   501   502  0.000000000E+00  0.000000000E+00 -2.444363700E+02  2.444363700E+02  0.000000000E+00  0.00000E+00  9.000E+00
      25     1     1     2     0     0  1.301828973E+02 -4.072077691E+01  8.113642823E+01  2.020244748E+02  1.250000000E+02  0.00000E+00  9.000E+00
      25     1     1     2     0     0 -1.085419215E+02  6.892038843E+00 -1.389369975E+02  2.162344519E+02  1.250000000E+02  0.00000E+00  9.000E+00
      21     1     1     2   501   512 -2.164097579E+01  3.382873807E+01  5.652495664E+01  6.933820070E+01  0.000000000E+00  0.00000E+00  9.000E+00
#rwgt            1           1 -0.10706776378701044                1      178563           0
</event>
<event>
      5   9999  3.79277E-02  1.65573E+01 -1.00000E+00  1.73435E-01
      21    -1     0     0   511   501  0.000000000E+00  0.000000000E+00  7.056599273E+02  7.056599273E+02  0.000000000E+00  0.00000E+00  9.000E+00
      21    -1     0     0   501   502  0.000000000E+00  0.000000000E+00 -8.932775463E+01  8.932775463E+01  0.000000000E+00  0.00000E+00  9.000E+00
      25     1     1     2     0     0 -1.439566161E+02 -1.174984731E+02  1.708001170E+02  2.816506319E+02  1.250000000E+02  0.00000E+00  9.000E+00
      25     1     1     2     0     0  1.520524817E+02  1.319415460E+02  4.004465605E+02  4.653074001E+02  1.250000000E+02  0.00000E+00  9.000E+00
      21     1     1     2   511   502 -8.095865656E+00 -1.444307296E+01  4.508549518E+01  4.802964994E+01  9.536743164E-07  0.00000E+00  9.000E+00
#rwgt            1           1   4.5259384216491706E-002           1      178817           0
</event>
<event>
      5   9999  3.79277E-02  5.31518E+01 -1.00000E+00  1.37578E-01
      21    -1     0     0   502   512  0.000000000E+00  0.000000000E+00  7.732759886E+01  7.732759886E+01  0.000000000E+00  0.00000E+00  9.000E+00
      21    -1     0     0   501   502  0.000000000E+00  0.000000000E+00 -1.046955263E+03  1.046955263E+03  0.000000000E+00  0.00000E+00  9.000E+00
      25     1     1     2     0     0 -9.430411920E+01  1.169258950E+02 -5.225790726E+02  5.579236677E+02  1.250000000E+02  0.00000E+00  9.000E+00
      25     1     1     2     0     0  9.470854907E+01 -6.377562340E+01 -4.764377820E+02  5.056233772E+02  1.250000000E+02  0.00000E+00  9.000E+00
      21     1     1     2   501   512 -4.044298752E-01 -5.315027158E+01  2.938919058E+01  6.073581691E+01  1.877309769E-06  0.00000E+00  9.000E+00
#rwgt            1           1   4.0816672320910970E-002           1      179092           0
</event>
<event>
      5   9999  3.79277E-02  1.85807E+01 -1.00000E+00  1.69051E-01
      21    -1     0     0   502   501  0.000000000E+00  0.000000000E+00  1.013338251E+02  1.013338251E+02  0.000000000E+00  0.00000E+00  9.000E+00
      21    -1     0     0   511   502  0.000000000E+00  0.000000000E+00 -2.815536827E+02  2.815536827E+02  0.000000000E+00  0.00000E+00  9.000E+00
      25     1     1     2     0     0 -8.549718094E+01  3.099769277E+00 -6.718522145E+01  1.657052519E+02  1.250000000E+02  0.00000E+00  9.000E+00
      25     1     1     2     0     0  9.536801112E+01  1.264215162E+01 -7.458547070E+01  1.744788640E+02  1.250000000E+02  0.00000E+00  9.000E+00
      21     1     1     2   511   501 -9.870830182E+00 -1.574192090E+01 -3.844916538E+01  4.270339191E+01  4.768371582E-07  0.00000E+00  9.000E+00
#rwgt            1           1   3.6133730494766009E-002           1      179128           0
</event>
<event>
      5   9999  3.79277E-02  1.47221E+01 -1.00000E+00  1.78152E-01
      21    -1     0     0   502   501  0.000000000E+00  0.000000000E+00  5.337310299E+02  5.337310299E+02  0.000000000E+00  0.00000E+00  9.000E+00
      21    -1     0     0   512   502  0.000000000E+00  0.000000000E+00 -1.908589678E+02  1.908589678E+02  0.000000000E+00  0.00000E+00  9.000E+00
      25     1     1     2     0     0 -1.788132224E+02  3.885152033E+01  3.032747785E+02  3.756117682E+02  1.250000000E+02  0.00000E+00  9.000E+00
      25     1     1     2     0     0  1.927372247E+02 -4.363295799E+01  1.230543767E+02  2.642325726E+02  1.250000000E+02  0.00000E+00  9.000E+00
      21     1     1     2   512   501 -1.392400228E+01  4.781437663E+00 -8.345709301E+01  8.474565687E+01  9.536743164E-07  0.00000E+00  9.000E+00
#rwgt            1           1   4.7595315540356668E-002           1      179315           0
</event>
<event>
      5   9999  3.79277E-02  1.83824E+02 -1.00000E+00  1.12998E-01
      21    -1     0     0   502   501  0.000000000E+00  0.000000000E+00  1.800463777E+02  1.800463777E+02  0.000000000E+00  0.00000E+00  9.000E+00
      21    -1     0     0   501   511  0.000000000E+00  0.000000000E+00 -2.774749324E+03  2.774749324E+03  0.000000000E+00  0.00000E+00  9.000E+00
      25     1     1     2     0     0  9.865261802E+01  1.571142236E+02 -7.934146951E+01  2.373547705E+02  1.250000000E+02  0.00000E+00  9.000E+00
      25     1     1     2     0     0 -1.897395401E+02  2.555819146E+00 -3.456364197E+01  2.298418383E+02  1.250000000E+02  0.00000E+00  9.000E+00
      21     1     1     2   502   511  9.108692204E+01 -1.596700427E+02 -2.480797835E+03  2.487599093E+03  3.051757812E-05  0.00000E+00  9.000E+00
#rwgt            1           1   3.7815037949849348E-002           1      179506           0
</event>
<event>
      5   9999 -3.79277E-02  6.30860E+01 -1.00000E+00  1.33550E-01
      21    -1     0     0   512   501  0.000000000E+00  0.000000000E+00  3.632164992E+02  3.632164992E+02  0.000000000E+00  0.00000E+00  9.000E+00
      21    -1     0     0   501   502  0.000000000E+00  0.000000000E+00 -2.394802930E+02  2.394802930E+02  0.000000000E+00  0.00000E+00  9.000E+00
      25     1     1     2     0     0 -1.473975552E+02  2.662345244E+01 -4.701403051E+01  2.006742798E+02  1.250000000E+02  0.00000E+00  9.000E+00
      25     1     1     2     0     0  1.368664558E+02 -8.882420860E+01 -1.476834471E+01  2.060710333E+02  1.250000000E+02  0.00000E+00  9.000E+00
      21     1     1     2   512   502  1.053109935E+01  6.220075616E+01  1.855185815E+02  1.959514792E+02  2.697398305E-06  0.00000E+00  9.000E+00
#rwgt            1           1 -0.31693215278952130                1      179643           0
</event>
<event>
      5   9999 -3.79277E-02  6.05983E+01 -1.00000E+00  1.34474E-01
      21    -1     0     0   502   501  0.000000000E+00  0.000000000E+00  2.552673335E+02  2.552673335E+02  0.000000000E+00  0.00000E+00  9.000E+00
      21    -1     0     0   501   511  0.000000000E+00  0.000000000E+00 -1.425362415E+03  1.425362415E+03  0.000000000E+00  0.00000E+00  9.000E+00
      25     1     1     2     0     0  1.091486573E+02 -1.418428987E+01 -5.863379938E+00  1.666553410E+02  1.250000000E+02  0.00000E+00  9.000E+00
      25     1     1     2     0     0 -1.555209894E+02  5.319409393E+01  1.129403935E+02  2.353655078E+02  1.250000000E+02  0.00000E+00  9.000E+00
      21     1     1     2   502   511  4.637233205E+01 -3.900980405E+01 -1.277172095E+03  1.278608900E+03  3.051757812E-05  0.00000E+00  9.000E+00
#rwgt            1           1  -7.9238909184385350E-002           1      179785           0
</event>
<event>
      5   9999  3.79277E-02  2.31450E+01 -1.00000E+00  1.61300E-01
      21    -1     0     0   502   501  0.000000000E+00  0.000000000E+00  1.592792838E+02  1.592792838E+02  0.000000000E+00  0.00000E+00  9.000E+00
      21    -1     0     0   501   512  0.000000000E+00  0.000000000E+00 -5.056748387E+02  5.056748387E+02  0.000000000E+00  0.00000E+00  9.000E+00
      25     1     1     2     0     0  1.279331844E+02  4.266565802E+01  6.065278302E+01  1.936259748E+02  1.250000000E+02  0.00000E+00  9.000E+00
      25     1     1     2     0     0 -1.214121162E+02 -2.045826868E+01 -2.132478513E+02  2.761504822E+02  1.250000000E+02  0.00000E+00  9.000E+00
      21     1     1     2   502   512 -6.521068183E+00 -2.220738935E+01 -1.938004866E+02  1.951776654E+02  2.697398305E-06  0.00000E+00  9.000E+00
#rwgt            1           1  0.14264951085766867                1      179855           0
</event>
<event>
      5   9999  3.79277E-02  1.69934E+01 -1.00000E+00  1.72426E-01
      21    -1     0     0   502   501  0.000000000E+00  0.000000000E+00  3.988373762E+01  3.988373762E+01  0.000000000E+00  0.00000E+00  9.000E+00
       1    -1     0     0   501     0  0.000000000E+00  0.000000000E+00 -2.392032921E+03  2.392032921E+03  0.000000000E+00  0.00000E+00  9.000E+00
      25     1     1     2     0     0  4.317170843E+01  7.865843277E+01 -1.555836322E+02  2.188200450E+02  1.250000000E+02  0.00000E+00  9.000E+00
      25     1     1     2     0     0 -3.371607162E+01 -9.277811062E+01 -7.638208993E+02  7.802511887E+02  1.250000000E+02  0.00000E+00  9.000E+00
       1     1     1     2   502     0 -9.455636811E+00  1.411967785E+01 -1.432744652E+03  1.432845425E+03  2.642899792E-05  0.00000E+00  9.000E+00
#rwgt            1           1   4.4808848371010783E-002           1      180090           0
</event>
<event>
      5   9999  3.79277E-02  2.70293E+01 -1.00000E+00  1.56253E-01
      21    -1     0     0   502   501  0.000000000E+00  0.000000000E+00  1.187196393E+02  1.187196393E+02  0.000000000E+00  0.00000E+00  9.000E+00
       2    -1     0     0   501     0  0.000000000E+00  0.000000000E+00 -1.786836370E+03  1.786836370E+03  0.000000000E+00  0.00000E+00  9.000E+00
      25     1     1     2     0     0  1.194961572E+02 -2.835371191E+01 -4.575890291E+01  1.811136156E+02  1.250000000E+02  0.00000E+00  9.000E+00
      25     1     1     2     0     0 -1.305630439E+02  5.301359047E+01 -1.232833628E+02  2.251242696E+02  1.250000000E+02  0.00000E+00  9.000E+00
       2     1     1     2   502     0  1.106688670E+01 -2.465987856E+01 -1.499074465E+03  1.499318124E+03  2.157918644E-05  0.00000E+00  9.000E+00
#rwgt            1           1   3.4309016655705314E-002           1      180398           0
</event>
<event>
      5   9999  3.79277E-02  1.61510E+02 -1.00000E+00  1.15135E-01
      21    -1     0     0   502   511  0.000000000E+00  0.000000000E+00  6.856932890E+02  6.856932890E+02  0.000000000E+00  0.00000E+00  9.000E+00
      21    -1     0     0   501   502  0.000000000E+00  0.000000000E+00 -5.061320231E+02  5.061320231E+02  0.000000000E+00  0.00000E+00  9.000E+00
      25     1     1     2     0     0  1.343192155E+02 -1.216064173E+02  9.673779095E+01  2.404432835E+02  1.250000000E+02  0.00000E+00  9.000E+00
      25     1     1     2     0     0  2.715891889E+01  1.183934382E+02 -4.031812015E+02  4.392433202E+02  1.250000000E+02  0.00000E+00  9.000E+00
      21     1     1     2   501   511 -1.614781344E+02  3.212979057E+00  4.860046765E+02  5.121387084E+02  0.000000000E+00  0.00000E+00  9.000E+00
#rwgt            1           1   4.2398762283284340E-002           1      180534           0
</event>
<event>
      5   9999  3.79277E-02  2.17545E+01 -1.00000E+00  1.63411E-01
       1    -1     0     0   502     0  0.000000000E+00  0.000000000E+00  1.665544778E+03  1.665544778E+03  0.000000000E+00  0.00000E+00  9.000E+00
      21    -1     0     0   501   502  0.000000000E+00  0.000000000E+00 -7.203919988E+01  7.203919988E+01  0.000000000E+00  0.00000E+00  9.000E+00
      25     1     1     2     0     0 -6.230538896E+00  1.517271001E+02  2.359180850E+02  3.071518767E+02  1.250000000E+02  0.00000E+00  9.000E+00
      25     1     1     2     0     0 -1.494814309E+01 -1.566993515E+02  2.418175191E+02  3.144500696E+02  1.250000000E+02  0.00000E+00  9.000E+00
       1     1     1     2   501     0  2.117868199E+01  4.972251433E+00  1.115769975E+03  1.115982032E+03  0.000000000E+00  0.00000E+00  9.000E+00
#rwgt            1           1   2.3360934022095110E-002           1      180694           0
</event>
<event>
      5   9999  3.79277E-02  3.56129E+01 -1.00000E+00  1.48040E-01
      21    -1     0     0   502   501  0.000000000E+00  0.000000000E+00  2.226316119E+01  2.226316119E+01  0.000000000E+00  0.00000E+00  9.000E+00
      21    -1     0     0   501   511  0.000000000E+00  0.000000000E+00 -3.022406200E+03  3.022406200E+03  0.000000000E+00  0.00000E+00  9.000E+00
      25     1     1     2     0     0  1.118346011E+01 -4.638104038E+01 -1.854618464E+03  1.859438334E+03  1.250000000E+02  0.00000E+00  9.000E+00
      25     1     1     2     0     0 -4.313700809E+01  3.065677811E+01 -2.165684413E+02  2.555925063E+02  1.250000000E+02  0.00000E+00  9.000E+00
      21     1     1     2   502   511  3.195354798E+01  1.572426227E+01 -9.289561333E+02  9.296385207E+02  1.078959322E-05  0.00000E+00  9.000E+00
#rwgt            1           1  0.11268202657617055                1      180900           0
</event>
<event>
      5   9999  3.79277E-02  1.56538E+02 -1.00000E+00  1.15664E-01
      21    -1     0     0   502   501  0.000000000E+00  0.000000000E+00  1.061999950E+02  1.061999950E+02  0.000000000E+00  0.00000E+00  9.000E+00
      21    -1     0     0   501   512  0.000000000E+00  0.000000000E+00 -7.701770020E+02  7.701770020E+02  0.000000000E+00  0.00000E+00  9.000E+00
      25     1     1     2     0     0 -6.378244008E+01  1.959505327E+02 -1.855064854E+02  3.041421823E+02  1.250000000E+02  0.00000E+00  9.000E+00
      25     1     1     2     0     0  7.708460978E+01 -3.997852225E+01 -2.875316056E+02  3.253302069E+02  1.250000000E+02  0.00000E+00  9.000E+00
      21     1     1     2   502   512 -1.330216970E+01 -1.559720104E+02 -1.909389159E+02  2.469046078E+02  3.814697266E-06  0.00000E+00  9.000E+00
#rwgt            2          11   2.0782021942169237E-003           1      181134           0
</event>
<event>
      5   9999  3.79277E-02  2.60405E+01 -1.00000E+00  1.57436E-01
      21    -1     0     0   502   501  0.000000000E+00  0.000000000E+00  1.174985226E+03  1.174985226E+03  0.000000000E+00  0.00000E+00  9.000E+00
      21    -1     0     0   501   511  0.000000000E+00  0.000000000E+00 -1.684512636E+02  1.684512636E+02  0.000000000E+00  0.00000E+00  9.000E+00
      25     1     1     2     0     0 -1.095660870E+02 -9.801981918E+01  9.727193394E+02  9.916756151E+02  1.250000000E+02  0.00000E+00  9.000E+00
      25     1     1     2     0     0  1.167402497E+02  1.230525870E+02  1.330313165E+02  2.491837800E+02  1.250000000E+02  0.00000E+00  9.000E+00
      21     1     1     2   502   511 -7.174162705E+00 -2.503276778E+01 -9.921669346E+01  1.025770946E+02  2.336015456E-06  0.00000E+00  9.000E+00
#rwgt            1           1   2.8656811471689556E-002           1      181169           0
</event>
<event>
      5   9999  3.79277E-02  1.71091E+02 -1.00000E+00  1.14173E-01
       4    -1     0     0   502     0  0.000000000E+00  0.000000000E+00  2.403904622E+02  2.403904622E+02  0.000000000E+00  0.00000E+00  9.000E+00
      21    -1     0     0   501   502  0.000000000E+00  0.000000000E+00 -5.409839707E+02  5.409839707E+02  0.000000000E+00  0.00000E+00  9.000E+00
      25     1     1     2     0     0  2.169802811E+01  1.979801538E+02 -2.413606137E+02  3.369671966E+02  1.250000000E+02  0.00000E+00  9.000E+00
      25     1     1     2     0     0  1.444184006E+02 -1.570251885E+02 -1.029207428E+02  2.678269284E+02  1.250000000E+02  0.00000E+00  9.000E+00
       4     1     1     2   501     0 -1.661164288E+02 -4.095496534E+01  4.368784794E+01  1.765803079E+02  3.337860107E-06  0.00000E+00  9.000E+00
#rwgt            1           1   2.9171410884387457E-002           1      181317           0
</event>
<event>
      5   9999  3.79277E-02  1.17084E+02 -1.00000E+00  1.20823E-01
      21    -1     0     0   502   501  0.000000000E+00  0.000000000E+00  5.922088088E+02  5.922088088E+02  0.000000000E+00  0.00000E+00  9.000E+00
      21    -1     0     0   501   511  0.000000000E+00  0.000000000E+00 -3.881261632E+02  3.881261632E+02  0.000000000E+00  0.00000E+00  9.000E+00
      25     1     1     2     0     0  7.063756315E+01  1.416837804E+01  2.010188207E+02  2.474347885E+02  1.250000000E+02  0.00000E+00  9.000E+00
      25     1     1     2     0     0 -1.634118948E+02  5.725773959E+01  3.258155803E+02  3.895673093E+02  1.250000000E+02  0.00000E+00  9.000E+00
      21     1     1     2   502   511  9.277433162E+01 -7.142611763E+01 -3.227517554E+02  3.433328742E+02  5.394796609E-06  0.00000E+00  9.000E+00
#rwgt            1           1   1.8953431981133355E-002           1      181381           0
</event>
<event>
      5   9999  3.79277E-02  5.95643E+01 -1.00000E+00  1.34873E-01
      21    -1     0     0   502   512  0.000000000E+00  0.000000000E+00  1.266407131E+02  1.266407131E+02  0.000000000E+00  0.00000E+00  9.000E+00
      21    -1     0     0   501   502  0.000000000E+00  0.000000000E+00 -5.400292735E+02  5.400292735E+02  0.000000000E+00  0.00000E+00  9.000E+00
      25     1     1     2     0     0  1.337576806E+02  6.512867027E+01 -3.703487476E+02  4.182296686E+02  1.250000000E+02  0.00000E+00  9.000E+00
      25     1     1     2     0     0 -1.324101605E+02 -5.579625029E+00 -1.555374005E+01  1.828400986E+02  1.250000000E+02  0.00000E+00  9.000E+00
      21     1     1     2   501   512 -1.347520080E+00 -5.954904524E+01 -2.748607278E+01  6.560021949E+01  4.768371582E-07  0.00000E+00  9.000E+00
#rwgt            1           1   6.3878758176634076E-002           1      181503           0
</event>
<event>
      5   9999  3.79277E-02  9.67040E+01 -1.00000E+00  1.24486E-01
      21    -1     0     0   502   501  0.000000000E+00  0.000000000E+00  3.065097072E+02  3.065097072E+02  0.000000000E+00  0.00000E+00  9.000E+00
      21    -1     0     0   511   502  0.000000000E+00  0.000000000E+00 -3.919471122E+02  3.919471122E+02  0.000000000E+00  0.00000E+00  9.000E+00
      25     1     1     2     0     0  4.035100425E+01 -2.165754647E+02  1.710592669E+02  3.056458870E+02  1.250000000E+02  0.00000E+00  9.000E+00
      25     1     1     2     0     0  1.216664123E+01  1.353747722E+02 -1.031440556E+02  2.115137166E+02  1.250000000E+02  0.00000E+00  9.000E+00
      21     1     1     2   511   501 -5.251764549E+01  8.120069246E+01 -1.533526163E+02  1.812972158E+02  3.303624740E-06  0.00000E+00  9.000E+00
#rwgt            1           1   6.9677827407825785E-002           1      181619           0
</event>
<event>
      5   9999  3.79277E-02  1.40165E+02 -1.00000E+00  1.17573E-01
       2    -1     0     0   502     0  0.000000000E+00  0.000000000E+00  2.867164615E+03  2.867164615E+03  0.000000000E+00  0.00000E+00  9.000E+00
      21    -1     0     0   501   502  0.000000000E+00  0.000000000E+00 -6.346622156E+02  6.346622156E+02  0.000000000E+00  0.00000E+00  9.000E+00
      25     1     1     2     0     0 -1.156691301E+02 -1.658634512E+02 -4.145804720E+02  4.779037559E+02  1.250000000E+02  0.00000E+00  9.000E+00
      25     1     1     2     0     0  6.322758942E+01  3.587871199E+01 -1.586667891E+02  2.146745444E+02  1.250000000E+02  0.00000E+00  9.000E+00
       2     1     1     2   501     0  5.244154073E+01  1.299847392E+02  2.805749661E+03  2.809248531E+03  6.103515625E-05  0.00000E+00  9.000E+00
#rwgt            1           1   4.2321242138953066E-002           1      181717           0
</event>
<event>
      5   9999  3.79277E-02  3.78172E+01 -1.00000E+00  1.46368E-01
      21    -1     0     0   502   501  0.000000000E+00  0.000000000E+00  1.069957577E+02  1.069957577E+02  0.000000000E+00  0.00000E+00  9.000E+00
      21    -1     0     0   511   502  0.000000000E+00  0.000000000E+00 -9.911401079E+02  9.911401079E+02  0.000000000E+00  0.00000E+00  9.000E+00
      25     1     1     2     0     0 -1.463413178E+02 -9.161811735E+01 -2.903757615E+02  3.602120814E+02  1.250000000E+02  0.00000E+00  9.000E+00
      25     1     1     2     0     0  1.160286517E+02  1.142296118E+02 -7.617274084E+01  2.189482557E+02  1.250000000E+02  0.00000E+00  9.000E+00
      21     1     1     2   511   501  3.031266606E+01 -2.261149444E+01 -5.175958479E+02  5.189755285E+02  7.629394531E-06  0.00000E+00  9.000E+00
#rwgt            1           1   4.3182088212047207E-002           1      181753           0
</event>
<event>
      5   9999  3.79277E-02  1.77581E+02 -1.00000E+00  1.13561E-01
      21    -1     0     0   502   501  0.000000000E+00  0.000000000E+00  6.072200730E+02  6.072200730E+02  0.000000000E+00  0.00000E+00  9.000E+00
      21    -1     0     0   501   512  0.000000000E+00  0.000000000E+00 -3.479892335E+02  3.479892335E+02  0.000000000E+00  0.00000E+00  9.000E+00
      25     1     1     2     0     0  2.560719248E+00 -3.012856957E+02  3.018111252E+02  4.444036262E+02  1.250000000E+02  0.00000E+00  9.000E+00
      25     1     1     2     0     0  1.682878846E+02  2.528519429E+02 -5.398892616E+01  3.328584103E+02  1.250000000E+02  0.00000E+00  9.000E+00
      21     1     1     2   502   512 -1.708486038E+02  4.843375275E+01  1.140864043E+01  1.779472700E+02  1.839071348E-06  0.00000E+00  9.000E+00
#rwgt            1           1   3.2950715342288869E-002           1      182064           0
</event>
<event>
      5   9999  3.79277E-02  1.72290E+02 -1.00000E+00  1.14058E-01
      21    -1     0     0   502   501  0.000000000E+00  0.000000000E+00  1.289116430E+02  1.289116430E+02  0.000000000E+00  0.00000E+00  9.000E+00
      21    -1     0     0   501   511  0.000000000E+00  0.000000000E+00 -1.030175717E+03  1.030175717E+03  0.000000000E+00  0.00000E+00  9.000E+00
      25     1     1     2     0     0 -2.783824434E+02 -3.951384343E+00 -4.568742082E+02  5.494282850E+02  1.250000000E+02  0.00000E+00  9.000E+00
      25     1     1     2     0     0  1.466418006E+02  1.149842559E+02 -1.544973629E+02  2.724328026E+02  1.250000000E+02  0.00000E+00  9.000E+00
      21     1     1     2   502   511  1.317406428E+02 -1.110328716E+02 -2.898925027E+02  3.372262722E+02  0.000000000E+00  0.00000E+00  9.000E+00
#rwgt            1           1   4.2104871078928095E-002           1      182136           0
</event>
<event>
      5   9999  3.79277E-02  1.23300E+02 -1.00000E+00  1.19870E-01
      21    -1     0     0   502   501  0.000000000E+00  0.000000000E+00  3.611593520E+02  3.611593520E+02  0.000000000E+00  0.00000E+00  9.000E+00
      21    -1     0     0   501   512  0.000000000E+00  0.000000000E+00 -1.935018184E+02  1.935018184E+02  0.000000000E+00  0.00000E+00  9.000E+00
      25     1     1     2     0     0  6.656350880E+01 -3.957717838E+01  1.835935234E+02  2.352203979E+02  1.250000000E+02  0.00000E+00  9.000E+00
      25     1     1     2     0     0 -5.011819528E+00  1.464147082E+02  1.221574037E+01  1.929678974E+02  1.250000000E+02  0.00000E+00  9.000E+00
      21     1     1     2   502   512 -6.155168927E+01 -1.068375298E+02 -2.815173027E+01  1.264728751E+02  1.966049969E-06  0.00000E+00  9.000E+00
#rwgt            1           1   4.3490326917113499E-002           1      182207           0
</event>
<event>
      5   9999  3.79277E-02  4.63601E+01 -1.00000E+00  1.40975E-01
      21    -1     0     0   502   501  0.000000000E+00  0.000000000E+00  5.939619206E+02  5.939619206E+02  0.000000000E+00  0.00000E+00  9.000E+00
      21    -1     0     0   511   502  0.000000000E+00  0.000000000E+00 -1.185230905E+02  1.185230905E+02  0.000000000E+00  0.00000E+00  9.000E+00
      25     1     1     2     0     0 -7.516749599E+01  1.753570040E+01 -1.625024551E+01  1.478063724E+02  1.250000000E+02  0.00000E+00  9.000E+00
      25     1     1     2     0     0  1.088437280E+02  1.432596652E+01  4.908867179E+02  5.183116439E+02  1.250000000E+02  0.00000E+00  9.000E+00
      21     1     1     2   511   501 -3.367623205E+01 -3.186166692E+01  8.023578009E-01  4.636699475E+01  3.729757968E-07  0.00000E+00  9.000E+00
#rwgt            1           1   4.3821680615293783E-002           1      182270           0
</event>
<event>
      5   9999  3.79277E-02  5.21845E+01 -1.00000E+00  1.38024E-01
      21    -1     0     0   502   501  0.000000000E+00  0.000000000E+00  1.685511398E+03  1.685511398E+03  0.000000000E+00  0.00000E+00  9.000E+00
      21    -1     0     0   512   502  0.000000000E+00  0.000000000E+00 -3.967747470E+01  3.967747470E+01  0.000000000E+00  0.00000E+00  9.000E+00
      25     1     1     2     0     0 -1.045376130E+02 -8.714384556E+01  4.833656170E+02  5.174837989E+02  1.250000000E+02  0.00000E+00  9.000E+00
      25     1     1     2     0     0  1.197530283E+02  3.722678220E+01  1.135008673E+03  1.148736832E+03  1.250000000E+02  0.00000E+00  9.000E+00
      21     1     1     2   512   501 -1.521541529E+01  4.991706336E+01  2.745963285E+01  5.896824157E+01  5.840038640E-07  0.00000E+00  9.000E+00
#rwgt            1           1   4.8942834601558363E-002           1      182370           0
</event>
<event>
      5   9999  3.79277E-02  8.10576E+00 -1.00000E+00  2.06928E-01
      21    -1     0     0   502   501  0.000000000E+00  0.000000000E+00  5.075744753E+01  5.075744753E+01  0.000000000E+00  0.00000E+00  9.000E+00
       1    -1     0     0   501     0  0.000000000E+00  0.000000000E+00 -1.392037615E+03  1.392037615E+03  0.000000000E+00  0.00000E+00  9.000E+00
      25     1     1     2     0     0 -1.306826126E+02 -4.789387338E+01 -2.580346417E+02  3.187140484E+02  1.250000000E+02  0.00000E+00  9.000E+00
      25     1     1     2     0     0  1.227670041E+02  4.963930677E+01 -3.861040530E+02  4.268924195E+02  1.250000000E+02  0.00000E+00  9.000E+00
       1     1     1     2   502     0  7.915608494E+00 -1.745433396E+00 -6.971414725E+02  6.971885943E+02  7.629394531E-06  0.00000E+00  9.000E+00
#rwgt            1           1   2.7167214306054014E-002           1      182731           0
</event>
<event>
      5   9999  3.79277E-02  6.21377E+01 -1.00000E+00  1.33896E-01
      21    -1     0     0   502   501  0.000000000E+00  0.000000000E+00  7.166719053E+02  7.166719053E+02  0.000000000E+00  0.00000E+00  9.000E+00
      21    -1     0     0   511   502  0.000000000E+00  0.000000000E+00 -2.178589343E+02  2.178589343E+02  0.000000000E+00  0.00000E+00  9.000E+00
      25     1     1     2     0     0  2.522837945E+02 -1.934449183E+02  2.594382120E+02  4.289536516E+02  1.250000000E+02  0.00000E+00  9.000E+00
      25     1     1     2     0     0 -2.513122606E+02  1.313148133E+02  2.907693583E+02  4.249391159E+02  1.250000000E+02  0.00000E+00  9.000E+00
      21     1     1     2   511   501 -9.715339070E-01  6.213010501E+01 -5.139459925E+01  8.063807202E+01  1.168007728E-06  0.00000E+00  9.000E+00
#rwgt            1           1   3.4520891380111822E-002           1      183091           0
</event>
<event>
      5   9999  3.79277E-02  5.32754E+01 -1.00000E+00  1.37521E-01
      21    -1     0     0   502   512  0.000000000E+00  0.000000000E+00  1.850972479E+02  1.850972479E+02  0.000000000E+00  0.00000E+00  9.000E+00
      21    -1     0     0   501   502  0.000000000E+00  0.000000000E+00 -3.067574643E+02  3.067574643E+02  0.000000000E+00  0.00000E+00  9.000E+00
      25     1     1     2     0     0  2.130912207E+01  1.126382713E+02 -1.833728384E+02  2.497840201E+02  1.250000000E+02  0.00000E+00  9.000E+00
      25     1     1     2     0     0 -7.253912681E+01 -9.801793862E+01  7.003889276E+01  1.881485788E+02  1.250000000E+02  0.00000E+00  9.000E+00
      21     1     1     2   501   512  5.123000474E+01 -1.462033268E+01 -8.326270846E+00  5.392211327E+01  9.310543151E-07  0.00000E+00  9.000E+00
#rwgt            1           1   3.3385005759392253E-002           1      183171           0
</event>
<event>
      5   9999  3.79277E-02  6.09937E+01 -1.00000E+00  1.34323E-01
      -3    -1     0     0     0   501  0.000000000E+00  0.000000000E+00  1.942816742E+03  1.942816742E+03  0.000000000E+00  0.00000E+00  9.000E+00
      21    -1     0     0   501   502  0.000000000E+00  0.000000000E+00 -7.791690771E+02  7.791690771E+02  0.000000000E+00  0.00000E+00  9.000E+00
      25     1     1     2     0     0  9.583197720E+01  4.285105894E+00 -1.615153420E+02  2.256420521E+02  1.250000000E+02  0.00000E+00  9.000E+00
      25     1     1     2     0     0 -7.218834773E+01 -6.050969449E+01 -5.746337051E+02  5.955681957E+02  1.250000000E+02  0.00000E+00  9.000E+00
      -3     1     1     2     0   502 -2.364362947E+01  5.622458860E+01  1.899796712E+03  1.900775572E+03  0.000000000E+00  0.00000E+00  9.000E+00
#rwgt            1           1   3.6180308847671837E-002           1      183277           0
</event>
<event>
      5   9999  3.79277E-02  2.88918E+01 -1.00000E+00  1.54184E-01
      21    -1     0     0   502   501  0.000000000E+00  0.000000000E+00  2.170390463E+02  2.170390463E+02  0.000000000E+00  0.00000E+00  9.000E+00
      21    -1     0     0   501   511  0.000000000E+00  0.000000000E+00 -6.342567214E+02  6.342567214E+02  0.000000000E+00  0.00000E+00  9.000E+00
      25     1     1     2     0     0 -9.421820691E+01 -2.676351830E+02 -4.014920813E+02  5.072736471E+02  1.250000000E+02  0.00000E+00  9.000E+00
      25     1     1     2     0     0  6.533101823E+01  2.681515160E+02  1.302548059E+01  3.032623297E+02  1.250000000E+02  0.00000E+00  9.000E+00
      21     1     1     2   502   511  2.888718867E+01 -5.163329949E-01 -2.875107439E+01  4.075979082E+01  6.743495762E-07  0.00000E+00  9.000E+00
#rwgt            1           1   2.5362061189598318E-002           1      183415           0
</event>
<event>
      5   9999  3.79277E-02  3.10425E+02 -1.00000E+00  1.05112E-01
      21    -1     0     0   502   501  0.000000000E+00  0.000000000E+00  3.528030514E+02  3.528030514E+02  0.000000000E+00  0.00000E+00  9.000E+00
      21    -1     0     0   512   502  0.000000000E+00  0.000000000E+00 -3.993668303E+02  3.993668303E+02  0.000000000E+00  0.00000E+00  9.000E+00
      25     1     1     2     0     0 -6.406676879E+00 -2.612143629E+02 -7.722155503E+00  2.897561399E+02  1.250000000E+02  0.00000E+00  9.000E+00
      25     1     1     2     0     0 -6.949353158E+01 -3.978912443E+01  7.033199894E+00  1.486169279E+02  1.250000000E+02  0.00000E+00  9.000E+00
      21     1     1     2   512   501  7.590020846E+01  3.010034873E+02 -4.587482324E+01  3.137968140E+02  4.046097457E-06  0.00000E+00  9.000E+00
#rwgt            1           1   3.4418745509028639E-002           1      183713           0
</event>
<event>
      5   9999  3.79277E-02  5.23724E+01 -1.00000E+00  1.37936E-01
      21    -1     0     0   502   501  0.000000000E+00  0.000000000E+00  3.258037202E+02  3.258037202E+02  0.000000000E+00  0.00000E+00  9.000E+00
      21    -1     0     0   511   502  0.000000000E+00  0.000000000E+00 -1.890151138E+02  1.890151138E+02  0.000000000E+00  0.00000E+00  9.000E+00
      25     1     1     2     0     0 -8.143334760E+00 -1.695561821E+01 -1.553596603E+01  1.273584435E+02  1.250000000E+02  0.00000E+00  9.000E+00
      25     1     1     2     0     0  1.419737556E+01  6.897694629E+01  2.433201474E+02  2.824696068E+02  1.250000000E+02  0.00000E+00  9.000E+00
      21     1     1     2   511   501 -6.054040797E+00 -5.202132808E+01 -9.099557504E+01  1.049907837E+02  1.348699152E-06  0.00000E+00  9.000E+00
#rwgt            1           1   4.2078220457143538E-002           1      183773           0
</event>
<event>
      5   9999  3.79277E-02  1.69786E+01 -1.00000E+00  1.72460E-01
      21    -1     0     0   502   501  0.000000000E+00  0.000000000E+00  1.155496010E+02  1.155496010E+02  0.000000000E+00  0.00000E+00  9.000E+00
      21    -1     0     0   501   512  0.000000000E+00  0.000000000E+00 -3.799127315E+02  3.799127315E+02  0.000000000E+00  0.00000E+00  9.000E+00
      25     1     1     2     0     0 -8.130341606E+01  8.529940899E+00  2.993782352E+01  1.523295068E+02  1.250000000E+02  0.00000E+00  9.000E+00
      25     1     1     2     0     0  9.820563096E+01 -6.921716785E+00 -2.592012727E+02  3.041423283E+02  1.250000000E+02  0.00000E+00  9.000E+00
      21     1     1     2   502   512 -1.690221490E+01 -1.608224114E+00 -3.509968133E+01  3.899049733E+01  6.743495762E-07  0.00000E+00  9.000E+00
#rwgt            1           1   4.4763681098505329E-002           1      183839           0
</event>
<event>
      5   9999  3.79277E-02  1.03352E+02 -1.00000E+00  1.23187E-01
      21    -1     0     0   502   501  0.000000000E+00  0.000000000E+00  2.159617063E+02  2.159617063E+02  0.000000000E+00  0.00000E+00  9.000E+00
      21    -1     0     0   501   511  0.000000000E+00  0.000000000E+00 -3.832959531E+02  3.832959531E+02  0.000000000E+00  0.00000E+00  9.000E+00
      25     1     1     2     0     0  2.191088645E+02  4.003851291E+01 -5.576541688E+01  2.614317478E+02  1.250000000E+02  0.00000E+00  9.000E+00
      25     1     1     2     0     0 -1.640831107E+02  4.744741821E+01 -4.985733264E+01  2.174517839E+02  1.250000000E+02  0.00000E+00  9.000E+00
      21     1     1     2   502   511 -5.502575379E+01 -8.748593112E+01 -6.171149727E+01  1.203741277E+02  2.023048729E-06  0.00000E+00  9.000E+00
#rwgt            1           1   3.4190578711995413E-002           1      184032           0
</event>
<event>
      5   9999  3.79277E-02  2.33588E+02 -1.00000E+00  1.09247E-01
      21    -1     0     0   512   501  0.000000000E+00  0.000000000E+00  1.429763510E+03  1.429763510E+03  0.000000000E+00  0.00000E+00  9.000E+00
      21    -1     0     0   501   502  0.000000000E+00  0.000000000E+00 -1.913127160E+02  1.913127160E+02  0.000000000E+00  0.00000E+00  9.000E+00
      25     1     1     2     0     0  8.067041541E+00  4.057710283E+02  1.953745080E+02  4.674520327E+02  1.250000000E+02  0.00000E+00  9.000E+00
      25     1     1     2     0     0  3.379494096E+01 -1.759642884E+02  2.773581899E+02  3.530695318E+02  1.250000000E+02  0.00000E+00  9.000E+00
      21     1     1     2   512   502 -4.186198251E+01 -2.298067399E+02  7.657180958E+02  8.005546611E+02  1.525878906E-05  0.00000E+00  9.000E+00
#rwgt            2          11   7.8150307901740245E-004           1      184129           0
</event>
<event>
      5   9999  3.79277E-02  2.46827E+01 -1.00000E+00  1.59168E-01
      21    -1     0     0   502   501  0.000000000E+00  0.000000000E+00  2.460349802E+02  2.460349802E+02  0.000000000E+00  0.00000E+00  9.000E+00
      21    -1     0     0   511   502  0.000000000E+00  0.000000000E+00 -2.677827228E+02  2.677827228E+02  0.000000000E+00  0.00000E+00  9.000E+00
      25     1     1     2     0     0  2.689857377E+01 -7.953002026E+01 -1.890380336E+02  2.416794065E+02  1.250000000E+02  0.00000E+00  9.000E+00
      25     1     1     2     0     0 -4.524339627E+01  9.604373484E+01  1.807179166E+02  2.440396060E+02  1.250000000E+02  0.00000E+00  9.000E+00
      21     1     1     2   511   501  1.834482249E+01 -1.651371458E+01 -1.342762563E+01  2.809869057E+01  4.129530925E-07  0.00000E+00  9.000E+00
#rwgt            1           1   4.6450380803786391E-002           1      184194           0
</event>
<event>
      5   9999  3.79277E-02  8.89558E+01 -1.00000E+00  1.26158E-01
      21    -1     0     0   512   501  0.000000000E+00  0.000000000E+00  1.012702178E+02  1.012702178E+02  0.000000000E+00  0.00000E+00  9.000E+00
      21    -1     0     0   501   502  0.000000000E+00  0.000000000E+00 -1.823873733E+03  1.823873733E+03  0.000000000E+00  0.00000E+00  9.000E+00
      25     1     1     2     0     0 -5.760982843E+01 -3.015828860E+02 -3.369739069E+02  4.727023835E+02  1.250000000E+02  0.00000E+00  9.000E+00
      25     1     1     2     0     0  3.633952069E+01  2.152074973E+02 -1.315052446E+03  1.338888630E+03  1.250000000E+02  0.00000E+00  9.000E+00
      21     1     1     2   512   502  2.127030774E+01  8.637538870E+01 -7.057716251E+01  1.135529376E+02  3.303624740E-06  0.00000E+00  9.000E+00
#rwgt            1           1   6.3455060600946675E-002           1      184363           0
</event>
<event>
      5   9999 -3.79277E-02  4.43992E+01 -1.00000E+00  1.42085E-01
      21    -1     0     0   511   501  0.000000000E+00  0.000000000E+00  1.419577353E+03  1.419577353E+03  0.000000000E+00  0.00000E+00  9.000E+00
      21    -1     0     0   501   502  0.000000000E+00  0.000000000E+00 -6.927688638E+01  6.927688638E+01  0.000000000E+00  0.00000E+00  9.000E+00
      25     1     1     2     0     0  1.713459035E+02 -5.949747103E+01  1.651466703E+02  2.753139851E+02  1.250000000E+02  0.00000E+00  9.000E+00
      25     1     1     2     0     0 -1.727574285E+02  1.512069012E+01  1.040199162E+03  1.061938351E+03  1.250000000E+02  0.00000E+00  9.000E+00
      21     1     1     2   511   502  1.411525038E+00  4.437678091E+01  1.449546337E+02  1.516019028E+02  2.697398305E-06  0.00000E+00  9.000E+00
#rwgt            1           1 -0.27888214027555763                1      184464           0
</event>
<event>
      5   9999  3.79277E-02  3.13042E+01 -1.00000E+00  1.51767E-01
      21    -1     0     0   502   501  0.000000000E+00  0.000000000E+00  6.519927358E+02  6.519927358E+02  0.000000000E+00  0.00000E+00  9.000E+00
      21    -1     0     0   501   512  0.000000000E+00  0.000000000E+00 -6.228979478E+01  6.228979478E+01  0.000000000E+00  0.00000E+00  9.000E+00
      25     1     1     2     0     0  3.375395995E+01 -9.679931083E+01  1.966009796E+02  2.545316907E+02  1.250000000E+02  0.00000E+00  9.000E+00
      25     1     1     2     0     0 -3.043311240E+01  1.279268432E+02  3.876086127E+02  4.279683261E+02  1.250000000E+02  0.00000E+00  9.000E+00
      21     1     1     2   502   512 -3.320847554E+00 -3.112753239E+01  5.493348752E+00  3.178251377E+01  6.391886052E-07  0.00000E+00  9.000E+00
#rwgt            1           1   3.7305264315292345E-002           1      184638           0
</event>
<event>
      5   9999  3.79277E-02  1.57422E+02 -1.00000E+00  1.15568E-01
      21    -1     0     0   502   501  0.000000000E+00  0.000000000E+00  1.492916983E+02  1.492916983E+02  0.000000000E+00  0.00000E+00  9.000E+00
      21    -1     0     0   501   511  0.000000000E+00  0.000000000E+00 -1.449678820E+03  1.449678820E+03  0.000000000E+00  0.00000E+00  9.000E+00
      25     1     1     2     0     0  4.018279865E+02 -1.447828197E+02 -4.973892809E+02  6.674195774E+02  1.250000000E+02  0.00000E+00  9.000E+00
      25     1     1     2     0     0 -2.861976296E+02  3.795852505E+01 -5.228273995E+02  6.101831057E+02  1.250000000E+02  0.00000E+00  9.000E+00
      21     1     1     2   502   511 -1.156303569E+02  1.068242947E+02 -2.801704415E+02  3.213678354E+02  3.814697266E-06  0.00000E+00  9.000E+00
#rwgt            1           1   4.1360449422724828E-002           1      184787           0
</event>
<event>
      5   9999  3.79277E-02  5.01079E+01 -1.00000E+00  1.39022E-01
      21    -1     0     0   502   501  0.000000000E+00  0.000000000E+00  1.824513065E+03  1.824513065E+03  0.000000000E+00  0.00000E+00  9.000E+00
      21    -1     0     0   512   502  0.000000000E+00  0.000000000E+00 -1.063303837E+02  1.063303837E+02  0.000000000E+00  0.00000E+00  9.000E+00
      25     1     1     2     0     0  1.788748920E+02 -2.902542154E+00  1.437582220E+03  1.454053745E+03  1.250000000E+02  0.00000E+00  9.000E+00
      25     1     1     2     0     0 -1.776693225E+02 -4.719081586E+01  3.354970284E+02  4.024631875E+02  1.250000000E+02  0.00000E+00  9.000E+00
      21     1     1     2   512   501 -1.205569545E+00  5.009335802E+01 -5.489656765E+01  7.432651650E+01  1.348699152E-06  0.00000E+00  9.000E+00
#rwgt            1           1   8.5641558017331802E-003           1      184866           0
</event>
<event>
      5   9999  3.79277E-02  6.70044E+01 -1.00000E+00  1.32190E-01
      21    -1     0     0   502   501  0.000000000E+00  0.000000000E+00  8.515454426E+01  8.515454426E+01  0.000000000E+00  0.00000E+00  9.000E+00
      21    -1     0     0   511   502  0.000000000E+00  0.000000000E+00 -7.676220850E+02  7.676220850E+02  0.000000000E+00  0.00000E+00  9.000E+00
      25     1     1     2     0     0  1.941137721E+02  6.382178465E+00 -1.822637651E+02  2.942209524E+02  1.250000000E+02  0.00000E+00  9.000E+00
      25     1     1     2     0     0 -1.294431412E+02 -2.391204512E+01 -3.688403506E+02  4.110906432E+02  1.250000000E+02  0.00000E+00  9.000E+00
      21     1     1     2   511   501 -6.467063096E+01  1.752986665E+01 -1.313634250E+02  1.474650337E+02  1.907348633E-06  0.00000E+00  9.000E+00
#rwgt            1           1   2.8546614141198950E-002           1      185034           0
</event>
<event>
      5   9999  3.79277E-02  6.89179E+01 -1.00000E+00  1.31564E-01
      21    -1     0     0   502   501  0.000000000E+00  0.000000000E+00  2.283027175E+02  2.283027175E+02  0.000000000E+00  0.00000E+00  9.000E+00
      21    -1     0     0   512   502  0.000000000E+00  0.000000000E+00 -1.355967981E+03  1.355967981E+03  0.000000000E+00  0.00000E+00  9.000E+00
      25     1     1     2     0     0 -1.235496332E+02 -2.271041841E+02 -1.368636862E+01  2.874945895E+02  1.250000000E+02  0.00000E+00  9.000E+00
      25     1     1     2     0     0  1.520048785E+02  2.898734188E+02 -2.508719959E+02  4.309220815E+02  1.250000000E+02  0.00000E+00  9.000E+00
      21     1     1     2   512   501 -2.845524536E+01 -6.276923469E+01 -8.631068994E+02  8.658540279E+02  0.000000000E+00  0.00000E+00  9.000E+00
#rwgt            1           1   3.7257176695328902E-002           1      185109           0
</event>
<event>
      5   9999  3.79277E-02  3.56025E+01 -1.00000E+00  1.48048E-01
      21    -1     0     0   502   501  0.000000000E+00  0.000000000E+00  2.174929795E+02  2.174929795E+02  0.000000000E+00  0.00000E+00  9.000E+00
      21    -1     0     0   501   511  0.000000000E+00  0.000000000E+00 -3.776256177E+02  3.776256177E+02  0.000000000E+00  0.00000E+00  9.000E+00
      25     1     1     2     0     0  1.480437345E+02 -9.634460641E+01 -6.998600016E+00  2.165022192E+02  1.250000000E+02  0.00000E+00  9.000E+00
      25     1     1     2     0     0 -1.261852905E+02  6.824217337E+01  2.949639968E+01  1.925480703E+02  1.250000000E+02  0.00000E+00  9.000E+00
      21     1     1     2   502   511 -2.185844398E+01  2.810243303E+01 -1.826304379E+02  1.860683078E+02  2.697398305E-06  0.00000E+00  9.000E+00
#rwgt            1           1   2.9982220476583839E-002           1      185245           0
</event>
<event>
      5   9999  3.79277E-02  1.49135E+01 -1.00000E+00  1.77620E-01
      21    -1     0     0   502   501  0.000000000E+00  0.000000000E+00  1.097903061E+02  1.097903061E+02  0.000000000E+00  0.00000E+00  9.000E+00
      21    -1     0     0   501   512  0.000000000E+00  0.000000000E+00 -3.059554137E+02  3.059554137E+02  0.000000000E+00  0.00000E+00  9.000E+00
      25     1     1     2     0     0 -1.229475721E+02 -3.911452714E+01 -8.261104012E+01  1.977261633E+02  1.250000000E+02  0.00000E+00  9.000E+00
      25     1     1     2     0     0  1.089746597E+02  3.390194079E+01 -9.460952798E+01  1.939092077E+02  1.250000000E+02  0.00000E+00  9.000E+00
      21     1     1     2   502   512  1.397291242E+01  5.212586345E+00 -1.894453954E+01  2.411034874E+01  0.000000000E+00  0.00000E+00  9.000E+00
#rwgt            1           1   4.5159691565547409E-002           1      185360           0
</event>
<event>
      5   9999  3.79277E-02  1.00272E+02 -1.00000E+00  1.23775E-01
      21    -1     0     0   502   501  0.000000000E+00  0.000000000E+00  6.081613019E+02  6.081613019E+02  0.000000000E+00  0.00000E+00  9.000E+00
      21    -1     0     0   511   502  0.000000000E+00  0.000000000E+00 -7.362546732E+02  7.362546732E+02  0.000000000E+00  0.00000E+00  9.000E+00
      25     1     1     2     0     0 -2.641521081E+02  6.408830562E+01 -2.458355287E+02  3.872257149E+02  1.250000000E+02  0.00000E+00  9.000E+00
      25     1     1     2     0     0  1.658561328E+02 -8.389899409E+01  5.075041028E+02  5.547366153E+02  1.250000000E+02  0.00000E+00  9.000E+00
      21     1     1     2   511   501  9.829597529E+01  1.981068847E+01 -3.897619454E+02  4.024536448E+02  5.394796609E-06  0.00000E+00  9.000E+00
#rwgt            2          11   1.3385994492300735E-003           1      185546           0
</event>
<event>
      5   9999 -3.79277E-02  4.20694E+01 -1.00000E+00  1.43495E-01
      21    -1     0     0   502   501  0.000000000E+00  0.000000000E+00  9.437324744E+01  9.437324744E+01  0.000000000E+00  0.00000E+00  9.000E+00
      21    -1     0     0   501   512  0.000000000E+00  0.000000000E+00 -6.933640974E+02  6.933640974E+02  0.000000000E+00  0.00000E+00  9.000E+00
      25     1     1     2     0     0 -8.690072810E+01  3.678364220E+00 -5.430981708E+01  1.616781468E+02  1.250000000E+02  0.00000E+00  9.000E+00
      25     1     1     2     0     0  1.286387205E+02 -8.948478069E+00 -1.644544216E+02  2.435123250E+02  1.250000000E+02  0.00000E+00  9.000E+00
      21     1     1     2   502   512 -4.173799245E+01  5.270113849E+00 -3.802266113E+02  3.825468731E+02  0.000000000E+00  0.00000E+00  9.000E+00
#rwgt            1           1  -7.8115216348149094E-002           1      185686           0
</event>
<event>
      5   9999  3.79277E-02  2.01046E+02 -1.00000E+00  1.11566E-01
      21    -1     0     0   502   511  0.000000000E+00  0.000000000E+00  1.104188414E+03  1.104188414E+03  0.000000000E+00  0.00000E+00  9.000E+00
      21    -1     0     0   501   502  0.000000000E+00  0.000000000E+00 -2.019393464E+02  2.019393464E+02  0.000000000E+00  0.00000E+00  9.000E+00
      25     1     1     2     0     0 -1.307607998E+02  1.547892454E+02  2.374898235E+02  3.362804091E+02  1.250000000E+02  0.00000E+00  9.000E+00
      25     1     1     2     0     0  2.459750580E+02  9.969169522E+00  7.773247277E-01  2.760954866E+02  1.250000000E+02  0.00000E+00  9.000E+00
      21     1     1     2   501   511 -1.152142582E+02 -1.647584149E+02  6.639819192E+02  6.937518646E+02  7.629394531E-06  0.00000E+00  9.000E+00
#rwgt            2          11   1.6488656395814722E-003           1      185849           0
</event>
<event>
      5   9999  3.79277E-02  4.53856E+01 -1.00000E+00  1.41518E-01
      21    -1     0     0   512   501  0.000000000E+00  0.000000000E+00  1.552970543E+02  1.552970543E+02  0.000000000E+00  0.00000E+00  9.000E+00
      21    -1     0     0   501   502  0.000000000E+00  0.000000000E+00 -5.042894905E+02  5.042894905E+02  0.000000000E+00  0.00000E+00  9.000E+00
      25     1     1     2     0     0 -1.641579305E+01 -6.140250528E+01 -4.360835160E+02  4.580759531E+02  1.250000000E+02  0.00000E+00  9.000E+00
      25     1     1     2     0     0  3.968333843E+01  2.243493216E+01  8.086695969E+01  1.557002206E+02  1.250000000E+02  0.00000E+00  9.000E+00
      21     1     1     2   512   502 -2.326754538E+01  3.896757312E+01  6.224120089E+00  4.581037103E+01  5.127385418E-07  0.00000E+00  9.000E+00
#rwgt            1           1   4.1418749581231672E-002           1      185959           0
</event>
<event>
      5   9999  3.79277E-02  5.22089E+01 -1.00000E+00  1.38013E-01
      21    -1     0     0   502   501  0.000000000E+00  0.000000000E+00  1.595285556E+03  1.595285556E+03  0.000000000E+00  0.00000E+00  9.000E+00
      21    -1     0     0   501   511  0.000000000E+00  0.000000000E+00 -2.974671279E+01  2.974671279E+01  0.000000000E+00  0.00000E+00  9.000E+00
      25     1     1     2     0     0 -7.310186412E+01  3.725365099E+01  9.199514617E+02  9.320232878E+02  1.250000000E+02  0.00000E+00  9.000E+00
      25     1     1     2     0     0  1.178171149E+02 -6.420395047E+01  5.848046624E+02  6.128821363E+02  1.250000000E+02  0.00000E+00  9.000E+00
      21     1     1     2   502   511 -4.471525075E+01  2.695029948E+01  6.078271878E+01  8.012684440E+01  1.651812370E-06  0.00000E+00  9.000E+00
#rwgt            1           1   5.2216229775458402E-002           1      186073           0
</event>
<event>
      5   9999  3.79277E-02  5.95838E+01 -1.00000E+00  1.34865E-01
      21    -1     0     0   502   501  0.000000000E+00  0.000000000E+00  1.962725176E+02  1.962725176E+02  0.000000000E+00  0.00000E+00  9.000E+00
       1    -1     0     0   501     0  0.000000000E+00  0.000000000E+00 -9.178355365E+02  9.178355365E+02  0.000000000E+00  0.00000E+00  9.000E+00
      25     1     1     2     0     0  1.531150571E+02 -1.188334315E+01 -6.189235089E+01  2.074634851E+02  1.250000000E+02  0.00000E+00  9.000E+00
      25     1     1     2     0     0 -2.126934269E+02  1.269019227E+01 -2.769795582E+00  2.470469724E+02  1.250000000E+02  0.00000E+00  9.000E+00
       1     1     1     2   502     0  5.957836977E+01 -8.068491180E-01 -6.569008725E+02  6.595975966E+02  7.629394531E-06  0.00000E+00  9.000E+00
#rwgt            1           1   5.6281603303944876E-002           1      186181           0
</event>
<event>
      5   9999  3.79277E-02  4.90582E+01 -1.00000E+00  1.39548E-01
      21    -1     0     0   502   511  0.000000000E+00  0.000000000E+00  5.208459969E+02  5.208459969E+02  0.000000000E+00  0.00000E+00  9.000E+00
      21    -1     0     0   501   502  0.000000000E+00  0.000000000E+00 -2.133635241E+02  2.133635241E+02  0.000000000E+00  0.00000E+00  9.000E+00
      25     1     1     2     0     0 -1.969962005E+02  9.520369062E+01  3.531748107E+02  4.338533077E+02  1.250000000E+02  0.00000E+00  9.000E+00
      25     1     1     2     0     0  1.479511726E+02 -9.406888756E+01 -9.082674535E+01  2.336942506E+02  1.250000000E+02  0.00000E+00  9.000E+00
      21     1     1     2   501   511  4.904502786E+01 -1.134803057E+00  4.513440745E+01  6.666196270E+01  6.743495762E-07  0.00000E+00  9.000E+00
#rwgt            1           1   3.8647916527174343E-002           1      186572           0
</event>
<event>
      5   9999  3.79277E-02  3.56554E+01 -1.00000E+00  1.48007E-01
      21    -1     0     0   512   501  0.000000000E+00  0.000000000E+00  4.404922986E+02  4.404922986E+02  0.000000000E+00  0.00000E+00  9.000E+00
      21    -1     0     0   501   502  0.000000000E+00  0.000000000E+00 -1.760007289E+02  1.760007289E+02  0.000000000E+00  0.00000E+00  9.000E+00
      25     1     1     2     0     0 -2.691434313E+01  1.648781913E+02  2.305248589E+02  3.109275002E+02  1.250000000E+02  0.00000E+00  9.000E+00
      25     1     1     2     0     0  5.823936547E+01 -1.819090089E+02 -3.207486528E+01  2.305135749E+02  1.250000000E+02  0.00000E+00  9.000E+00
      21     1     1     2   512   502 -3.132502235E+01  1.703081764E+01  6.604157607E+01  7.505195230E+01  1.348699152E-06  0.00000E+00  9.000E+00
#rwgt            1           1   3.5713617611427578E-002           1      186706           0
</event>
<event>
      5   9999  3.79277E-02  5.63007E+01 -1.00000E+00  1.36197E-01
      21    -1     0     0   511   501  0.000000000E+00  0.000000000E+00  2.373494551E+02  2.373494551E+02  0.000000000E+00  0.00000E+00  9.000E+00
      21    -1     0     0   501   502  0.000000000E+00  0.000000000E+00 -1.968634110E+02  1.968634110E+02  0.000000000E+00  0.00000E+00  9.000E+00
      25     1     1     2     0     0 -2.778149042E+01  4.052108540E+01  6.462873227E+01  1.490491282E+02  1.250000000E+02  0.00000E+00  9.000E+00
      25     1     1     2     0     0  8.134928250E+01 -2.319319548E+01 -1.069828428E+02  1.850025911E+02  1.250000000E+02  0.00000E+00  9.000E+00
      21     1     1     2   511   502 -5.356779208E+01 -1.732788991E+01  8.284015460E+01  1.001611468E+02  1.651812370E-06  0.00000E+00  9.000E+00
#rwgt            1           1   5.1170973284525530E-002           1      187003           0
</event>
<event>
      5   9999  3.79277E-02  3.58531E+01 -1.00000E+00  1.47851E-01
      21    -1     0     0   502   501  0.000000000E+00  0.000000000E+00  3.981330766E+02  3.981330766E+02  0.000000000E+00  0.00000E+00  9.000E+00
      21    -1     0     0   501   512  0.000000000E+00  0.000000000E+00 -1.104247694E+02  1.104247694E+02  0.000000000E+00  0.00000E+00  9.000E+00
      25     1     1     2     0     0  1.751816501E+01  1.379553886E+02  1.289965200E+02  2.271644283E+02  1.250000000E+02  0.00000E+00  9.000E+00
      25     1     1     2     0     0  1.751741336E+01 -1.455681205E+02  1.508234995E+02  2.446827854E+02  1.250000000E+02  0.00000E+00  9.000E+00
      21     1     1     2   502   512 -3.503557837E+01  7.612731906E+00  7.888287746E+00  3.671063228E+01  5.960464478E-07  0.00000E+00  9.000E+00
#rwgt            1           1   4.1355492549894214E-002           1      187149           0
</event>
<event>
      5   9999  3.79277E-02  2.56631E+02 -1.00000E+00  1.07843E-01
      21    -1     0     0   502   501  0.000000000E+00  0.000000000E+00  5.420080287E+02  5.420080287E+02  0.000000000E+00  0.00000E+00  9.000E+00
      21    -1     0     0   511   502  0.000000000E+00  0.000000000E+00 -3.444702255E+02  3.444702255E+02  0.000000000E+00  0.00000E+00  9.000E+00
      25     1     1     2     0     0  2.311688203E+00  1.543076686E+02 -1.302850399E+02  2.375192458E+02  1.250000000E+02  0.00000E+00  9.000E+00
      25     1     1     2     0     0  2.155515576E+02 -1.867847466E+01  3.005933348E+02  3.908870839E+02  1.250000000E+02  0.00000E+00  9.000E+00
      21     1     1     2   511   501 -2.178632458E+02 -1.356291939E+02  2.722950824E+01  2.580719246E+02  6.325959759E-06  0.00000E+00  9.000E+00
#rwgt            1           1   4.1275362353034174E-002           1      187254           0
</event>
<event>
      5   9999  3.79277E-02  8.19756E+01 -1.00000E+00  1.27839E-01
      21    -1     0     0   502   512  0.000000000E+00  0.000000000E+00  8.965498710E+01  8.965498710E+01  0.000000000E+00  0.00000E+00  9.000E+00
      21    -1     0     0   501   502  0.000000000E+00  0.000000000E+00 -1.288754126E+03  1.288754126E+03  0.000000000E+00  0.00000E+00  9.000E+00
      25     1     1     2     0     0  7.963977622E+01 -3.699149271E+01 -4.243381260E+02  4.509974608E+02  1.250000000E+02  0.00000E+00  9.000E+00
      25     1     1     2     0     0 -1.494744328E+02 -5.940143779E+00 -8.136513028E+02  8.366787519E+02  1.250000000E+02  0.00000E+00  9.000E+00
      21     1     1     2   501   512  6.983465656E+01  4.293163649E+01  3.889028948E+01  9.073290078E+01  2.821006671E-06  0.00000E+00  9.000E+00
#rwgt            1           1   4.0572924615843158E-002           1      187290           0
</event>
<event>
      5   9999  3.79277E-02  5.25066E+01 -1.00000E+00  1.37874E-01
      21    -1     0     0   502   501  0.000000000E+00  0.000000000E+00  8.177761206E+01  8.177761206E+01  0.000000000E+00  0.00000E+00  9.000E+00
      21    -1     0     0   511   502  0.000000000E+00  0.000000000E+00 -1.776343099E+03  1.776343099E+03  0.000000000E+00  0.00000E+00  9.000E+00
      25     1     1     2     0     0 -1.919513394E+02  1.796503220E+02 -1.216378337E+03  1.250728114E+03  1.250000000E+02  0.00000E+00  9.000E+00
      25     1     1     2     0     0  1.394462043E+02 -1.792597267E+02 -2.086105755E+02  3.327501551E+02  1.250000000E+02  0.00000E+00  9.000E+00
      21     1     1     2   511   501  5.250513511E+01 -3.905952778E-01 -2.695765740E+02  2.746424421E+02  5.394796609E-06  0.00000E+00  9.000E+00
#rwgt            1           1   3.2469683958814798E-002           1      187525           0
</event>
<event>
      5   9999  3.79277E-02  1.37526E+02 -1.00000E+00  1.17908E-01
      -4    -1     0     0     0   501  0.000000000E+00  0.000000000E+00  3.625662196E+01  3.625662196E+01  0.000000000E+00  0.00000E+00  9.000E+00
      21    -1     0     0   501   502  0.000000000E+00  0.000000000E+00 -1.899438874E+03  1.899438874E+03  0.000000000E+00  0.00000E+00  9.000E+00
      25     1     1     2     0     0 -5.424395871E+00 -2.921863758E+01 -2.782257737E+02  3.064600039E+02  1.250000000E+02  0.00000E+00  9.000E+00
      25     1     1     2     0     0  1.358086732E+02  7.296185647E+01 -1.272043284E+03  1.287434093E+03  1.250000000E+02  0.00000E+00  9.000E+00
      -4     1     1     2     0   502 -1.303842774E+02 -4.374321889E+01 -3.129131944E+02  3.418013987E+02  1.009274029E-05  0.00000E+00  9.000E+00
#rwgt            1           1   4.9167505635534875E-002           1      187780           0
</event>
<event>
      5   9999  3.79277E-02  1.82456E+02 -1.00000E+00  1.13119E-01
      21    -1     0     0   511   501  0.000000000E+00  0.000000000E+00  5.519459311E+02  5.519459311E+02  0.000000000E+00  0.00000E+00  9.000E+00
      21    -1     0     0   501   502  0.000000000E+00  0.000000000E+00 -4.475790635E+02  4.475790635E+02  0.000000000E+00  0.00000E+00  9.000E+00
      25     1     1     2     0     0  1.528284586E+02 -6.121950654E+01  6.051156685E+01  2.153857364E+02  1.250000000E+02  0.00000E+00  9.000E+00
      25     1     1     2     0     0 -4.204672975E+00 -4.461663909E+01 -3.367904956E+02  3.620237032E+02  1.250000000E+02  0.00000E+00  9.000E+00
      21     1     1     2   511   502 -1.486237856E+02  1.058361456E+02  3.806457964E+02  4.221155549E+02  0.000000000E+00  0.00000E+00  9.000E+00
#rwgt            2          11   2.1104505999923824E-003           1      187929           0
</event>
<event>
      5   9999  3.79277E-02  3.66318E+01 -1.00000E+00  1.47250E-01
      21    -1     0     0   502   501  0.000000000E+00  0.000000000E+00  2.968026850E+02  2.968026850E+02  0.000000000E+00  0.00000E+00  9.000E+00
       1    -1     0     0   501     0  0.000000000E+00  0.000000000E+00 -3.638696080E+02  3.638696080E+02  0.000000000E+00  0.00000E+00  9.000E+00
      25     1     1     2     0     0  6.976321465E+01 -1.175731142E+01  1.080574194E+02  1.797402191E+02  1.250000000E+02  0.00000E+00  9.000E+00
      25     1     1     2     0     0 -3.508293108E+01  2.355428811E+01  1.231064161E+02  1.804599851E+02  1.250000000E+02  0.00000E+00  9.000E+00
       1     1     1     2   502     0 -3.468028357E+01 -1.179697669E+01 -2.982307586E+02  3.004720887E+02  5.394796609E-06  0.00000E+00  9.000E+00
#rwgt            1           1   1.8405342086002256E-002           1      187964           0
</event>
<event>
      5   9999  3.79277E-02  1.19450E+01 -1.00000E+00  1.87238E-01
      21    -1     0     0   502   501  0.000000000E+00  0.000000000E+00  6.111549888E+02  6.111549888E+02  0.000000000E+00  0.00000E+00  9.000E+00
      21    -1     0     0   501   511  0.000000000E+00  0.000000000E+00 -7.533266134E+01  7.533266134E+01  0.000000000E+00  0.00000E+00  9.000E+00
      25     1     1     2     0     0  2.566669052E+01  1.649109519E+02  1.980401482E+02  2.875748622E+02  1.250000000E+02  0.00000E+00  9.000E+00
      25     1     1     2     0     0 -2.292752643E+01 -1.532842949E+02  3.268295461E+02  3.827065439E+02  1.250000000E+02  0.00000E+00  9.000E+00
      21     1     1     2   502   511 -2.739164096E+00 -1.162665701E+01  1.095263322E+01  1.620624410E+01  1.192092896E-07  0.00000E+00  9.000E+00
#rwgt            1           1   2.5146872889207833E-002           1      188176           0
</event>
<event>
      5   9999  3.79277E-02  1.33714E+01 -1.00000E+00  1.82219E-01
      21    -1     0     0   502   501  0.000000000E+00  0.000000000E+00  2.315575507E+02  2.315575507E+02  0.000000000E+00  0.00000E+00  9.000E+00
      21    -1     0     0   501   512  0.000000000E+00  0.000000000E+00 -2.167553977E+02  2.167553977E+02  0.000000000E+00  0.00000E+00  9.000E+00
      25     1     1     2     0     0 -6.880134156E+01  6.600531572E+01  1.601303242E+02  2.244037590E+02  1.250000000E+02  0.00000E+00  9.000E+00
      25     1     1     2     0     0  7.555030311E+01 -5.446208932E+01 -1.399815046E+02  2.095084464E+02  1.250000000E+02  0.00000E+00  9.000E+00
      21     1     1     2   502   512 -6.748961542E+00 -1.154322640E+01 -5.346666665E+00  1.440074311E+01  0.000000000E+00  0.00000E+00  9.000E+00
#rwgt            1           1   3.1605648790989337E-002           1      188420           0
</event>
<event>
      5   9999  3.79277E-02  7.76666E+01 -1.00000E+00  1.28975E-01
      21    -1     0     0   502   501  0.000000000E+00  0.000000000E+00  1.239080023E+02  1.239080023E+02  0.000000000E+00  0.00000E+00  9.000E+00
      21    -1     0     0   501   511  0.000000000E+00  0.000000000E+00 -6.217478850E+02  6.217478850E+02  0.000000000E+00  0.00000E+00  9.000E+00
      25     1     1     2     0     0 -1.228254466E+02 -2.887463748E+01 -1.081741402E+02  2.079578794E+02  1.250000000E+02  0.00000E+00  9.000E+00
      25     1     1     2     0     0  1.844711536E+02 -1.836842167E+01 -1.133598414E+02  2.506839825E+02  1.250000000E+02  0.00000E+00  9.000E+00
      21     1     1     2   502   511 -6.164570703E+01  4.724305915E+01 -2.763059011E+02  2.870140254E+02  3.814697266E-06  0.00000E+00  9.000E+00
#rwgt            1           1   9.4668403424595260E-002           1      188678           0
</event>
<event>
      5   9999  3.79277E-02  1.26361E+02 -1.00000E+00  1.19424E-01
      21    -1     0     0   502   501  0.000000000E+00  0.000000000E+00  1.061007833E+03  1.061007833E+03  0.000000000E+00  0.00000E+00  9.000E+00
      21    -1     0     0   501   512  0.000000000E+00  0.000000000E+00 -2.720385213E+03  2.720385213E+03  0.000000000E+00  0.00000E+00  9.000E+00
      25     1     1     2     0     0 -8.173703840E+01 -1.291956707E+02  6.289454195E+02  6.592190877E+02  1.250000000E+02  0.00000E+00  9.000E+00
      25     1     1     2     0     0  1.964842474E+02  1.821113776E+02  3.628261320E+02  4.680154008E+02  1.250000000E+02  0.00000E+00  9.000E+00
      21     1     1     2   502   512 -1.147472090E+02 -5.291570688E+01 -2.651148932E+03  2.654158558E+03  4.315837288E-05  0.00000E+00  9.000E+00
#rwgt            1           1   2.0913426321922057E-002           1      188738           0
</event>
<event>
      5   9999 -3.79277E-02  7.23795E+01 -1.00000E+00  1.30490E-01
       2    -1     0     0   502     0  0.000000000E+00  0.000000000E+00  1.309936009E+02  1.309936009E+02  0.000000000E+00  0.00000E+00  9.000E+00
      21    -1     0     0   501   502  0.000000000E+00  0.000000000E+00 -1.766027702E+03  1.766027702E+03  0.000000000E+00  0.00000E+00  9.000E+00
      25     1     1     2     0     0  6.973529739E+01  4.685017523E+01 -3.214587911E+02  3.549911337E+02  1.250000000E+02  0.00000E+00  9.000E+00
      25     1     1     2     0     0 -6.145632762E+01 -1.187546093E+02 -1.409794162E+03  1.421627278E+03  1.250000000E+02  0.00000E+00  9.000E+00
       2     1     1     2   501     0 -8.278969770E+00  7.190443411E+01  9.621885158E+01  1.204028919E+02  2.336015456E-06  0.00000E+00  9.000E+00
#rwgt            1           1  -4.1556886758628744E-002           1      188974           0
</event>
<event>
      5   9999  3.79277E-02  2.99385E+01 -1.00000E+00  1.53102E-01
      21    -1     0     0   502   501  0.000000000E+00  0.000000000E+00  1.140064698E+02  1.140064698E+02  0.000000000E+00  0.00000E+00  9.000E+00
      21    -1     0     0   501   511  0.000000000E+00  0.000000000E+00 -4.495423419E+02  4.495423419E+02  0.000000000E+00  0.00000E+00  9.000E+00
      25     1     1     2     0     0 -7.234180245E+01 -8.441381019E+01  1.055206311E+01  1.676167467E+02  1.250000000E+02  0.00000E+00  9.000E+00
      25     1     1     2     0     0  8.504083885E+01  5.730202182E+01 -2.788858527E+02  3.223628155E+02  1.250000000E+02  0.00000E+00  9.000E+00
      21     1     1     2   502   511 -1.269903640E+01  2.711178837E+01 -6.720208244E+01  7.356924954E+01  1.348699152E-06  0.00000E+00  9.000E+00
#rwgt            1           1   4.5742446470987234E-002           1      189097           0
</event>
<event>
      5   9999  3.79277E-02  4.55793E+01 -1.00000E+00  1.41409E-01
       2    -1     0     0   502     0  0.000000000E+00  0.000000000E+00  7.790051312E+02  7.790051312E+02  0.000000000E+00  0.00000E+00  9.000E+00
      21    -1     0     0   501   502  0.000000000E+00  0.000000000E+00 -7.546256515E+02  7.546256515E+02  0.000000000E+00  0.00000E+00  9.000E+00
      25     1     1     2     0     0 -1.426724411E+02 -1.096250376E+02 -4.719814828E+02  5.203504535E+02  1.250000000E+02  0.00000E+00  9.000E+00
      25     1     1     2     0     0  1.042135869E+02  8.516308219E+01 -2.250154332E+02  2.904654325E+02  1.250000000E+02  0.00000E+00  9.000E+00
       2     1     1     2   501     0  3.845885420E+01  2.446195544E+01  7.213763957E+02  7.228148967E+02  7.629394531E-06  0.00000E+00  9.000E+00
#rwgt            1           1   4.2735161985453185E-002           1      189239           0
</event>
<event>
      5   9999  3.79277E-02  2.07537E+01 -1.00000E+00  1.65054E-01
       1    -1     0     0   502     0  0.000000000E+00  0.000000000E+00  6.259606142E+02  6.259606142E+02  0.000000000E+00  0.00000E+00  9.000E+00
      21    -1     0     0   501   502  0.000000000E+00  0.000000000E+00 -2.734553265E+02  2.734553265E+02  0.000000000E+00  0.00000E+00  9.000E+00
      25     1     1     2     0     0 -2.135783786E+01  6.159420942E+01 -2.218328116E+02  2.628398755E+02  1.250000000E+02  0.00000E+00  9.000E+00
      25     1     1     2     0     0  1.038793721E+01 -4.397670079E+01  1.121137445E+02  1.738860292E+02  1.250000000E+02  0.00000E+00  9.000E+00
       1     1     1     2   501     0  1.096990065E+01 -1.761750863E+01  4.622243547E+02  4.626900360E+02  0.000000000E+00  0.00000E+00  9.000E+00
#rwgt            1           1   2.5991101052131739E-002           1      189455           0
</event>
<event>
      5   9999  3.79277E-02  5.70255E+01 -1.00000E+00  1.35894E-01
      21    -1     0     0   502   501  0.000000000E+00  0.000000000E+00  2.534978044E+02  2.534978044E+02  0.000000000E+00  0.00000E+00  9.000E+00
      21    -1     0     0   501   511  0.000000000E+00  0.000000000E+00 -4.641650890E+02  4.641650890E+02  0.000000000E+00  0.00000E+00  9.000E+00
      25     1     1     2     0     0  6.972545044E+01 -1.956363836E+02 -2.376552347E+02  3.394705342E+02  1.250000000E+02  0.00000E+00  9.000E+00
      25     1     1     2     0     0 -5.644380187E+01  1.401791442E+02  1.471523184E+02  2.451834008E+02  1.250000000E+02  0.00000E+00  9.000E+00
      21     1     1     2   502   511 -1.328164856E+01  5.545723938E+01 -1.201643683E+02  1.330089584E+02  1.348699152E-06  0.00000E+00  9.000E+00
#rwgt            1           1   4.6774275323796563E-002           1      189607           0
</event>
<event>
      5   9999  3.79277E-02  1.70231E+02 -1.00000E+00  1.14257E-01
      21    -1     0     0   502   512  0.000000000E+00  0.000000000E+00  4.745792808E+02  4.745792808E+02  0.000000000E+00  0.00000E+00  9.000E+00
      21    -1     0     0   501   502  0.000000000E+00  0.000000000E+00 -1.875154694E+02  1.875154694E+02  0.000000000E+00  0.00000E+00  9.000E+00
      25     1     1     2     0     0  2.152793834E+01  3.600213738E+00 -4.664665442E+01  1.351936538E+02  1.250000000E+02  0.00000E+00  9.000E+00
      25     1     1     2     0     0 -1.902316770E+02 -2.635088708E+01  1.378995776E+02  2.674392523E+02  1.250000000E+02  0.00000E+00  9.000E+00
      21     1     1     2   501   512  1.687037387E+02  2.275067335E+01  1.958108882E+02  2.594618441E+02  5.394796609E-06  0.00000E+00  9.000E+00
#rwgt            1           1   3.7663720083833681E-002           1      189846           0
</event>
<event>
      5   9999  3.79277E-02  1.24302E+02 -1.00000E+00  1.19723E-01
      21    -1     0     0   502   501  0.000000000E+00  0.000000000E+00  4.498592158E+02  4.498592158E+02  0.000000000E+00  0.00000E+00  9.000E+00
      -1    -1     0     0     0   502  0.000000000E+00  0.000000000E+00 -1.676676479E+02  1.676676479E+02  0.000000000E+00  0.00000E+00  9.000E+00
      25     1     1     2     0     0 -1.128985892E+02  9.897129419E+01  2.243658769E+02  2.975003449E+02  1.250000000E+02  0.00000E+00  9.000E+00
      25     1     1     2     0     0 -4.547622492E+00 -1.396821824E+02  5.609431018E+01  1.957124538E+02  1.250000000E+02  0.00000E+00  9.000E+00
      -1     1     1     2     0   501  1.174462117E+02  4.071088821E+01  1.731380802E+00  1.243140649E+02  1.386048311E-06  0.00000E+00  9.000E+00
#rwgt            1           1   4.1734643203830524E-002           1      189924           0
</event>
<event>
      5   9999  3.79277E-02  4.25349E+00 -1.00000E+00  2.57337E-01
      21    -1     0     0   511   501  0.000000000E+00  0.000000000E+00  2.268814055E+02  2.268814055E+02  0.000000000E+00  0.00000E+00  9.000E+00
      21    -1     0     0   501   502  0.000000000E+00  0.000000000E+00 -2.429386455E+02  2.429386455E+02  0.000000000E+00  0.00000E+00  9.000E+00
      25     1     1     2     0     0 -1.009730794E+02 -1.410258238E+02  2.413275214E+01  2.151539808E+02  1.250000000E+02  0.00000E+00  9.000E+00
      25     1     1     2     0     0  1.001012082E+02  1.451889982E+02 -6.794510427E+01  2.265869243E+02  1.250000000E+02  0.00000E+00  9.000E+00
      21     1     1     2   511   502  8.718711676E-01 -4.163174400E+00  2.775511217E+01  2.807914585E+01  0.000000000E+00  0.00000E+00  9.000E+00
#rwgt            1           1   4.1896740631297454E-002           1      190000           0
</event>
<event>
      5   9999  3.79277E-02  1.71976E+01 -1.00000E+00  1.71967E-01
      21    -1     0     0   512   501  0.000000000E+00  0.000000000E+00  4.167485054E+02  4.167485054E+02  0.000000000E+00  0.00000E+00  9.000E+00
      21    -1     0     0   501   502  0.000000000E+00  0.000000000E+00 -2.766558987E+02  2.766558987E+02  0.000000000E+00  0.00000E+00  9.000E+00
      25     1     1     2     0     0 -2.847605748E+02 -6.932660211E+01  6.019137071E+01  3.242572495E+02  1.250000000E+02  0.00000E+00  9.000E+00
      25     1     1     2     0     0  2.862044741E+02  5.218973979E+01  3.200231318E+01  3.182544862E+02  1.250000000E+02  0.00000E+00  9.000E+00
      21     1     1     2   512   502 -1.443899266E+00  1.713686232E+01  4.789892284E+01  5.089266848E+01  6.743495762E-07  0.00000E+00  9.000E+00
#rwgt            1           1   4.7204593989128539E-002           1      190478           0
</event>
<event>
      5   9999  3.79277E-02  4.44949E+01 -1.00000E+00  1.42029E-01
      21    -1     0     0   511   501  0.000000000E+00  0.000000000E+00  3.824681082E+01  3.824681082E+01  0.000000000E+00  0.00000E+00  9.000E+00
      21    -1     0     0   501   502  0.000000000E+00  0.000000000E+00 -1.096720072E+03  1.096720072E+03  0.000000000E+00  0.00000E+00  9.000E+00
      25     1     1     2     0     0  3.313666933E+01 -6.960835360E+01 -7.139451322E+02  7.288936915E+02  1.250000000E+02  0.00000E+00  9.000E+00
      25     1     1     2     0     0 -2.418420647E+01  1.131933519E+02 -2.687036995E+02  3.181576478E+02  1.250000000E+02  0.00000E+00  9.000E+00
      21     1     1     2   511   502 -8.952462869E+00 -4.358499828E+01 -7.582442908E+01  8.791554306E+01  9.536743164E-07  0.00000E+00  9.000E+00
#rwgt            1           1   3.1890452902202014E-002           1      190614           0
</event>
<event>
      5   9999  3.79277E-02  2.43006E+02 -1.00000E+00  1.08653E-01
      21    -1     0     0   512   501  0.000000000E+00  0.000000000E+00  8.664168772E+01  8.664168772E+01  0.000000000E+00  0.00000E+00  9.000E+00
      21    -1     0     0   501   502  0.000000000E+00  0.000000000E+00 -1.875262551E+03  1.875262551E+03  0.000000000E+00  0.00000E+00  9.000E+00
      25     1     1     2     0     0  9.342203831E+01  1.118216497E+02 -1.126390660E+03  1.142634096E+03  1.250000000E+02  0.00000E+00  9.000E+00
      25     1     1     2     0     0  1.491267643E+02 -9.691690324E+01 -1.923317508E+02  2.902553709E+02  1.250000000E+02  0.00000E+00  9.000E+00
      21     1     1     2   512   502 -2.425488026E+02 -1.490474641E+01 -4.698984527E+02  5.290147719E+02  5.394796609E-06  0.00000E+00  9.000E+00
#rwgt            1           1   4.8611041849120989E-002           1      190796           0
</event>
<event>
      5   9999  3.79277E-02  3.93021E+01 -1.00000E+00  1.45316E-01
       2    -1     0     0   502     0  0.000000000E+00  0.000000000E+00  8.035866488E+02  8.035866488E+02  0.000000000E+00  0.00000E+00  9.000E+00
      21    -1     0     0   501   502  0.000000000E+00  0.000000000E+00 -2.901799868E+02  2.901799868E+02  0.000000000E+00  0.00000E+00  9.000E+00
      25     1     1     2     0     0 -5.447043176E+01 -1.782745394E+02 -5.177127184E+01  2.303347649E+02  1.250000000E+02  0.00000E+00  9.000E+00
      25     1     1     2     0     0  3.662971461E+01  1.432550819E+02 -8.543602554E+01  2.116319186E+02  1.250000000E+02  0.00000E+00  9.000E+00
       2     1     1     2   501     0  1.784071715E+01  3.501945746E+01  6.506139593E+02  6.517999522E+02  7.629394531E-06  0.00000E+00  9.000E+00
#rwgt            1           1   2.1668118235147599E-002           1      190854           0
</event>
<event>
      5   9999  3.79277E-02  1.81386E+02 -1.00000E+00  1.13215E-01
       2    -1     0     0   502     0  0.000000000E+00  0.000000000E+00  1.847962903E+03  1.847962903E+03  0.000000000E+00  0.00000E+00  9.000E+00
      21    -1     0     0   501   502  0.000000000E+00  0.000000000E+00 -6.372578502E+01  6.372578502E+01  0.000000000E+00  0.00000E+00  9.000E+00
      25     1     1     2     0     0 -1.682745133E+02  2.097799383E+02  9.187152782E+02  9.653945808E+02  1.250000000E+02  0.00000E+00  9.000E+00
      25     1     1     2     0     0  1.391809007E+02 -3.074197342E+01  3.262373406E+02  3.773224012E+02  1.250000000E+02  0.00000E+00  9.000E+00
       2     1     1     2   501     0  2.909361255E+01 -1.790379648E+02  5.392844994E+02  5.689717061E+02  1.078959322E-05  0.00000E+00  9.000E+00
#rwgt            2          18   3.2098939621848536E-004           1      191086           0
</event>
<event>
      5   9999  3.79277E-02  7.13547E+01 -1.00000E+00  1.30800E-01
      21    -1     0     0   502   511  0.000000000E+00  0.000000000E+00  1.548621137E+02  1.548621137E+02  0.000000000E+00  0.00000E+00  9.000E+00
      21    -1     0     0   501   502  0.000000000E+00  0.000000000E+00 -7.848853412E+02  7.848853412E+02  0.000000000E+00  0.00000E+00  9.000E+00
      25     1     1     2     0     0  8.646914578E+01  1.407761880E+02 -2.958479321E+02  3.611728772E+02  1.250000000E+02  0.00000E+00  9.000E+00
      25     1     1     2     0     0 -2.858916285E+01 -1.825062722E+02 -4.147645212E+02  4.709357574E+02  1.250000000E+02  0.00000E+00  9.000E+00
      21     1     1     2   501   511 -5.787998293E+01  4.173008419E+01  8.058922571E+01  1.076388204E+02  9.536743164E-07  0.00000E+00  9.000E+00
#rwgt            2          11   2.0972464846114158E-003           1      191165           0
</event>
<event>
      5   9999  3.79277E-02  4.11135E+01 -1.00000E+00  1.44104E-01
      21    -1     0     0   512   501  0.000000000E+00  0.000000000E+00  2.470026061E+01  2.470026061E+01  0.000000000E+00  0.00000E+00  9.000E+00
      21    -1     0     0   501   502  0.000000000E+00  0.000000000E+00 -2.014793070E+03  2.014793070E+03  0.000000000E+00  0.00000E+00  9.000E+00
      25     1     1     2     0     0  1.236693904E+02 -9.585684845E+01 -1.038890094E+03  1.058017145E+03  1.250000000E+02  0.00000E+00  9.000E+00
      25     1     1     2     0     0 -1.140468351E+02  5.588527774E+01 -8.905397301E+02  9.081937325E+02  1.250000000E+02  0.00000E+00  9.000E+00
      21     1     1     2   512   502 -9.622555269E+00  3.997157071E+01 -6.066298577E+01  7.328245272E+01  1.784161275E-06  0.00000E+00  9.000E+00
#rwgt            1           1   7.4159989557515099E-002           1      191185           0
</event>
<event>
      5   9999  3.79277E-02  5.45945E+01 -1.00000E+00  1.36932E-01
      21    -1     0     0   502   501  0.000000000E+00  0.000000000E+00  9.701970359E+02  9.701970359E+02  0.000000000E+00  0.00000E+00  9.000E+00
      21    -1     0     0   511   502  0.000000000E+00  0.000000000E+00 -1.093801924E+02  1.093801924E+02  0.000000000E+00  0.00000E+00  9.000E+00
      25     1     1     2     0     0  2.420940297E+02  1.546067802E+02  5.330950502E+02  6.183268620E+02  1.250000000E+02  0.00000E+00  9.000E+00
      25     1     1     2     0     0 -1.883567828E+02 -1.449702608E+02  2.876700898E+02  3.935400039E+02  1.250000000E+02  0.00000E+00  9.000E+00
      21     1     1     2   511   501 -5.373724688E+01 -9.636519414E+00  4.005170351E+01  6.771036230E+01  1.348699152E-06  0.00000E+00  9.000E+00
#rwgt            1           1   3.1584610156764018E-002           1      191278           0
</event>
<event>
      5   9999  3.79277E-02  3.69327E+01 -1.00000E+00  1.47022E-01
      21    -1     0     0   502   501  0.000000000E+00  0.000000000E+00  5.238655856E+01  5.238655856E+01  0.000000000E+00  0.00000E+00  9.000E+00
      21    -1     0     0   512   502  0.000000000E+00  0.000000000E+00 -1.502245025E+03  1.502245025E+03  0.000000000E+00  0.00000E+00  9.000E+00
      25     1     1     2     0     0 -4.413783757E+01 -1.201258933E+02 -1.603689478E+02  2.402531547E+02  1.250000000E+02  0.00000E+00  9.000E+00
      25     1     1     2     0     0  4.921270045E+01  8.354347996E+01 -5.090385189E+02  5.330540466E+02  1.250000000E+02  0.00000E+00  9.000E+00
      21     1     1     2   512   501 -5.074862877E+00  3.658241329E+01 -7.804510003E+02  7.813243827E+02  1.078959322E-05  0.00000E+00  9.000E+00
#rwgt            1           1   4.2579920994001062E-002           1      191594           0
</event>
<event>
      5   9999  3.79277E-02  4.83613E+01 -1.00000E+00  1.39906E-01
      21    -1     0     0   502   501  0.000000000E+00  0.000000000E+00  3.240215011E+02  3.240215011E+02  0.000000000E+00  0.00000E+00  9.000E+00
      21    -1     0     0   501   511  0.000000000E+00  0.000000000E+00 -4.635118151E+02  4.635118151E+02  0.000000000E+00  0.00000E+00  9.000E+00
      25     1     1     2     0     0 -6.674400077E+01  3.067684267E+01 -3.416225336E+02  3.711155963E+02  1.250000000E+02  0.00000E+00  9.000E+00
      25     1     1     2     0     0  3.009354755E+01 -6.222932615E+01  2.859542684E+02  3.196450441E+02  1.250000000E+02  0.00000E+00  9.000E+00
      21     1     1     2   502   511  3.665045323E+01  3.155248347E+01 -8.382204871E+01  9.677267582E+01  9.536743164E-07  0.00000E+00  9.000E+00
#rwgt            1           1   4.6146336963044599E-002           1      191736           0
</event>
<event>
      5   9999  3.79277E-02  8.68521E+01 -1.00000E+00  1.26645E-01
      21    -1     0     0   502   501  0.000000000E+00  0.000000000E+00  6.850391539E+01  6.850391539E+01  0.000000000E+00  0.00000E+00  9.000E+00
      21    -1     0     0   512   502  0.000000000E+00  0.000000000E+00 -1.249518057E+03  1.249518057E+03  0.000000000E+00  0.00000E+00  9.000E+00
      25     1     1     2     0     0  1.635437319E+02 -5.339992129E+00 -5.020541762E+02  5.426402709E+02  1.250000000E+02  0.00000E+00  9.000E+00
      25     1     1     2     0     0 -2.143025585E+02 -6.513575285E+01 -3.425510345E+02  4.279421271E+02  1.250000000E+02  0.00000E+00  9.000E+00
      21     1     1     2   512   501  5.075882662E+01  7.047574498E+01 -3.364089312E+02  3.474395748E+02  3.814697266E-06  0.00000E+00  9.000E+00
#rwgt            1           1   1.4472469704608708E-002           1      191866           0
</event>
<event>
      5   9999  3.79277E-02  3.66010E+01 -1.00000E+00  1.47273E-01
      21    -1     0     0   502   501  0.000000000E+00  0.000000000E+00  6.261109620E+02  6.261109620E+02  0.000000000E+00  0.00000E+00  9.000E+00
      21    -1     0     0   511   502  0.000000000E+00  0.000000000E+00 -7.891971018E+01  7.891971018E+01  0.000000000E+00  0.00000E+00  9.000E+00
      25     1     1     2     0     0  5.182753783E+01 -8.895530745E+01  7.860509298E+01  1.800080583E+02  1.250000000E+02  0.00000E+00  9.000E+00
      25     1     1     2     0     0 -6.284547373E+01  1.238585455E+02  4.417296193E+02  4.796254261E+02  1.250000000E+02  0.00000E+00  9.000E+00
      21     1     1     2   511   501  1.101793590E+01 -3.490323807E+01  2.685653958E+01  4.539718777E+01  8.259061849E-07  0.00000E+00  9.000E+00
#rwgt            1           1   4.3100515887053728E-002           1      192155           0
</event>
<event>
      5   9999  3.79277E-02  1.40327E+02 -1.00000E+00  1.17553E-01
      21    -1     0     0   502   501  0.000000000E+00  0.000000000E+00  1.059908198E+02  1.059908198E+02  0.000000000E+00  0.00000E+00  9.000E+00
      21    -1     0     0   501   512  0.000000000E+00  0.000000000E+00 -1.916963090E+03  1.916963090E+03  0.000000000E+00  0.00000E+00  9.000E+00
      25     1     1     2     0     0  3.332764616E+01  1.546905827E+02 -2.287791852E+01  2.029490269E+02  1.250000000E+02  0.00000E+00  9.000E+00
      25     1     1     2     0     0  1.017049032E+02 -1.165091094E+02 -1.022839122E+03  1.041989985E+03  1.250000000E+02  0.00000E+00  9.000E+00
      21     1     1     2   502   512 -1.350325494E+02 -3.818147325E+01 -7.652552302E+02  7.780148981E+02  0.000000000E+00  0.00000E+00  9.000E+00
#rwgt            2          11   1.1681490283790492E-003           1      192603           0
</event>
<event>
      5   9999  3.79277E-02  1.88494E+01 -1.00000E+00  1.68521E-01
      21    -1     0     0   502   501  0.000000000E+00  0.000000000E+00  1.292806595E+03  1.292806595E+03  0.000000000E+00  0.00000E+00  9.000E+00
      21    -1     0     0   501   511  0.000000000E+00  0.000000000E+00 -3.489840782E+01  3.489840782E+01  0.000000000E+00  0.00000E+00  9.000E+00
      25     1     1     2     0     0  1.456887540E+02 -1.893618889E+01  6.357079183E+02  6.643292479E+02  1.250000000E+02  0.00000E+00  9.000E+00
      25     1     1     2     0     0 -1.642983002E+02  2.193352420E+01  5.958232733E+02  6.309559286E+02  1.250000000E+02  0.00000E+00  9.000E+00
      21     1     1     2   502   511  1.860954619E+01 -2.997335306E+00  2.637699516E+01  3.241982576E+01  6.743495762E-07  0.00000E+00  9.000E+00
#rwgt            1           1   4.3295859023882569E-002           1      192623           0
</event>
<event>
      5   9999 -3.79277E-02  7.96181E+01 -1.00000E+00  1.28450E-01
       2    -1     0     0   502     0  0.000000000E+00  0.000000000E+00  1.292652044E+03  1.292652044E+03  0.000000000E+00  0.00000E+00  9.000E+00
      21    -1     0     0   501   502  0.000000000E+00  0.000000000E+00 -3.798701608E+01  3.798701608E+01  0.000000000E+00  0.00000E+00  9.000E+00
      25     1     1     2     0     0 -1.127127682E+02 -7.313188168E+01  5.662790396E+02  5.952725350E+02  1.250000000E+02  0.00000E+00  9.000E+00
      25     1     1     2     0     0  1.280312111E+02 -4.998682101E+00  4.790560554E+02  5.114065722E+02  1.250000000E+02  0.00000E+00  9.000E+00
       2     1     1     2   501     0 -1.531844283E+01  7.813056378E+01  2.093299326E+02  2.239599526E+02  3.814697266E-06  0.00000E+00  9.000E+00
#rwgt            1           1  -4.3431677429283236E-002           1      192773           0
</event>
<event>
      5   9999  3.79277E-02  7.10127E+01 -1.00000E+00  1.30906E-01
      21    -1     0     0   502   511  0.000000000E+00  0.000000000E+00  8.543077142E+01  8.543077142E+01  0.000000000E+00  0.00000E+00  9.000E+00
      21    -1     0     0   501   502  0.000000000E+00  0.000000000E+00 -1.773280360E+03  1.773280360E+03  0.000000000E+00  0.00000E+00  9.000E+00
      25     1     1     2     0     0  5.098502952E+01 -6.499859124E+01 -1.348834999E+03  1.357131219E+03  1.250000000E+02  0.00000E+00  9.000E+00
      25     1     1     2     0     0 -8.537152940E+01  2.866740996E+00 -3.872105389E+02  4.157565606E+02  1.250000000E+02  0.00000E+00  9.000E+00
      21     1     1     2   501   511  3.438649988E+01  6.213185024E+01  4.819594955E+01  8.582335196E+01  3.932099939E-06  0.00000E+00  9.000E+00
#rwgt            1           1  0.14536690935878940                1      192921           0
</event>
<event>
      5   9999  3.79277E-02  2.98464E+01 -1.00000E+00  1.53195E-01
      21    -1     0     0   502   501  0.000000000E+00  0.000000000E+00  9.401021982E+02  9.401021982E+02  0.000000000E+00  0.00000E+00  9.000E+00
      21    -1     0     0   501   512  0.000000000E+00  0.000000000E+00 -8.725554264E+01  8.725554264E+01  0.000000000E+00  0.00000E+00  9.000E+00
      25     1     1     2     0     0 -1.889082433E+02  4.364156477E+01  1.652621335E+02  2.837736481E+02  1.250000000E+02  0.00000E+00  9.000E+00
      25     1     1     2     0     0  1.594717519E+02 -4.857094806E+01  6.821294887E+02  7.132433077E+02  1.250000000E+02  0.00000E+00  9.000E+00
      21     1     1     2   502   512  2.943649145E+01  4.929383286E+00  5.455033373E+00  3.034078505E+01  1.460009660E-07  0.00000E+00  9.000E+00
#rwgt            1           1   3.9054480477848152E-002           1      193003           0
</event>
<event>
      5   9999  3.79277E-02  6.82576E+00 -1.00000E+00  2.17113E-01
      21    -1     0     0   511   501  0.000000000E+00  0.000000000E+00  6.003785383E+02  6.003785383E+02  0.000000000E+00  0.00000E+00  9.000E+00
      21    -1     0     0   501   502  0.000000000E+00  0.000000000E+00 -5.721931413E+01  5.721931413E+01  0.000000000E+00  0.00000E+00  9.000E+00
      25     1     1     2     0     0 -7.097176230E+01  7.538296217E+01  3.099347064E+02  3.498629793E+02  1.250000000E+02  0.00000E+00  9.000E+00
      25     1     1     2     0     0  7.727356656E+01 -7.800561458E+01  1.493303581E+02  2.235634940E+02  1.250000000E+02  0.00000E+00  9.000E+00
      21     1     1     2   511   502 -6.301804256E+00  2.622652411E+00  8.389415968E+01  8.417137917E+01  9.536743164E-07  0.00000E+00  9.000E+00
#rwgt            1           1   6.2007553581843164E-002           1      193205           0
</event>
<event>
      5   9999  3.79277E-02  4.09962E+01 -1.00000E+00  1.44181E-01
      21    -1     0     0   512   501  0.000000000E+00  0.000000000E+00  1.327123378E+03  1.327123378E+03  0.000000000E+00  0.00000E+00  9.000E+00
      21    -1     0     0   501   502  0.000000000E+00  0.000000000E+00 -1.729113899E+02  1.729113899E+02  0.000000000E+00  0.00000E+00  9.000E+00
      25     1     1     2     0     0 -1.241936865E+02 -1.206636294E+02 -4.920164085E+00  2.136187989E+02  1.250000000E+02  0.00000E+00  9.000E+00
      25     1     1     2     0     0  1.126753642E+02  8.131873491E+01  7.481249961E+01  2.013215946E+02  1.250000000E+02  0.00000E+00  9.000E+00
      21     1     1     2   512   502  1.151832228E+01  3.934489450E+01  1.084319652E+03  1.085094374E+03  0.000000000E+00  0.00000E+00  9.000E+00
#rwgt            1           1   3.7806778781739624E-002           1      193532           0
</event>
<event>
      5   9999  3.79277E-02  3.46998E+01 -1.00000E+00  1.48776E-01
      21    -1     0     0   502   501  0.000000000E+00  0.000000000E+00  4.405375162E+02  4.405375162E+02  0.000000000E+00  0.00000E+00  9.000E+00
      -3    -1     0     0     0   502  0.000000000E+00  0.000000000E+00 -1.984009202E+02  1.984009202E+02  0.000000000E+00  0.00000E+00  9.000E+00
      25     1     1     2     0     0 -1.868683864E+02 -1.661706691E+02  1.551133621E+02  3.197149359E+02  1.250000000E+02  0.00000E+00  9.000E+00
      25     1     1     2     0     0  1.647743342E+02  1.394138505E+02  1.149929733E+02  2.746546683E+02  1.250000000E+02  0.00000E+00  9.000E+00
      -3     1     1     2     0   501  2.209405227E+01  2.675681852E+01 -2.796973940E+01  4.456883221E+01  6.743495762E-07  0.00000E+00  9.000E+00
#rwgt            1           1   2.9140518243197671E-002           1      193654           0
</event>
<event>
      5   9999  3.79277E-02  1.63503E+02 -1.00000E+00  1.14929E-01
      21    -1     0     0   502   511  0.000000000E+00  0.000000000E+00  3.709391132E+02  3.709391132E+02  0.000000000E+00  0.00000E+00  9.000E+00
      21    -1     0     0   501   502  0.000000000E+00  0.000000000E+00 -4.898600200E+02  4.898600200E+02  0.000000000E+00  0.00000E+00  9.000E+00
      25     1     1     2     0     0  2.235642595E+02  3.030451905E+00 -1.848541703E+02  3.158895789E+02  1.250000000E+02  0.00000E+00  9.000E+00
      25     1     1     2     0     0 -7.057964028E+01  5.466573857E+01 -1.880728864E+02  2.428296506E+02  1.250000000E+02  0.00000E+00  9.000E+00
      21     1     1     2   501   511 -1.529846192E+02 -5.769619047E+01  2.540061499E+02  3.020799038E+02  2.697398305E-06  0.00000E+00  9.000E+00
#rwgt            1           1   3.1526598077555860E-002           1      193771           0
</event>
<event>
      5   9999  3.79277E-02  4.40957E+01 -1.00000E+00  1.42263E-01
      21    -1     0     0   502   501  0.000000000E+00  0.000000000E+00  3.836199794E+02  3.836199794E+02  0.000000000E+00  0.00000E+00  9.000E+00
      21    -1     0     0   512   502  0.000000000E+00  0.000000000E+00 -1.048566778E+02  1.048566778E+02  0.000000000E+00  0.00000E+00  9.000E+00
      25     1     1     2     0     0  4.534760790E+01  5.864315395E+01  2.340432813E+02  2.754935255E+02  1.250000000E+02  0.00000E+00  9.000E+00
      25     1     1     2     0     0 -8.742295989E+01 -4.544869020E+01  1.513559795E+01  1.598825934E+02  1.250000000E+02  0.00000E+00  9.000E+00
      21     1     1     2   512   501  4.207535200E+01 -1.319446375E+01  2.958442230E+01  5.310053824E+01  7.539457465E-07  0.00000E+00  9.000E+00
#rwgt            1           1   2.6721427635867781E-002           1      193852           0
</event>
<event>
      5   9999 -3.79277E-02  4.76454E+01 -1.00000E+00  1.40281E-01
      21    -1     0     0   511   501  0.000000000E+00  0.000000000E+00  4.919433153E+02  4.919433153E+02  0.000000000E+00  0.00000E+00  9.000E+00
      21    -1     0     0   501   502  0.000000000E+00  0.000000000E+00 -8.512186859E+01  8.512186859E+01  0.000000000E+00  0.00000E+00  9.000E+00
      25     1     1     2     0     0 -1.369288095E+02 -1.971369623E+01  1.842676530E+02  2.621406047E+02  1.250000000E+02  0.00000E+00  9.000E+00
      25     1     1     2     0     0  8.941083604E+01  2.319644519E+01  1.036157113E+02  1.867982556E+02  1.250000000E+02  0.00000E+00  9.000E+00
      21     1     1     2   511   502  4.751797348E+01 -3.482748962E+00  1.189380825E+02  1.281263236E+02  2.336015456E-06  0.00000E+00  9.000E+00
#rwgt            1           1  -2.6904290007639237E-002           1      194061           0
</event>
<event>
      5   9999  3.79277E-02  2.95275E+01 -1.00000E+00  1.53520E-01
      21    -1     0     0   512   501  0.000000000E+00  0.000000000E+00  9.255460749E+01  9.255460749E+01  0.000000000E+00  0.00000E+00  9.000E+00
      21    -1     0     0   501   502  0.000000000E+00  0.000000000E+00 -7.845250956E+02  7.845250956E+02  0.000000000E+00  0.00000E+00  9.000E+00
      25     1     1     2     0     0 -1.979647808E+02  8.642437688E+01 -3.289970183E+02  4.129446276E+02  1.250000000E+02  0.00000E+00  9.000E+00
      25     1     1     2     0     0  1.909699196E+02 -5.773736525E+01 -3.652147521E+02  4.345226446E+02  1.250000000E+02  0.00000E+00  9.000E+00
      21     1     1     2   512   502  6.994861244E+00 -2.868701163E+01  2.241282275E+00  2.961243094E+01  3.526258339E-07  0.00000E+00  9.000E+00
#rwgt            1           1   3.3964640062259611E-002           1      194137           0
</event>
<event>
      5   9999  3.79277E-02  8.93952E+01 -1.00000E+00  1.26058E-01
      21    -1     0     0   502   501  0.000000000E+00  0.000000000E+00  2.777343668E+02  2.777343668E+02  0.000000000E+00  0.00000E+00  9.000E+00
      21    -1     0     0   501   511  0.000000000E+00  0.000000000E+00 -2.693291531E+02  2.693291531E+02  0.000000000E+00  0.00000E+00  9.000E+00
      25     1     1     2     0     0  2.261651341E+02  6.057921990E+00 -1.786505601E+01  2.590975232E+02  1.250000000E+02  0.00000E+00  9.000E+00
      25     1     1     2     0     0 -1.381087968E+02  9.355869131E+00  5.434197101E+01  1.942668830E+02  1.250000000E+02  0.00000E+00  9.000E+00
      21     1     1     2   502   511 -8.805633731E+01 -1.541379112E+01 -2.807170125E+01  9.369911370E+01  1.685873940E-06  0.00000E+00  9.000E+00
#rwgt            2          11   2.6929919180925326E-003           1      194352           0
</event>
<event>
      5   9999  3.79277E-02  4.01935E+01 -1.00000E+00  1.44710E-01
      21    -1     0     0   512   501  0.000000000E+00  0.000000000E+00  7.414874757E+01  7.414874757E+01  0.000000000E+00  0.00000E+00  9.000E+00
      21    -1     0     0   501   502  0.000000000E+00  0.000000000E+00 -5.953685827E+02  5.953685827E+02  0.000000000E+00  0.00000E+00  9.000E+00
      25     1     1     2     0     0  7.623158466E+01 -3.953534130E+01 -3.695093219E+02  3.994201255E+02  1.250000000E+02  0.00000E+00  9.000E+00
      25     1     1     2     0     0 -1.111141309E+02  5.950350397E+01 -1.452920758E+02  2.293944297E+02  1.250000000E+02  0.00000E+00  9.000E+00
      21     1     1     2   512   502  3.488254628E+01 -1.996816267E+01 -6.418437390E+00  4.070277501E+01  4.460403188E-07  0.00000E+00  9.000E+00
#rwgt            1           1   4.0542315078955019E-002           1      194597           0
</event>
<event>
      5   9999 -5.84037E-02  3.41717E+01 -1.00000E+00  1.49213E-01
      21    -1     0     0   502   511  0.000000000E+00  0.000000000E+00  3.985193504E+02  3.985193504E+02  0.000000000E+00  0.00000E+00  9.000E+00
      21    -1     0     0   501   502  0.000000000E+00  0.000000000E+00 -8.630069417E+02  8.630069417E+02  0.000000000E+00  0.00000E+00  9.000E+00
      25     1     1     2     0     0 -7.288008533E+01 -2.010961502E+02 -5.074241766E+02  5.646728818E+02  1.250000000E+02  0.00000E+00  9.000E+00
      25     1     1     2     0     0  4.035123699E+01  1.906280925E+02 -2.849810846E+02  3.671600612E+02  1.250000000E+02  0.00000E+00  9.000E+00
      21     1     1     2   501   511  3.252884834E+01  1.046805765E+01  3.279176699E+02  3.296933491E+02  3.814697266E-06  0.00000E+00  9.000E+00
#rwgt            1           1 -0.61233509305075773                1      194718           0
</event>
<event>
      5   9999  3.79277E-02  4.60341E+01 -1.00000E+00  1.41155E-01
      21    -1     0     0   502   501  0.000000000E+00  0.000000000E+00  1.252588523E+03  1.252588523E+03  0.000000000E+00  0.00000E+00  9.000E+00
      21    -1     0     0   501   512  0.000000000E+00  0.000000000E+00 -7.765653804E+01  7.765653804E+01  0.000000000E+00  0.00000E+00  9.000E+00
      25     1     1     2     0     0 -7.668071813E+01  1.040672753E+02  1.030718955E+03  1.046287004E+03  1.250000000E+02  0.00000E+00  9.000E+00
      25     1     1     2     0     0  1.175005862E+02 -8.278630767E+01  1.425053258E+02  2.378922621E+02  1.250000000E+02  0.00000E+00  9.000E+00
      21     1     1     2   502   512 -4.081986806E+01 -2.128096760E+01  1.707704069E+00  4.606579494E+01  9.750871747E-07  0.00000E+00  9.000E+00
#rwgt            1           1   3.9325112461309104E-002           1      194944           0
</event>
<event>
      5   9999  3.79277E-02  7.22338E+01 -1.00000E+00  1.30533E-01
      21    -1     0     0   502   501  0.000000000E+00  0.000000000E+00  3.517642477E+02  3.517642477E+02  0.000000000E+00  0.00000E+00  9.000E+00
      21    -1     0     0   501   511  0.000000000E+00  0.000000000E+00 -4.634664362E+02  4.634664362E+02  0.000000000E+00  0.00000E+00  9.000E+00
      25     1     1     2     0     0 -3.545493577E+01 -2.901124094E+01 -6.461285299E+01  1.479815034E+02  1.250000000E+02  0.00000E+00  9.000E+00
      25     1     1     2     0     0  1.053937389E+02  4.707458226E+01  2.825309796E+02  3.298069298E+02  1.250000000E+02  0.00000E+00  9.000E+00
      21     1     1     2   502   511 -6.993880310E+01 -1.806334132E+01 -3.296203151E+02  3.374422508E+02  3.814697266E-06  0.00000E+00  9.000E+00
#rwgt            1           1   3.1429733699355256E-002           1      195087           0
</event>
<event>
      5   9999  3.79277E-02  3.13369E+01 -1.00000E+00  1.51736E-01
      21    -1     0     0   512   501  0.000000000E+00  0.000000000E+00  3.371599487E+01  3.371599487E+01  0.000000000E+00  0.00000E+00  9.000E+00
      21    -1     0     0   501   502  0.000000000E+00  0.000000000E+00 -1.891018838E+03  1.891018838E+03  0.000000000E+00  0.00000E+00  9.000E+00
      25     1     1     2     0     0 -6.449418444E+01 -1.770000838E+01 -1.777388303E+02  2.273518901E+02  1.250000000E+02  0.00000E+00  9.000E+00
      25     1     1     2     0     0  9.194667770E+01  3.281174710E+01 -1.636264110E+03  1.643933101E+03  1.250000000E+02  0.00000E+00  9.000E+00
      21     1     1     2   512   502 -2.745249325E+01 -1.511173873E+01 -4.329990332E+01  5.344984248E+01  1.261592536E-06  0.00000E+00  9.000E+00
#rwgt            1           1   3.2282746214546694E-002           1      195161           0
</event>
<event>
      5   9999  3.79277E-02  6.76774E+01 -1.00000E+00  1.31967E-01
       2    -1     0     0   502     0  0.000000000E+00  0.000000000E+00  1.258816103E+03  1.258816103E+03  0.000000000E+00  0.00000E+00  9.000E+00
      21    -1     0     0   501   502  0.000000000E+00  0.000000000E+00 -2.685847544E+02  2.685847544E+02  0.000000000E+00  0.00000E+00  9.000E+00
      25     1     1     2     0     0 -2.511532838E+02  1.055461186E+02 -8.646915823E+01  3.119613285E+02  1.250000000E+02  0.00000E+00  9.000E+00
      25     1     1     2     0     0  1.962532414E+02 -6.597062493E+01  1.464631238E+02  2.827435317E+02  1.250000000E+02  0.00000E+00  9.000E+00
       2     1     1     2   501     0  5.490004248E+01 -3.957549371E+01  9.302373830E+02  9.326959971E+02  1.078959322E-05  0.00000E+00  9.000E+00
#rwgt            1           1   3.8440273845587160E-002           1      195349           0
</event>
<event>
      5   9999  3.79277E-02  5.30424E+01 -1.00000E+00  1.37627E-01
      21    -1     0     0   502   501  0.000000000E+00  0.000000000E+00  4.169264933E+02  4.169264933E+02  0.000000000E+00  0.00000E+00  9.000E+00
      21    -1     0     0   511   502  0.000000000E+00  0.000000000E+00 -2.038808863E+02  2.038808863E+02  0.000000000E+00  0.00000E+00  9.000E+00
      25     1     1     2     0     0  4.083086980E+01 -1.247954232E+02  2.899976831E+02  3.420010436E+02  1.250000000E+02  0.00000E+00  9.000E+00
      25     1     1     2     0     0 -2.006556693E+01  1.736042652E+02 -6.426265941E+01  2.242671560E+02  1.250000000E+02  0.00000E+00  9.000E+00
      21     1     1     2   511   501 -2.076530287E+01 -4.880884199E+01 -1.268941670E+01  5.453918001E+01  1.685873940E-07  0.00000E+00  9.000E+00
#rwgt            1           1  0.14012730509415189                1      195433           0
</event>
<event>
      5   9999  3.79277E-02  7.17308E+01 -1.00000E+00  1.30686E-01
      21    -1     0     0   502   501  0.000000000E+00  0.000000000E+00  6.927200068E+02  6.927200068E+02  0.000000000E+00  0.00000E+00  9.000E+00
      21    -1     0     0   501   512  0.000000000E+00  0.000000000E+00 -4.217986536E+02  4.217986536E+02  0.000000000E+00  0.00000E+00  9.000E+00
      25     1     1     2     0     0  1.334623337E+02 -1.480138383E+02  3.816741535E+02  4.483530420E+02  1.250000000E+02  0.00000E+00  9.000E+00
      25     1     1     2     0     0 -1.878789203E+02  1.012789584E+02  2.179841355E+02  3.296937965E+02  1.250000000E+02  0.00000E+00  9.000E+00
      21     1     1     2   502   512  5.441658659E+01  4.673487989E+01 -3.287369358E+02  3.364718218E+02  6.607249480E-06  0.00000E+00  9.000E+00
#rwgt            1           1  0.11900798165999989                1      195739           0
</event>
<event>
      5   9999  3.79277E-02  2.32006E+02 -1.00000E+00  1.09350E-01
      21    -1     0     0   502   501  0.000000000E+00  0.000000000E+00  1.819251303E+03  1.819251303E+03  0.000000000E+00  0.00000E+00  9.000E+00
      21    -1     0     0   501   511  0.000000000E+00  0.000000000E+00 -2.975701190E+02  2.975701190E+02  0.000000000E+00  0.00000E+00  9.000E+00
      25     1     1     2     0     0  2.194398467E+02  5.798771954E+02  1.273059265E+03  1.421519012E+03  1.250000000E+02  0.00000E+00  9.000E+00
      25     1     1     2     0     0 -1.032217976E+02 -3.790779299E+02  1.170254907E+02  4.285729598E+02  1.250000000E+02  0.00000E+00  9.000E+00
      21     1     1     2   502   511 -1.162180491E+02 -2.007992655E+02  1.315964286E+02  2.667294509E+02  3.303624740E-06  0.00000E+00  9.000E+00
#rwgt            1           1   4.3565094446737319E-002           1      195805           0
</event>
<event>
      5   9999  3.79277E-02  7.01116E+01 -1.00000E+00  1.31186E-01
      21    -1     0     0   512   501  0.000000000E+00  0.000000000E+00  3.743440354E+02  3.743440354E+02  0.000000000E+00  0.00000E+00  9.000E+00
      21    -1     0     0   501   502  0.000000000E+00  0.000000000E+00 -1.565446784E+02  1.565446784E+02  0.000000000E+00  0.00000E+00  9.000E+00
      25     1     1     2     0     0 -1.055606385E+02 -1.137227783E+02  7.283906404E+01  2.121472318E+02  1.250000000E+02  0.00000E+00  9.000E+00
      25     1     1     2     0     0  1.587253334E+02  6.801560731E+01  1.001297166E+02  2.355224288E+02  1.250000000E+02  0.00000E+00  9.000E+00
      21     1     1     2   512   502 -5.316469485E+01  4.570717101E+01  4.483057629E+01  8.321905328E+01  1.348699152E-06  0.00000E+00  9.000E+00
#rwgt            1           1   4.3949302205122352E-002           1      195910           0
</event>
<event>
      5   9999  3.79277E-02  5.79236E+01 -1.00000E+00  1.35526E-01
      21    -1     0     0   502   501  0.000000000E+00  0.000000000E+00  4.126957230E+02  4.126957230E+02  0.000000000E+00  0.00000E+00  9.000E+00
      21    -1     0     0   511   502  0.000000000E+00  0.000000000E+00 -7.997052440E+02  7.997052440E+02  0.000000000E+00  0.00000E+00  9.000E+00
      25     1     1     2     0     0  2.148844796E+02  7.315631539E+01 -1.298473912E+02  2.898491522E+02  1.250000000E+02  0.00000E+00  9.000E+00
      25     1     1     2     0     0 -2.636422176E+02 -1.044266155E+02  2.585539873E+02  4.035929896E+02  1.250000000E+02  0.00000E+00  9.000E+00
      21     1     1     2   511   501  4.875773803E+01  3.127030008E+01 -5.157161171E+02  5.189588251E+02  7.629394531E-06  0.00000E+00  9.000E+00
#rwgt            1           1   5.4268030261872761E-002           1      196010           0
</event>
<event>
      5   9999 -3.79277E-02  2.00809E+02 -1.00000E+00  1.11584E-01
      21    -1     0     0   502   501  0.000000000E+00  0.000000000E+00  2.016902654E+02  2.016902654E+02  0.000000000E+00  0.00000E+00  9.000E+00
       3    -1     0     0   501     0  0.000000000E+00  0.000000000E+00 -7.352834119E+02  7.352834119E+02  0.000000000E+00  0.00000E+00  9.000E+00
      25     1     1     2     0     0 -2.683185560E+01  1.626759599E+02 -2.061397602E+02  2.920650906E+02  1.250000000E+02  0.00000E+00  9.000E+00
      25     1     1     2     0     0 -1.739519786E+02 -1.658459742E+02 -1.225872986E+01  2.711815895E+02  1.250000000E+02  0.00000E+00  9.000E+00
       3     1     1     2   502     0  2.007838342E+02  3.170014271E+00 -3.151946564E+02  3.737269972E+02  3.814697266E-06  0.00000E+00  9.000E+00
#rwgt            1           1  -3.3247460345726960E-002           1      196070           0
</event>
<event>
      5   9999  3.79277E-02  3.39296E+01 -1.00000E+00  1.49417E-01
      21    -1     0     0   511   501  0.000000000E+00  0.000000000E+00  2.212343633E+02  2.212343633E+02  0.000000000E+00  0.00000E+00  9.000E+00
      21    -1     0     0   501   502  0.000000000E+00  0.000000000E+00 -5.694589073E+02  5.694589073E+02  0.000000000E+00  0.00000E+00  9.000E+00
      25     1     1     2     0     0  3.247799635E+01 -1.146829631E+02 -5.082579300E+02  5.368036192E+02  1.250000000E+02  0.00000E+00  9.000E+00
      25     1     1     2     0     0  2.073756984E-03  1.048716826E+02  1.332783466E+02  2.106802968E+02  1.250000000E+02  0.00000E+00  9.000E+00
      21     1     1     2   511   502 -3.248007010E+01  9.811280543E+00  2.675503935E+01  4.320935443E+01  6.743495762E-07  0.00000E+00  9.000E+00
#rwgt            1           1   4.7166055648684348E-002           1      196133           0
</event>
<event>
      5   9999 -3.79277E-02  1.04916E+01 -1.00000E+00  1.93379E-01
      21    -1     0     0   502   501  0.000000000E+00  0.000000000E+00  3.259164112E+02  3.259164112E+02  0.000000000E+00  0.00000E+00  9.000E+00
      21    -1     0     0   512   502  0.000000000E+00  0.000000000E+00 -3.576817620E+02  3.576817620E+02  0.000000000E+00  0.00000E+00  9.000E+00
      25     1     1     2     0     0 -1.441729526E+02  4.026170265E+01  9.774345496E+01  2.181413027E+02  1.250000000E+02  0.00000E+00  9.000E+00
      25     1     1     2     0     0  1.546071059E+02 -3.916572199E+01  1.067011208E+02  2.290140610E+02  1.250000000E+02  0.00000E+00  9.000E+00
      21     1     1     2   512   501 -1.043415328E+01 -1.095980664E+00 -2.362099266E+02  2.364428094E+02  4.672030912E-06  0.00000E+00  9.000E+00
#rwgt            1           1 -0.11480211669961723                1      196380           0
</event>
<event>
      5   9999  3.79277E-02  7.54943E+00 -1.00000E+00  2.11018E-01
      21    -1     0     0   502   501  0.000000000E+00  0.000000000E+00  6.421860184E+02  6.421860184E+02  0.000000000E+00  0.00000E+00  9.000E+00
      21    -1     0     0   511   502  0.000000000E+00  0.000000000E+00 -4.216267525E+01  4.216267525E+01  0.000000000E+00  0.00000E+00  9.000E+00
      25     1     1     2     0     0  1.494788308E+01 -5.990604037E+01  4.619578288E+02  4.825372612E+02  1.250000000E+02  0.00000E+00  9.000E+00
      25     1     1     2     0     0 -7.634705842E+00  6.177988785E+01  1.308210484E+02  1.913483472E+02  1.250000000E+02  0.00000E+00  9.000E+00
      21     1     1     2   511   501 -7.313177242E+00 -1.873847473E+00  7.244466060E+00  1.046308531E+01  1.192092896E-07  0.00000E+00  9.000E+00
#rwgt            1           1   5.9598000565058630E-002           1      196564           0
</event>
<event>
      5   9999  3.79277E-02  3.11195E+01 -1.00000E+00  1.51943E-01
      21    -1     0     0   502   501  0.000000000E+00  0.000000000E+00  9.675648255E+02  9.675648255E+02  0.000000000E+00  0.00000E+00  9.000E+00
      -4    -1     0     0     0   502  0.000000000E+00  0.000000000E+00 -1.594821373E+02  1.594821373E+02  0.000000000E+00  0.00000E+00  9.000E+00
      25     1     1     2     0     0 -1.438217236E+02  6.273991928E+01  4.071519013E+02  4.538927807E+02  1.250000000E+02  0.00000E+00  9.000E+00
      25     1     1     2     0     0  1.472143811E+02 -9.367397606E+01  5.133977353E+02  5.564612497E+02  1.250000000E+02  0.00000E+00  9.000E+00
      -4     1     1     2     0   501 -3.392657595E+00  3.093405678E+01 -1.124669484E+02  1.166929324E+02  2.336015456E-06  0.00000E+00  9.000E+00
#rwgt            1           1   3.3834664913664429E-002           1      196849           0
</event>
<event>
      5   9999  3.79277E-02  5.31978E+01 -1.00000E+00  1.37557E-01
      21    -1     0     0   502   511  0.000000000E+00  0.000000000E+00  1.097828080E+02  1.097828080E+02  0.000000000E+00  0.00000E+00  9.000E+00
      21    -1     0     0   501   502  0.000000000E+00  0.000000000E+00 -4.326969243E+02  4.326969243E+02  0.000000000E+00  0.00000E+00  9.000E+00
      25     1     1     2     0     0  9.111903993E+01  1.108730175E+02 -2.296726284E+02  2.982784298E+02  1.250000000E+02  0.00000E+00  9.000E+00
      25     1     1     2     0     0 -8.541612842E+01 -5.798174029E+01 -1.001462125E+02  1.905572383E+02  1.250000000E+02  0.00000E+00  9.000E+00
      21     1     1     2   501   511 -5.702911512E+00 -5.289127717E+01  6.904724582E+00  5.364406418E+01  3.576278687E-07  0.00000E+00  9.000E+00
#rwgt            1           1   3.4330625005234247E-002           1      197216           0
</event>
<event>
      5   9999  3.79277E-02  6.87338E+01 -1.00000E+00  1.31623E-01
      21    -1     0     0   502   501  0.000000000E+00  0.000000000E+00  3.352054971E+02  3.352054971E+02  0.000000000E+00  0.00000E+00  9.000E+00
      21    -1     0     0   501   512  0.000000000E+00  0.000000000E+00 -2.428443132E+02  2.428443132E+02  0.000000000E+00  0.00000E+00  9.000E+00
      25     1     1     2     0     0  3.821429303E+01  8.888556143E+01 -5.146952752E+01  1.662380446E+02  1.250000000E+02  0.00000E+00  9.000E+00
      25     1     1     2     0     0 -3.915082839E+01 -2.015809778E+01  2.513792722E+02  2.841754296E+02  1.250000000E+02  0.00000E+00  9.000E+00
      21     1     1     2   502   512  9.365353574E-01 -6.872746365E+01 -1.075485608E+02  1.276363360E+02  1.348699152E-06  0.00000E+00  9.000E+00
#rwgt            1           1   3.7923422729480176E-002           1      197302           0
</event>
<event>
      5   9999  3.79277E-02  1.43230E+01 -1.00000E+00  1.79294E-01
      21    -1     0     0   511   501  0.000000000E+00  0.000000000E+00  6.311766294E+02  6.311766294E+02  0.000000000E+00  0.00000E+00  9.000E+00
      21    -1     0     0   501   502  0.000000000E+00  0.000000000E+00 -7.890276869E+01  7.890276869E+01  0.000000000E+00  0.00000E+00  9.000E+00
      25     1     1     2     0     0 -8.477261523E+01 -5.114854657E+01  2.765743391E+02  3.192505836E+02  1.250000000E+02  0.00000E+00  9.000E+00
      25     1     1     2     0     0  8.796294968E+01  3.718537102E+01  5.055659641E+01  1.652307531E+02  1.250000000E+02  0.00000E+00  9.000E+00
      21     1     1     2   511   502 -3.190334449E+00  1.396317555E+01  2.251429252E+02  2.255980613E+02  2.697398305E-06  0.00000E+00  9.000E+00
#rwgt            1           1   3.8957628257868852E-002           1      197467           0
</event>
<event>
      5   9999  3.79277E-02  1.82608E+02 -1.00000E+00  1.13106E-01
      21    -1     0     0   502   512  0.000000000E+00  0.000000000E+00  4.184377254E+02  4.184377254E+02  0.000000000E+00  0.00000E+00  9.000E+00
      21    -1     0     0   501   502  0.000000000E+00  0.000000000E+00 -3.260141168E+02  3.260141168E+02  0.000000000E+00  0.00000E+00  9.000E+00
      25     1     1     2     0     0 -8.566335729E+01 -6.392162410E+01 -1.853790086E+02  2.478196151E+02  1.250000000E+02  0.00000E+00  9.000E+00
      25     1     1     2     0     0  1.627400093E+02 -1.016228229E+02  1.590334606E+02  2.787976871E+02  1.250000000E+02  0.00000E+00  9.000E+00
      21     1     1     2   501   512 -7.707665200E+01  1.655444470E+02  1.187691567E+02  2.178345399E+02  3.303624740E-06  0.00000E+00  9.000E+00
#rwgt            1           1   3.8215962888398902E-002           1      197629           0
</event>
<event>
      5   9999  3.79277E-02  1.07691E+01 -1.00000E+00  1.92109E-01
      21    -1     0     0   511   501  0.000000000E+00  0.000000000E+00  5.158611070E+02  5.158611070E+02  0.000000000E+00  0.00000E+00  9.000E+00
      21    -1     0     0   501   502  0.000000000E+00  0.000000000E+00 -1.418452033E+02  1.418452033E+02  0.000000000E+00  0.00000E+00  9.000E+00
      25     1     1     2     0     0  1.346746482E+02  1.303214183E+01 -3.345090224E+01  1.872192844E+02  1.250000000E+02  0.00000E+00  9.000E+00
      25     1     1     2     0     0 -1.369707209E+02 -2.355361611E+01  2.474913717E+02  3.101495289E+02  1.250000000E+02  0.00000E+00  9.000E+00
      21     1     1     2   511   502  2.296072710E+00  1.052147428E+01  1.599754342E+02  1.603374970E+02  1.907348633E-06  0.00000E+00  9.000E+00
#rwgt            1           1   4.4849192034287597E-002           1      197735           0
</event>
<event>
      5   9999  3.79277E-02  4.08958E+02 -1.00000E+00  1.01397E-01
      21    -1     0     0   502   501  0.000000000E+00  0.000000000E+00  8.507968032E+02  8.507968032E+02  0.000000000E+00  0.00000E+00  9.000E+00
      21    -1     0     0   512   502  0.000000000E+00  0.000000000E+00 -7.306267776E+02  7.306267776E+02  0.000000000E+00  0.00000E+00  9.000E+00
      25     1     1     2     0     0 -2.879697577E+01  2.958164272E+02  1.548522551E+02  3.576881957E+02  1.250000000E+02  0.00000E+00  9.000E+00
      25     1     1     2     0     0 -1.719093086E+02  6.050317808E+01  5.022946135E+02  5.487607163E+02  1.250000000E+02  0.00000E+00  9.000E+00
      21     1     1     2   512   501  2.007062844E+02 -3.563196053E+02 -5.369768431E+02  6.749746689E+02  1.078959322E-05  0.00000E+00  9.000E+00
#rwgt            1           1   4.2403460341377902E-002           1      197869           0
</event>
<event>
      5   9999  3.79277E-02  2.63018E+01 -1.00000E+00  1.57117E-01
      21    -1     0     0   511   501  0.000000000E+00  0.000000000E+00  1.849487286E+03  1.849487286E+03  0.000000000E+00  0.00000E+00  9.000E+00
      21    -1     0     0   501   502  0.000000000E+00  0.000000000E+00 -6.596384690E+01  6.596384690E+01  0.000000000E+00  0.00000E+00  9.000E+00
      25     1     1     2     0     0  1.589936053E+02 -1.868476972E+02  3.460072404E+02  4.421957021E+02  1.250000000E+02  0.00000E+00  9.000E+00
      25     1     1     2     0     0 -1.839803227E+02  1.950605690E+02  1.298771230E+03  1.332039449E+03  1.250000000E+02  0.00000E+00  9.000E+00
      21     1     1     2   511   502  2.498671736E+01 -8.212871785E+00  1.387449684E+02  1.412159820E+02  0.000000000E+00  0.00000E+00  9.000E+00
#rwgt            1           1   4.3783057047916712E-002           1      197941           0
</event>
<event>
      5   9999  3.79277E-02  4.84230E+01 -1.00000E+00  1.39874E-01
      21    -1     0     0   512   501  0.000000000E+00  0.000000000E+00  5.947534373E+02  5.947534373E+02  0.000000000E+00  0.00000E+00  9.000E+00
      21    -1     0     0   501   502  0.000000000E+00  0.000000000E+00 -4.455888449E+02  4.455888449E+02  0.000000000E+00  0.00000E+00  9.000E+00
      25     1     1     2     0     0  4.554993321E+01 -1.222948669E+02 -9.226204875E+01  2.028992768E+02  1.250000000E+02  0.00000E+00  9.000E+00
      25     1     1     2     0     0 -7.609275122E+01  1.598704964E+02 -2.572734373E+02  3.363975385E+02  1.250000000E+02  0.00000E+00  9.000E+00
      21     1     1     2   512   502  3.054281801E+01 -3.757562950E+01  4.987000784E+02  5.010454668E+02  7.629394531E-06  0.00000E+00  9.000E+00
#rwgt            1           1   3.2465117979987967E-002           1      198227           0
</event>
<event>
      5   9999 -3.79277E-02  1.38936E+01 -1.00000E+00  1.80577E-01
       2    -1     0     0   502     0  0.000000000E+00  0.000000000E+00  1.285840996E+03  1.285840996E+03  0.000000000E+00  0.00000E+00  9.000E+00
      21    -1     0     0   501   502  0.000000000E+00  0.000000000E+00 -4.824241992E+01  4.824241992E+01  0.000000000E+00  0.00000E+00  9.000E+00
      25     1     1     2     0     0  1.038402187E+02  4.563824029E+01  7.678665274E+02  7.861994937E+02  1.250000000E+02  0.00000E+00  9.000E+00
      25     1     1     2     0     0 -1.102071890E+02 -5.798703130E+01  1.610635019E+02  2.389028504E+02  1.250000000E+02  0.00000E+00  9.000E+00
       2     1     1     2   501     0  6.366970283E+00  1.234879101E+01  3.086685468E+02  3.089810718E+02  3.814697266E-06  0.00000E+00  9.000E+00
#rwgt            1           1  -5.9625887508653337E-002           1      198515           0
</event>
<event>
      5   9999  3.79277E-02  4.99047E+01 -1.00000E+00  1.39123E-01
      21    -1     0     0   502   501  0.000000000E+00  0.000000000E+00  6.315709809E+02  6.315709809E+02  0.000000000E+00  0.00000E+00  9.000E+00
      21    -1     0     0   501   511  0.000000000E+00  0.000000000E+00 -3.633665625E+02  3.633665625E+02  0.000000000E+00  0.00000E+00  9.000E+00
      25     1     1     2     0     0 -1.904738542E+02 -2.966652833E+02  4.225363349E+01  3.764318650E+02  1.250000000E+02  0.00000E+00  9.000E+00
      25     1     1     2     0     0  2.349923846E+02  3.192170074E+02  3.115429044E+02  5.194274732E+02  1.250000000E+02  0.00000E+00  9.000E+00
      21     1     1     2   502   511 -4.451853042E+01 -2.255172406E+01 -8.559211957E+01  9.907820517E+01  1.651812370E-06  0.00000E+00  9.000E+00
#rwgt            1           1   4.2716498254698088E-002           1      198670           0
</event>
<event>
      5   9999  3.79277E-02  6.18958E+01 -1.00000E+00  1.33985E-01
       2    -1     0     0   502     0  0.000000000E+00  0.000000000E+00  1.473072752E+03  1.473072752E+03  0.000000000E+00  0.00000E+00  9.000E+00
      21    -1     0     0   501   502  0.000000000E+00  0.000000000E+00 -6.226923535E+01  6.226923535E+01  0.000000000E+00  0.00000E+00  9.000E+00
      25     1     1     2     0     0  6.055033948E+01 -3.884588833E+01  6.806917453E+01  1.594796513E+02  1.250000000E+02  0.00000E+00  9.000E+00
      25     1     1     2     0     0 -9.244128128E+01  9.189362096E+01  5.136966399E+02  5.445172779E+02  1.250000000E+02  0.00000E+00  9.000E+00
       2     1     1     2   501     0  3.189094179E+01 -5.304773264E+01  8.290377020E+02  8.313450580E+02  0.000000000E+00  0.00000E+00  9.000E+00
#rwgt            1           1   4.7025866392321730E-002           1      198838           0
</event>
<event>
      5   9999  3.79277E-02  5.31413E+01 -1.00000E+00  1.37582E-01
       1    -1     0     0   502     0  0.000000000E+00  0.000000000E+00  8.996552274E+02  8.996552274E+02  0.000000000E+00  0.00000E+00  9.000E+00
      21    -1     0     0   501   502  0.000000000E+00  0.000000000E+00 -1.068515484E+02  1.068515484E+02  0.000000000E+00  0.00000E+00  9.000E+00
      25     1     1     2     0     0 -1.672433070E+02 -1.723745146E+02  1.732192521E+02  3.214237178E+02  1.250000000E+02  0.00000E+00  9.000E+00
      25     1     1     2     0     0  1.151327190E+02  1.619587523E+02  4.528159513E+02  5.100524151E+02  1.250000000E+02  0.00000E+00  9.000E+00
       1     1     1     2   501     0  5.211058806E+01  1.041576228E+01  1.667684756E+02  1.750306429E+02  2.697398305E-06  0.00000E+00  9.000E+00
#rwgt            1           1   3.8432806712628186E-002           1      198935           0
</event>
<event>
      5   9999  3.79277E-02  6.16045E+01 -1.00000E+00  1.34094E-01
      21    -1     0     0   511   501  0.000000000E+00  0.000000000E+00  5.700502449E+02  5.700502449E+02  0.000000000E+00  0.00000E+00  9.000E+00
      21    -1     0     0   501   502  0.000000000E+00  0.000000000E+00 -1.634381435E+03  1.634381435E+03  0.000000000E+00  0.00000E+00  9.000E+00
      25     1     1     2     0     0 -1.231934552E+02  6.530835263E-01 -1.145882249E+03  1.159244660E+03  1.250000000E+02  0.00000E+00  9.000E+00
      25     1     1     2     0     0  1.568055012E+02  5.097390805E+01 -4.577699120E+02  5.023590318E+02  1.250000000E+02  0.00000E+00  9.000E+00
      21     1     1     2   511   502 -3.361204601E+01 -5.162699158E+01  5.393209703E+02  5.428279884E+02  1.321449896E-05  0.00000E+00  9.000E+00
#rwgt            1           1   4.5856704219220910E-002           1      199203           0
</event>
<event>
      5   9999  3.79277E-02  1.52221E+01 -1.00000E+00  1.76784E-01
      21    -1     0     0   512   501  0.000000000E+00  0.000000000E+00  1.064633134E+03  1.064633134E+03  0.000000000E+00  0.00000E+00  9.000E+00
      21    -1     0     0   501   502  0.000000000E+00  0.000000000E+00 -4.749896572E+01  4.749896572E+01  0.000000000E+00  0.00000E+00  9.000E+00
      25     1     1     2     0     0  4.250747936E+01  2.742148065E+01  9.093686480E+02  9.193123307E+02  1.250000000E+02  0.00000E+00  9.000E+00
      25     1     1     2     0     0 -2.881431502E+01 -3.407047640E+01  6.572347074E+01  1.481068422E+02  1.250000000E+02  0.00000E+00  9.000E+00
      21     1     1     2   512   502 -1.369316434E+01  6.648995748E+00  4.204204984E+01  4.471292709E+01  0.000000000E+00  0.00000E+00  9.000E+00
#rwgt            1           1   6.2126775873837060E-002           1      199360           0
</event>
<event>
      5   9999  3.79277E-02  3.48021E+01 -1.00000E+00  1.48692E-01
      21    -1     0     0   511   501  0.000000000E+00  0.000000000E+00  1.084458146E+03  1.084458146E+03  0.000000000E+00  0.00000E+00  9.000E+00
      21    -1     0     0   501   502  0.000000000E+00  0.000000000E+00 -3.521276549E+02  3.521276549E+02  0.000000000E+00  0.00000E+00  9.000E+00
      25     1     1     2     0     0 -1.966006578E+02 -2.961259676E+00 -8.607296855E+01  2.483830582E+02  1.250000000E+02  0.00000E+00  9.000E+00
      25     1     1     2     0     0  2.042341937E+02 -3.099339559E+01 -1.056094085E+02  2.635347105E+02  1.250000000E+02  0.00000E+00  9.000E+00
      21     1     1     2   511   502 -7.633535970E+00  3.395465527E+01  9.240128683E+02  9.246680324E+02  0.000000000E+00  0.00000E+00  9.000E+00
#rwgt            1           1   3.4743869306593352E-002           1      199731           0
</event>
<event>
      5   9999  3.79277E-02  1.67556E+02 -1.00000E+00  1.14520E-01
       1    -1     0     0   502     0  0.000000000E+00  0.000000000E+00  2.681022347E+03  2.681022347E+03  0.000000000E+00  0.00000E+00  9.000E+00
      21    -1     0     0   501   502  0.000000000E+00  0.000000000E+00 -8.953514042E+01  8.953514042E+01  0.000000000E+00  0.00000E+00  9.000E+00
      25     1     1     2     0     0  1.331829635E+02 -1.533975973E+02  7.414639535E+02  7.788853054E+02  1.250000000E+02  0.00000E+00  9.000E+00
      25     1     1     2     0     0 -1.883934006E+02 -4.800595751E+00  1.247245291E+02  2.582563208E+02  1.250000000E+02  0.00000E+00  9.000E+00
       1     1     1     2   501     0  5.521043707E+01  1.581981931E+02  1.725298724E+03  1.733415861E+03  2.157918644E-05  0.00000E+00  9.000E+00
#rwgt            1           1   3.7752571646872124E-002           1      199952           0
</event>
<event>
      5   9999  3.79277E-02  8.23405E+01 -1.00000E+00  1.27746E-01
      21    -1     0     0   511   501  0.000000000E+00  0.000000000E+00  3.689832789E+02  3.689832789E+02  0.000000000E+00  0.00000E+00  9.000E+00
      21    -1     0     0   501   502  0.000000000E+00  0.000000000E+00 -6.491254467E+02  6.491254467E+02  0.000000000E+00  0.00000E+00  9.000E+00
      25     1     1     2     0     0 -1.785084121E+02 -1.940286863E+02 -6.248453096E+01  2.983985605E+02  1.250000000E+02  0.00000E+00  9.000E+00
      25     1     1     2     0     0  2.300470605E+02  1.298124553E+02 -4.140302977E+02  5.067731357E+02  1.250000000E+02  0.00000E+00  9.000E+00
      21     1     1     2   511   502 -5.153864843E+01  6.421623095E+01  1.963726608E+02  2.129370295E+02  3.814697266E-06  0.00000E+00  9.000E+00
#rwgt            1           1   4.3036184406786658E-002           1      200030           0
</event>
<event>
      5   9999 -3.79277E-02  2.11252E+01 -1.00000E+00  1.64431E-01
      21    -1     0     0   502   501  0.000000000E+00  0.000000000E+00  3.863894717E+02  3.863894717E+02  0.000000000E+00  0.00000E+00  9.000E+00
      21    -1     0     0   501   512  0.000000000E+00  0.000000000E+00 -1.419079298E+02  1.419079298E+02  0.000000000E+00  0.00000E+00  9.000E+00
      25     1     1     2     0     0  1.520972094E+01  1.550487411E+02  3.113394936E+01  2.021528395E+02  1.250000000E+02  0.00000E+00  9.000E+00
      25     1     1     2     0     0 -2.321276925E+01 -1.354982030E+02  2.325042786E+02  2.976270069E+02  1.250000000E+02  0.00000E+00  9.000E+00
      21     1     1     2   502   512  8.003048305E+00 -1.955053813E+01 -1.915668604E+01  2.851755501E+01  6.307962682E-07  0.00000E+00  9.000E+00
#rwgt            1           1  -2.9199141780468188E-002           1      200196           0
</event>
<event>
      5   9999 -3.79277E-02  9.00455E+00 -1.00000E+00  2.01173E-01
      21    -1     0     0   502   511  0.000000000E+00  0.000000000E+00  6.122820721E+02  6.122820721E+02  0.000000000E+00  0.00000E+00  9.000E+00
      21    -1     0     0   501   502  0.000000000E+00  0.000000000E+00 -2.637264859E+02  2.637264859E+02  0.000000000E+00  0.00000E+00  9.000E+00
      25     1     1     2     0     0 -8.971696026E+01  3.402699821E+02  3.208405631E+02  4.923377505E+02  1.250000000E+02  0.00000E+00  9.000E+00
      25     1     1     2     0     0  8.204706076E+01 -3.355525126E+02  1.445539216E+01  3.676427168E+02  1.250000000E+02  0.00000E+00  9.000E+00
      21     1     1     2   501   511  7.669899500E+00 -4.717469524E+00  1.325963095E+01  1.602809065E+01  3.371747881E-07  0.00000E+00  9.000E+00
#rwgt            1           1  -7.4766574560004018E-002           1      200357           0
</event>
<event>
      5   9999  3.79277E-02  9.16929E+01 -1.00000E+00  1.25546E-01
      21    -1     0     0   502   512  0.000000000E+00  0.000000000E+00  2.626342439E+02  2.626342439E+02  0.000000000E+00  0.00000E+00  9.000E+00
      21    -1     0     0   501   502  0.000000000E+00  0.000000000E+00 -1.916401711E+02  1.916401711E+02  0.000000000E+00  0.00000E+00  9.000E+00
      25     1     1     2     0     0  1.141366062E+01 -1.013849514E+01 -9.144910385E+01  1.556309716E+02  1.250000000E+02  0.00000E+00  9.000E+00
      25     1     1     2     0     0 -9.245710840E+01 -3.275149583E+01  1.013348862E+02  1.884535395E+02  1.250000000E+02  0.00000E+00  9.000E+00
      21     1     1     2   501   512  8.104344778E+01  4.288999097E+01  6.110829046E+01  1.101899039E+02  2.023048729E-06  0.00000E+00  9.000E+00
#rwgt            1           1   5.4535941249918216E-002           1      200787           0
</event>
<event>
      5   9999  3.79277E-02  2.23788E+01 -1.00000E+00  1.62440E-01
      21    -1     0     0   502   501  0.000000000E+00  0.000000000E+00  8.156987159E+02  8.156987159E+02  0.000000000E+00  0.00000E+00  9.000E+00
      21    -1     0     0   511   502  0.000000000E+00  0.000000000E+00 -5.406316634E+01  5.406316634E+01  0.000000000E+00  0.00000E+00  9.000E+00
      25     1     1     2     0     0  1.002474962E+02 -9.770103190E+01  3.407220182E+02  3.889878479E+02  1.250000000E+02  0.00000E+00  9.000E+00
      25     1     1     2     0     0 -1.156910713E+02  1.138968810E+02  4.030468472E+02  4.521379043E+02  1.250000000E+02  0.00000E+00  9.000E+00
      21     1     1     2   511   501  1.544357507E+01 -1.619584913E+01  1.786668423E+01  2.863613007E+01  5.331201500E-07  0.00000E+00  9.000E+00
#rwgt            1           1   4.4966062858556227E-002           1      200850           0
</event>
<event>
      5   9999  3.79277E-02  5.12667E+01 -1.00000E+00  1.38458E-01
       3    -1     0     0   502     0  0.000000000E+00  0.000000000E+00  1.314960559E+03  1.314960559E+03  0.000000000E+00  0.00000E+00  9.000E+00
      21    -1     0     0   501   502  0.000000000E+00  0.000000000E+00 -1.018618291E+02  1.018618291E+02  0.000000000E+00  0.00000E+00  9.000E+00
      25     1     1     2     0     0  6.856383730E+01 -9.204275981E+01  1.808881749E+02  2.480290331E+02  1.250000000E+02  0.00000E+00  9.000E+00
      25     1     1     2     0     0 -7.809108980E+01  4.166906031E+01  1.905983623E+01  1.543463840E+02  1.250000000E+02  0.00000E+00  9.000E+00
       3     1     1     2   501     0  9.527252498E+00  5.037369950E+01  1.013150719E+03  1.014446971E+03  0.000000000E+00  0.00000E+00  9.000E+00
#rwgt            1           1   3.4202771147976457E-002           1      200977           0
</event>
<event>
      5   9999  3.79277E-02  5.68052E+01 -1.00000E+00  1.35986E-01
      21    -1     0     0   502   501  0.000000000E+00  0.000000000E+00  1.669675701E+02  1.669675701E+02  0.000000000E+00  0.00000E+00  9.000E+00
      21    -1     0     0   511   502  0.000000000E+00  0.000000000E+00 -3.427467298E+02  3.427467298E+02  0.000000000E+00  0.00000E+00  9.000E+00
      25     1     1     2     0     0  1.171737256E+02 -1.135318593E+02 -1.555438451E+02  2.577558007E+02  1.250000000E+02  0.00000E+00  9.000E+00
      25     1     1     2     0     0 -6.230876466E+01  9.881242868E+01  3.284544757E+01  1.742128056E+02  1.250000000E+02  0.00000E+00  9.000E+00
      21     1     1     2   511   501 -5.486496093E+01  1.471943057E+01 -5.308076212E+01  7.774569365E+01  6.743495762E-07  0.00000E+00  9.000E+00
#rwgt            2          11   2.4800534139153068E-003           1      201354           0
</event>
<event>
      5   9999  3.79277E-02  1.24714E+02 -1.00000E+00  1.19662E-01
      21    -1     0     0   502   501  0.000000000E+00  0.000000000E+00  1.018454233E+02  1.018454233E+02  0.000000000E+00  0.00000E+00  9.000E+00
       2    -1     0     0   501     0  0.000000000E+00  0.000000000E+00 -1.057373548E+03  1.057373548E+03  0.000000000E+00  0.00000E+00  9.000E+00
      25     1     1     2     0     0 -1.863047461E+02  1.060086303E+02 -4.815583010E+02  5.417293470E+02  1.250000000E+02  0.00000E+00  9.000E+00
      25     1     1     2     0     0  6.195799630E+01 -9.644399079E+01 -5.187970927E+01  1.773604829E+02  1.250000000E+02  0.00000E+00  9.000E+00
       2     1     1     2   502     0  1.243467498E+02 -9.564639486E+00 -4.220901141E+02  4.401291412E+02  5.394796609E-06  0.00000E+00  9.000E+00
#rwgt            1           1   4.0768810920488924E-002           1      201389           0
</event>
<event>
      5   9999  3.79277E-02  3.39048E+01 -1.00000E+00  1.49438E-01
      21    -1     0     0   502   501  0.000000000E+00  0.000000000E+00  1.080349097E+03  1.080349097E+03  0.000000000E+00  0.00000E+00  9.000E+00
       2    -1     0     0   501     0  0.000000000E+00  0.000000000E+00 -3.449163570E+02  3.449163570E+02  0.000000000E+00  0.00000E+00  9.000E+00
      25     1     1     2     0     0  1.719725867E+02  1.999141034E+02  7.631286092E+02  8.170253934E+02  1.250000000E+02  0.00000E+00  9.000E+00
      25     1     1     2     0     0 -1.541993631E+02 -1.710411706E+02  2.298015377E+02  3.485201176E+02  1.250000000E+02  0.00000E+00  9.000E+00
       2     1     1     2   502     0 -1.777322366E+01 -2.887293285E+01 -2.574974074E+02  2.597199425E+02  5.394796609E-06  0.00000E+00  9.000E+00
#rwgt            1           1   3.0258327277351324E-002           1      201482           0
</event>
<event>
      5   9999  3.79277E-02  1.44568E+01 -1.00000E+00  1.78906E-01
      21    -1     0     0   502   511  0.000000000E+00  0.000000000E+00  2.204730834E+02  2.204730834E+02  0.000000000E+00  0.00000E+00  9.000E+00
      21    -1     0     0   501   502  0.000000000E+00  0.000000000E+00 -3.169332236E+02  3.169332236E+02  0.000000000E+00  0.00000E+00  9.000E+00
      25     1     1     2     0     0  1.950859818E+02 -1.062069459E+02 -1.109754223E+02  2.779910071E+02  1.250000000E+02  0.00000E+00  9.000E+00
      25     1     1     2     0     0 -1.806445265E+02  1.068735477E+02  1.636197619E+01  2.448409983E+02  1.250000000E+02  0.00000E+00  9.000E+00
      21     1     1     2   501   511 -1.444145526E+01 -6.666017503E-01 -1.846694034E+00  1.457430159E+01  2.819432010E-07  0.00000E+00  9.000E+00
#rwgt            1           1   2.8154085322715697E-002           1      201730           0
</event>
<event>
      5   9999  3.79277E-02  3.86119E+01 -1.00000E+00  1.45798E-01
      21    -1     0     0   502   501  0.000000000E+00  0.000000000E+00  9.155861330E+01  9.155861330E+01  0.000000000E+00  0.00000E+00  9.000E+00
      21    -1     0     0   501   512  0.000000000E+00  0.000000000E+00 -7.110723862E+02  7.110723862E+02  0.000000000E+00  0.00000E+00  9.000E+00
      25     1     1     2     0     0  1.466799148E+02 -6.434416814E+01 -2.909087414E+02  3.548352649E+02  1.250000000E+02  0.00000E+00  9.000E+00
      25     1     1     2     0     0 -1.207421379E+02  9.294673422E+01 -1.097952998E+02  2.256053349E+02  1.250000000E+02  0.00000E+00  9.000E+00
      21     1     1     2   502   512 -2.593777684E+01 -2.860256607E+01 -2.188097317E+02  2.221903997E+02  0.000000000E+00  0.00000E+00  9.000E+00
#rwgt            1           1   4.0353387092459080E-002           1      202052           0
</event>
<event>
      5   9999  3.79277E-02  2.51050E+01 -1.00000E+00  1.58615E-01
      21    -1     0     0   511   501  0.000000000E+00  0.000000000E+00  1.426036296E+02  1.426036296E+02  0.000000000E+00  0.00000E+00  9.000E+00
      21    -1     0     0   501   502  0.000000000E+00  0.000000000E+00 -8.152839801E+02  8.152839801E+02  0.000000000E+00  0.00000E+00  9.000E+00
      25     1     1     2     0     0 -3.040353614E+00 -9.777923934E+01 -3.745868807E+02  4.068296383E+02  1.250000000E+02  0.00000E+00  9.000E+00
      25     1     1     2     0     0  3.429227401E+00  1.228812545E+02 -4.049604946E+02  4.412817291E+02  1.250000000E+02  0.00000E+00  9.000E+00
      21     1     1     2   511   502 -3.888737871E-01 -2.510201512E+01  1.068670248E+02  1.097762423E+02  2.697398305E-06  0.00000E+00  9.000E+00
#rwgt            1           1   4.3387216013269170E-002           1      202203           0
</event>
<event>
      5   9999  3.79277E-02  1.57660E+02 -1.00000E+00  1.15543E-01
      21    -1     0     0   502   501  0.000000000E+00  0.000000000E+00  8.841860985E+02  8.841860985E+02  0.000000000E+00  0.00000E+00  9.000E+00
      -3    -1     0     0     0   502  0.000000000E+00  0.000000000E+00 -1.447982798E+02  1.447982798E+02  0.000000000E+00  0.00000E+00  9.000E+00
      25     1     1     2     0     0  8.682318962E+01 -1.836113395E+02  3.469458407E+02  4.210080838E+02  1.250000000E+02  0.00000E+00  9.000E+00
      25     1     1     2     0     0 -8.523699311E+01  2.595897035E+01  4.206753182E+02  4.478079236E+02  1.250000000E+02  0.00000E+00  9.000E+00
      -3     1     1     2     0   501 -1.586196513E+00  1.576523691E+02 -2.823334018E+01  1.601683708E+02  9.536743164E-07  0.00000E+00  9.000E+00
#rwgt            1           1   3.5237420286719168E-002           1      202410           0
</event>
<event>
      5   9999  3.79277E-02  7.57897E+01 -1.00000E+00  1.29496E-01
      21    -1     0     0   502   501  0.000000000E+00  0.000000000E+00  1.393521318E+02  1.393521318E+02  0.000000000E+00  0.00000E+00  9.000E+00
      21    -1     0     0   501   511  0.000000000E+00  0.000000000E+00 -8.279171326E+02  8.279171326E+02  0.000000000E+00  0.00000E+00  9.000E+00
      25     1     1     2     0     0  2.476074963E+02 -1.701726183E+02 -3.334657276E+02  4.659319518E+02  1.250000000E+02  0.00000E+00  9.000E+00
      25     1     1     2     0     0 -2.059582042E+02  1.068526490E+02 -2.075721632E+02  3.354809583E+02  1.250000000E+02  0.00000E+00  9.000E+00
      21     1     1     2   502   511 -4.164929217E+01  6.331996928E+01 -1.475271100E+02  1.658563542E+02  2.697398305E-06  0.00000E+00  9.000E+00
#rwgt            1           1   3.0354401239440512E-002           1      202441           0
</event>
<event>
      5   9999 -3.79277E-02  1.76298E+02 -1.00000E+00  1.13679E-01
      21    -1     0     0   502   501  0.000000000E+00  0.000000000E+00  3.052526623E+02  3.052526623E+02  0.000000000E+00  0.00000E+00  9.000E+00
      21    -1     0     0   501   512  0.000000000E+00  0.000000000E+00 -5.420516223E+02  5.420516223E+02  0.000000000E+00  0.00000E+00  9.000E+00
      25     1     1     2     0     0 -6.834002133E+01  3.131080689E+02 -1.933723966E+01  3.445372987E+02  1.250000000E+02  0.00000E+00  9.000E+00
      25     1     1     2     0     0  7.554884707E+01 -1.369573950E+02  2.628810175E+01  2.019431123E+02  1.250000000E+02  0.00000E+00  9.000E+00
      21     1     1     2   502   512 -7.208825745E+00 -1.761506740E+02 -2.437498221E+02  3.008238735E+02  2.697398305E-06  0.00000E+00  9.000E+00
#rwgt            1           1  -9.5563036503133733E-002           1      202544           0
</event>
<event>
      5   9999  3.79277E-02  5.30276E+01 -1.00000E+00  1.37634E-01
      21    -1     0     0   502   501  0.000000000E+00  0.000000000E+00  1.289726170E+02  1.289726170E+02  0.000000000E+00  0.00000E+00  9.000E+00
      21    -1     0     0   501   511  0.000000000E+00  0.000000000E+00 -4.196570375E+02  4.196570375E+02  0.000000000E+00  0.00000E+00  9.000E+00
      25     1     1     2     0     0  1.186407183E+02 -4.503258241E+01 -1.080411487E+02  2.083301306E+02  1.250000000E+02  0.00000E+00  9.000E+00
      25     1     1     2     0     0 -1.631599727E+02  1.622353524E+01 -7.337758784E+01  2.188461793E+02  1.250000000E+02  0.00000E+00  9.000E+00
      21     1     1     2   502   511  4.451925443E+01  2.880904717E+01 -1.092656839E+02  1.214533445E+02  1.907348633E-06  0.00000E+00  9.000E+00
#rwgt            1           1   5.7824343407472577E-002           1      202689           0
</event>
<event>
      5   9999  3.79277E-02  4.23041E+01 -1.00000E+00  1.43348E-01
      21    -1     0     0   502   501  0.000000000E+00  0.000000000E+00  1.701023544E+02  1.701023544E+02  0.000000000E+00  0.00000E+00  9.000E+00
      21    -1     0     0   501   512  0.000000000E+00  0.000000000E+00 -4.800500509E+02  4.800500509E+02  0.000000000E+00  0.00000E+00  9.000E+00
      25     1     1     2     0     0 -8.241689698E+01  7.309843447E+01  8.537699482E+01  1.872168723E+02  1.250000000E+02  0.00000E+00  9.000E+00
      25     1     1     2     0     0  1.214269353E+02 -8.946466817E+01 -2.956857685E+02  3.546878926E+02  1.250000000E+02  0.00000E+00  9.000E+00
      21     1     1     2   502   512 -3.901003836E+01  1.636623370E+01 -9.963892282E+01  1.082476403E+02  1.348699152E-06  0.00000E+00  9.000E+00
#rwgt            1           1   3.8656743574068744E-002           1      202809           0
</event>
<event>
      5   9999  3.79277E-02  1.17430E+01 -1.00000E+00  1.88022E-01
      21    -1     0     0   502   501  0.000000000E+00  0.000000000E+00  1.578282511E+02  1.578282511E+02  0.000000000E+00  0.00000E+00  9.000E+00
      21    -1     0     0   501   511  0.000000000E+00  0.000000000E+00 -2.694399145E+02  2.694399145E+02  0.000000000E+00  0.00000E+00  9.000E+00
      25     1     1     2     0     0  9.471528185E+01  1.109647060E+01  7.781250070E+01  1.754249171E+02  1.250000000E+02  0.00000E+00  9.000E+00
      25     1     1     2     0     0 -8.739261552E+01 -1.916246039E+00 -1.647595581E+02  2.245258409E+02  1.250000000E+02  0.00000E+00  9.000E+00
      21     1     1     2   502   511 -7.322666326E+00 -9.180224564E+00 -2.466460603E+01  2.731740756E+01  3.371747881E-07  0.00000E+00  9.000E+00
#rwgt            1           1   2.2931111985336285E-002           1      203018           0
</event>
<event>
      5   9999  3.79277E-02  2.12086E+02 -1.00000E+00  1.10728E-01
      21    -1     0     0   502   512  0.000000000E+00  0.000000000E+00  1.871004028E+03  1.871004028E+03  0.000000000E+00  0.00000E+00  9.000E+00
      21    -1     0     0   501   502  0.000000000E+00  0.000000000E+00 -2.039015317E+02  2.039015317E+02  0.000000000E+00  0.00000E+00  9.000E+00
      25     1     1     2     0     0 -1.459920445E+02 -2.903834852E+01  1.462560114E+01  1.949251419E+02  1.250000000E+02  0.00000E+00  9.000E+00
      25     1     1     2     0     0  6.402670884E+00  1.887113994E+02  1.297521529E+01  2.268178623E+02  1.250000000E+02  0.00000E+00  9.000E+00
      21     1     1     2   501   512  1.395893736E+02 -1.596730509E+02  1.639501680E+03  1.653162556E+03  3.737624730E-05  0.00000E+00  9.000E+00
#rwgt            1           1   3.9567901400375971E-002           1      203247           0
</event>
<event>
      5   9999  3.79277E-02  3.00123E+01 -1.00000E+00  1.53027E-01
      21    -1     0     0   502   501  0.000000000E+00  0.000000000E+00  7.877119011E+01  7.877119011E+01  0.000000000E+00  0.00000E+00  9.000E+00
      21    -1     0     0   501   511  0.000000000E+00  0.000000000E+00 -6.557498251E+02  6.557498251E+02  0.000000000E+00  0.00000E+00  9.000E+00
      25     1     1     2     0     0 -1.289009896E+02  1.160367927E+02 -2.368871412E+02  3.190932779E+02  1.250000000E+02  0.00000E+00  9.000E+00
      25     1     1     2     0     0  9.954219195E+01 -1.222655918E+02 -2.526410171E+02  3.229705969E+02  1.250000000E+02  0.00000E+00  9.000E+00
      21     1     1     2   502   511  2.935879763E+01  6.228799053E+00 -8.745047672E+01  9.245714042E+01  0.000000000E+00  0.00000E+00  9.000E+00
#rwgt            1           1   2.2942185379367312E-002           1      203304           0
</event>
<event>
      5   9999  3.79277E-02  4.25617E+01 -1.00000E+00  1.43188E-01
      21    -1     0     0   502   512  0.000000000E+00  0.000000000E+00  2.700706909E+02  2.700706909E+02  0.000000000E+00  0.00000E+00  9.000E+00
      21    -1     0     0   501   502  0.000000000E+00  0.000000000E+00 -2.071859294E+02  2.071859294E+02  0.000000000E+00  0.00000E+00  9.000E+00
      25     1     1     2     0     0 -1.378895060E+02  3.711712711E+01 -3.092595125E+01  1.922826343E+02  1.250000000E+02  0.00000E+00  9.000E+00
      25     1     1     2     0     0  1.797790954E+02 -2.958330445E+01  5.575531993E+01  2.278801237E+02  1.250000000E+02  0.00000E+00  9.000E+00
      21     1     1     2   501   512 -4.188958945E+01 -7.533822654E+00  3.805539287E+01  5.709386232E+01  1.066240300E-06  0.00000E+00  9.000E+00
#rwgt            1           1   3.7390130455056271E-002           1      203444           0
</event>
<event>
      5   9999  3.79277E-02  1.28634E+01 -1.00000E+00  1.83911E-01
       2    -1     0     0   502     0  0.000000000E+00  0.000000000E+00  1.991469111E+03  1.991469111E+03  0.000000000E+00  0.00000E+00  9.000E+00
      21    -1     0     0   501   502  0.000000000E+00  0.000000000E+00 -5.356197135E+01  5.356197135E+01  0.000000000E+00  0.00000E+00  9.000E+00
      25     1     1     2     0     0 -7.120634401E+01 -6.539322050E+01  8.848554974E+01  1.811113172E+02  1.250000000E+02  0.00000E+00  9.000E+00
      25     1     1     2     0     0  5.834311678E+01  6.545162821E+01  8.011830077E+02  8.156022601E+02  1.250000000E+02  0.00000E+00  9.000E+00
       2     1     1     2   501     0  1.286322722E+01 -5.840770767E-02  1.048238582E+03  1.048317505E+03  2.157918644E-05  0.00000E+00  9.000E+00
#rwgt            1           1   5.3340839864098231E-002           1      203619           0
</event>
<event>
      5   9999 -3.79277E-02  1.23123E+02 -1.00000E+00  1.19897E-01
      21    -1     0     0   502   511  0.000000000E+00  0.000000000E+00  1.499703465E+03  1.499703465E+03  0.000000000E+00  0.00000E+00  9.000E+00
      21    -1     0     0   501   502  0.000000000E+00  0.000000000E+00 -2.399654700E+02  2.399654700E+02  0.000000000E+00  0.00000E+00  9.000E+00
      25     1     1     2     0     0  1.183133596E+02  1.809656343E+02  3.874133649E+02  4.609346235E+02  1.250000000E+02  0.00000E+00  9.000E+00
      25     1     1     2     0     0 -2.304744420E+02 -2.317501408E+02 -4.533190528E+01  3.528548963E+02  1.250000000E+02  0.00000E+00  9.000E+00
      21     1     1     2   501   511  1.121610824E+02  5.078450647E+01  9.176565356E+02  9.258794154E+02  1.525878906E-05  0.00000E+00  9.000E+00
#rwgt            1           1 -0.31017693468130175                1      203858           0
</event>
<event>
      5   9999  3.79277E-02  7.27806E+01 -1.00000E+00  1.30370E-01
      21    -1     0     0   502   501  0.000000000E+00  0.000000000E+00  5.352478276E+02  5.352478276E+02  0.000000000E+00  0.00000E+00  9.000E+00
       1    -1     0     0   501     0  0.000000000E+00  0.000000000E+00 -2.141282301E+03  2.141282301E+03  0.000000000E+00  0.00000E+00  9.000E+00
      25     1     1     2     0     0 -3.262140479E+01 -8.012232552E+01 -3.981529129E+01  1.571432484E+02  1.250000000E+02  0.00000E+00  9.000E+00
      25     1     1     2     0     0  1.049816039E+02  8.793384100E+01  4.578712173E+02  4.939884099E+02  1.250000000E+02  0.00000E+00  9.000E+00
       1     1     1     2   502     0 -7.236019910E+01 -7.811515477E+00 -2.024090400E+03  2.025398471E+03  3.051757812E-05  0.00000E+00  9.000E+00
#rwgt            1           1   4.0905143833285008E-002           1      204037           0
</event>
<event>
      5   9999  3.79277E-02  2.57280E+01 -1.00000E+00  1.57823E-01
      21    -1     0     0   511   501  0.000000000E+00  0.000000000E+00  7.410252117E+02  7.410252117E+02  0.000000000E+00  0.00000E+00  9.000E+00
      21    -1     0     0   501   502  0.000000000E+00  0.000000000E+00 -2.245527693E+03  2.245527693E+03  0.000000000E+00  0.00000E+00  9.000E+00
      25     1     1     2     0     0 -1.272660834E+02 -2.187844407E+01 -1.734723395E+03  1.744008480E+03  1.250000000E+02  0.00000E+00  9.000E+00
      25     1     1     2     0     0  1.241533980E+02 -3.660573684E+00 -4.905880676E+02  5.212764315E+02  1.250000000E+02  0.00000E+00  9.000E+00
      21     1     1     2   511   502  3.112685391E+00  2.553901776E+01  7.208089811E+02  7.212679929E+02  7.629394531E-06  0.00000E+00  9.000E+00
#rwgt            1           1   6.6499788845245239E-002           1      204170           0
</event>
<event>
      5   9999  3.79277E-02  1.29904E+01 -1.00000E+00  1.83478E-01
      21    -1     0     0   502   501  0.000000000E+00  0.000000000E+00  4.002638958E+02  4.002638958E+02  0.000000000E+00  0.00000E+00  9.000E+00
      21    -1     0     0   501   512  0.000000000E+00  0.000000000E+00 -9.922970256E+01  9.922970256E+01  0.000000000E+00  0.00000E+00  9.000E+00
      25     1     1     2     0     0  7.471807321E+01 -3.128038371E+01  2.546196262E+02  2.949871301E+02  1.250000000E+02  0.00000E+00  9.000E+00
      25     1     1     2     0     0 -8.317798463E+01  4.113835707E+01  7.522637835E+01  1.729015603E+02  1.250000000E+02  0.00000E+00  9.000E+00
      21     1     1     2   502   512  8.459911424E+00 -9.857973351E+00 -2.881181130E+01  3.160490801E+01  0.000000000E+00  0.00000E+00  9.000E+00
#rwgt            1           1   2.6233022357678167E-002           1      204387           0
</event>
<event>
      5   9999  3.79277E-02  2.44369E+02 -1.00000E+00  1.08569E-01
       1    -1     0     0   502     0  0.000000000E+00  0.000000000E+00  3.045710602E+02  3.045710602E+02  0.000000000E+00  0.00000E+00  9.000E+00
      21    -1     0     0   501   502  0.000000000E+00  0.000000000E+00 -8.792303257E+02  8.792303257E+02  0.000000000E+00  0.00000E+00  9.000E+00
      25     1     1     2     0     0  2.598712754E+02 -1.894040197E+02 -2.992874389E+02  4.567328908E+02  1.250000000E+02  0.00000E+00  9.000E+00
      25     1     1     2     0     0 -3.459610173E+02 -3.929816670E+01 -3.069022857E+02  4.806738856E+02  1.250000000E+02  0.00000E+00  9.000E+00
       1     1     1     2   501     0  8.608974185E+01  2.287021864E+02  3.153045902E+01  2.463946094E+02  3.584217162E-06  0.00000E+00  9.000E+00
#rwgt            1           1   3.3648951643171346E-002           1      204614           0
</event>
<event>
      5   9999  3.79277E-02  4.85700E+01 -1.00000E+00  1.39798E-01
      21    -1     0     0   502   511  0.000000000E+00  0.000000000E+00  1.431219867E+02  1.431219867E+02  0.000000000E+00  0.00000E+00  9.000E+00
      21    -1     0     0   501   502  0.000000000E+00  0.000000000E+00 -3.286290837E+02  3.286290837E+02  0.000000000E+00  0.00000E+00  9.000E+00
      25     1     1     2     0     0  9.148588479E+01 -6.522982754E+01 -6.170693349E+01  1.790456455E+02  1.250000000E+02  0.00000E+00  9.000E+00
      25     1     1     2     0     0 -1.375665489E+02  4.987998946E+01 -1.437359468E+02  2.402032288E+02  1.250000000E+02  0.00000E+00  9.000E+00
      21     1     1     2   501   511  4.608066415E+01  1.534983809E+01  1.993578330E+01  5.250219608E+01  7.152557373E-07  0.00000E+00  9.000E+00
#rwgt            1           1   4.0974348302517151E-002           1      204734           0
</event>
<event>
      5   9999  3.79277E-02  3.08926E+01 -1.00000E+00  1.52161E-01
      21    -1     0     0   502   501  0.000000000E+00  0.000000000E+00  4.935308634E+02  4.935308634E+02  0.000000000E+00  0.00000E+00  9.000E+00
      -3    -1     0     0     0   502  0.000000000E+00  0.000000000E+00 -3.158259179E+02  3.158259179E+02  0.000000000E+00  0.00000E+00  9.000E+00
      25     1     1     2     0     0  2.630747766E+01  1.586547371E+02 -1.812473462E+01  2.044918458E+02  1.250000000E+02  0.00000E+00  9.000E+00
      25     1     1     2     0     0  3.377608178E+00 -1.672073079E+02  3.716859882E+02  4.263158053E+02  1.250000000E+02  0.00000E+00  9.000E+00
      -3     1     1     2     0   501 -2.968508584E+01  8.552570842E+00 -1.758563081E+02  1.785491302E+02  1.907348633E-06  0.00000E+00  9.000E+00
#rwgt            1           1   3.9904350518711537E-002           1      204809           0
</event>
<event>
      5   9999  3.79277E-02  7.06297E+00 -1.00000E+00  2.15005E-01
      21    -1     0     0   511   501  0.000000000E+00  0.000000000E+00  2.088751507E+02  2.088751507E+02  0.000000000E+00  0.00000E+00  9.000E+00
      21    -1     0     0   501   502  0.000000000E+00  0.000000000E+00 -8.819679220E+02  8.819679220E+02  0.000000000E+00  0.00000E+00  9.000E+00
      25     1     1     2     0     0 -2.408026985E+01 -2.606094001E+02 -4.512075534E+02  5.363864046E+02  1.250000000E+02  0.00000E+00  9.000E+00
      25     1     1     2     0     0  1.719870865E+01  2.590189082E+02 -3.345818619E+02  4.415389141E+02  1.250000000E+02  0.00000E+00  9.000E+00
      21     1     1     2   511   502  6.881561199E+00  1.590491932E+00  1.126966441E+02  1.129177539E+02  2.697398305E-06  0.00000E+00  9.000E+00
#rwgt            1           1   3.8725437207116936E-002           1      205000           0
</event>
<event>
      5   9999  3.79277E-02  1.67507E+01 -1.00000E+00  1.72983E-01
      21    -1     0     0   502   501  0.000000000E+00  0.000000000E+00  1.050210582E+02  1.050210582E+02  0.000000000E+00  0.00000E+00  9.000E+00
      21    -1     0     0   512   502  0.000000000E+00  0.000000000E+00 -1.141846917E+03  1.141846917E+03  0.000000000E+00  0.00000E+00  9.000E+00
      25     1     1     2     0     0  6.308075941E+01  1.075568134E+02 -6.744994180E+01  1.890030290E+02  1.250000000E+02  0.00000E+00  9.000E+00
      25     1     1     2     0     0 -4.728631994E+01 -1.131354402E+02 -1.294119128E+02  2.177339364E+02  1.250000000E+02  0.00000E+00  9.000E+00
      21     1     1     2   512   501 -1.579443947E+01  5.578626766E+00 -8.399640039E+02  8.401310096E+02  1.078959322E-05  0.00000E+00  9.000E+00
#rwgt            1           1   4.0542011903758564E-002           1      205330           0
</event>
<event>
      5   9999  3.79277E-02  2.43587E+01 -1.00000E+00  1.59601E-01
      21    -1     0     0   502   501  0.000000000E+00  0.000000000E+00  1.978124580E+02  1.978124580E+02  0.000000000E+00  0.00000E+00  9.000E+00
      21    -1     0     0   511   502  0.000000000E+00  0.000000000E+00 -2.169104624E+02  2.169104624E+02  0.000000000E+00  0.00000E+00  9.000E+00
      25     1     1     2     0     0 -1.306739671E+01  8.270847566E+01 -9.512916944E+01  1.780056395E+02  1.250000000E+02  0.00000E+00  9.000E+00
      25     1     1     2     0     0  9.894293027E+00 -1.068595764E+02  1.076524712E+02  1.968017293E+02  1.250000000E+02  0.00000E+00  9.000E+00
      21     1     1     2   511   501  3.173103682E+00  2.415110073E+01 -3.162130619E+01  3.991555159E+01  7.539457465E-07  0.00000E+00  9.000E+00
#rwgt            1           1   4.3068189553050425E-002           1      205556           0
</event>
<event>
      5   9999  3.79277E-02  6.55022E+01 -1.00000E+00  1.32698E-01
      21    -1     0     0   502   501  0.000000000E+00  0.000000000E+00  2.312455116E+03  2.312455116E+03  0.000000000E+00  0.00000E+00  9.000E+00
      -4    -1     0     0     0   502  0.000000000E+00  0.000000000E+00 -2.433604078E+01  2.433604078E+01  0.000000000E+00  0.00000E+00  9.000E+00
      25     1     1     2     0     0  1.637049959E+01 -1.366428119E+02  1.122511925E+03  1.137803706E+03  1.250000000E+02  0.00000E+00  9.000E+00
      25     1     1     2     0     0 -6.690541661E+01  9.496837955E+01  1.067305887E+03  1.080861778E+03  1.250000000E+02  0.00000E+00  9.000E+00
      -4     1     1     2     0   501  5.053491702E+01  4.167443238E+01  9.830126401E+01  1.181256732E+02  3.303624740E-06  0.00000E+00  9.000E+00
#rwgt            2           7   2.7173306118055199E-005           1      205744           0
</event>
<event>
      5   9999  3.79277E-02  1.43941E+02 -1.00000E+00  1.17108E-01
      21    -1     0     0   502   501  0.000000000E+00  0.000000000E+00  7.352376485E+02  7.352376485E+02  0.000000000E+00  0.00000E+00  9.000E+00
      21    -1     0     0   501   511  0.000000000E+00  0.000000000E+00 -2.020648766E+02  2.020648766E+02  0.000000000E+00  0.00000E+00  9.000E+00
      25     1     1     2     0     0 -4.744432047E+01  9.993468557E+01  1.839613573E+00  1.669319894E+02  1.250000000E+02  0.00000E+00  9.000E+00
      25     1     1     2     0     0  1.911004739E+02 -1.089902893E+02  5.680196582E+02  6.218276340E+02  1.250000000E+02  0.00000E+00  9.000E+00
      21     1     1     2   502   511 -1.436561535E+02  9.055603761E+00 -3.668649985E+01  1.485429018E+02  1.168007728E-06  0.00000E+00  9.000E+00
#rwgt            1           1   3.4851703132937520E-002           1      205763           0
</event>
<event>
      5   9999  3.79277E-02  4.17563E+01 -1.00000E+00  1.43692E-01
      21    -1     0     0   502   501  0.000000000E+00  0.000000000E+00  2.431140858E+01  2.431140858E+01  0.000000000E+00  0.00000E+00  9.000E+00
       2    -1     0     0   501     0  0.000000000E+00  0.000000000E+00 -1.448488021E+03  1.448488021E+03  0.000000000E+00  0.00000E+00  9.000E+00
      25     1     1     2     0     0  1.002330566E+02 -3.088554538E+00 -4.368631562E+02  4.653285099E+02  1.250000000E+02  0.00000E+00  9.000E+00
      25     1     1     2     0     0 -7.044613532E+01 -2.617456208E+01 -5.813976295E+02  5.994130206E+02  1.250000000E+02  0.00000E+00  9.000E+00
       2     1     1     2   502     0 -2.978692130E+01  2.926311662E+01 -4.059158265E+02  4.080578989E+02  0.000000000E+00  0.00000E+00  9.000E+00
#rwgt            1           1   5.4524279153969200E-002           1      205886           0
</event>
<event>
      5   9999  3.79277E-02  6.97073E+01 -1.00000E+00  1.31313E-01
      21    -1     0     0   502   511  0.000000000E+00  0.000000000E+00  3.477662398E+02  3.477662398E+02  0.000000000E+00  0.00000E+00  9.000E+00
      21    -1     0     0   501   502  0.000000000E+00  0.000000000E+00 -2.069901827E+02  2.069901827E+02  0.000000000E+00  0.00000E+00  9.000E+00
      25     1     1     2     0     0 -1.576977174E+02  8.164534117E+01 -6.571226165E+01  2.268868289E+02  1.250000000E+02  0.00000E+00  9.000E+00
      25     1     1     2     0     0  1.347119395E+02 -1.583680815E+01  1.403419300E+02  2.317735284E+02  1.250000000E+02  0.00000E+00  9.000E+00
      21     1     1     2   501   511  2.298577782E+01 -6.580853302E+01  6.614638873E+01  9.609606518E+01  9.536743164E-07  0.00000E+00  9.000E+00
#rwgt            1           1   3.2015080178290245E-002           1      205954           0
</event>
<event>
      5   9999  3.79277E-02  2.58693E+01 -1.00000E+00  1.57647E-01
      21    -1     0     0   502   512  0.000000000E+00  0.000000000E+00  1.723629952E+02  1.723629952E+02  0.000000000E+00  0.00000E+00  9.000E+00
      21    -1     0     0   501   502  0.000000000E+00  0.000000000E+00 -2.934137408E+02  2.934137408E+02  0.000000000E+00  0.00000E+00  9.000E+00
      25     1     1     2     0     0 -1.654536809E+02  5.380412929E+01 -1.106910408E+02  2.411375362E+02  1.250000000E+02  0.00000E+00  9.000E+00
      25     1     1     2     0     0  1.409276693E+02 -6.203171498E+01 -1.222129376E+01  1.987030489E+02  1.250000000E+02  0.00000E+00  9.000E+00
      21     1     1     2   501   512  2.452601163E+01  8.227585694E+00  1.861588897E+00  2.593615095E+01  3.456298561E-07  0.00000E+00  9.000E+00
#rwgt            1           1   3.4951341538561644E-002           1      206082           0
</event>
<event>
      5   9999 -3.79277E-02  9.32192E+01 -1.00000E+00  1.25215E-01
      21    -1     0     0   502   501  0.000000000E+00  0.000000000E+00  1.405240325E+03  1.405240325E+03  0.000000000E+00  0.00000E+00  9.000E+00
      21    -1     0     0   501   511  0.000000000E+00  0.000000000E+00 -2.426146525E+02  2.426146525E+02  0.000000000E+00  0.00000E+00  9.000E+00
      25     1     1     2     0     0  3.012851598E+02  1.686874911E+02  5.466461817E+02  6.585402532E+02  1.250000000E+02  0.00000E+00  9.000E+00
      25     1     1     2     0     0 -2.834255627E+02 -7.719508002E+01  7.562632890E+02  8.208826300E+02  1.250000000E+02  0.00000E+00  9.000E+00
      21     1     1     2   502   511 -1.785959710E+01 -9.149241109E+01 -1.402837980E+02  1.684320945E+02  4.264961200E-06  0.00000E+00  9.000E+00
#rwgt            1           1 -0.16560461502123910                1      206243           0
</event>
<event>
      5   9999  3.79277E-02  5.46547E+01 -1.00000E+00  1.36905E-01
      21    -1     0     0   502   501  0.000000000E+00  0.000000000E+00  2.249405856E+02  2.249405856E+02  0.000000000E+00  0.00000E+00  9.000E+00
      21    -1     0     0   512   502  0.000000000E+00  0.000000000E+00 -2.169784449E+03  2.169784449E+03  0.000000000E+00  0.00000E+00  9.000E+00
      25     1     1     2     0     0 -3.798332111E+02 -4.221620077E+02 -3.952599048E+02  7.030998658E+02  1.250000000E+02  0.00000E+00  9.000E+00
      25     1     1     2     0     0  3.422697171E+02  4.618624475E+02 -1.185295663E+03  1.323259721E+03  1.250000000E+02  0.00000E+00  9.000E+00
      21     1     1     2   512   501  3.756349397E+01 -3.970043979E+01 -3.642882959E+02  3.683654483E+02  0.000000000E+00  0.00000E+00  9.000E+00
#rwgt            1           1   3.0420333503941407E-002           1      206320           0
</event>
<event>
      5   9999  3.79277E-02  5.47441E+01 -1.00000E+00  1.36866E-01
      21    -1     0     0   502   501  0.000000000E+00  0.000000000E+00  2.988194219E+02  2.988194219E+02  0.000000000E+00  0.00000E+00  9.000E+00
      21    -1     0     0   501   511  0.000000000E+00  0.000000000E+00 -3.185821311E+02  3.185821311E+02  0.000000000E+00  0.00000E+00  9.000E+00
      25     1     1     2     0     0 -1.491821024E+02  5.415606095E+01 -4.055317066E+01  2.060527560E+02  1.250000000E+02  0.00000E+00  9.000E+00
      25     1     1     2     0     0  1.958534820E+02 -2.554315901E+01  1.453775879E+02  2.752647498E+02  1.250000000E+02  0.00000E+00  9.000E+00
      21     1     1     2   502   511 -4.667137960E+01 -2.861290194E+01 -1.245871265E+02  1.360840473E+02  1.348699152E-06  0.00000E+00  9.000E+00
#rwgt            1           1  0.11955514072836897                1      206493           0
</event>
<event>
      5   9999 -3.79277E-02  6.03206E+01 -1.00000E+00  1.34580E-01
      21    -1     0     0   512   501  0.000000000E+00  0.000000000E+00  4.768656170E+02  4.768656170E+02  0.000000000E+00  0.00000E+00  9.000E+00
      21    -1     0     0   501   502  0.000000000E+00  0.000000000E+00 -5.616136517E+02  5.616136517E+02  0.000000000E+00  0.00000E+00  9.000E+00
      25     1     1     2     0     0 -2.921183549E+02 -8.768538182E+01 -2.306840943E+02  4.023207810E+02  1.250000000E+02  0.00000E+00  9.000E+00
      25     1     1     2     0     0  2.341036544E+02  7.116648057E+01 -1.642826643E+02  3.201296342E+02  1.250000000E+02  0.00000E+00  9.000E+00
      21     1     1     2   512   502  5.801470049E+01  1.651890124E+01  3.102187239E+02  3.160288535E+02  5.394796609E-06  0.00000E+00  9.000E+00
#rwgt            1           1 -0.23266384505840232                1      206631           0
</event>
<event>
      5   9999  3.79277E-02  6.43241E+01 -1.00000E+00  1.33108E-01
       2    -1     0     0   502     0  0.000000000E+00  0.000000000E+00  4.650286428E+02  4.650286428E+02  0.000000000E+00  0.00000E+00  9.000E+00
      21    -1     0     0   501   502  0.000000000E+00  0.000000000E+00 -3.020434256E+02  3.020434256E+02  0.000000000E+00  0.00000E+00  9.000E+00
      25     1     1     2     0     0 -1.573232642E+02  9.958083888E+01 -2.567467927E+01  2.257235967E+02  1.250000000E+02  0.00000E+00  9.000E+00
      25     1     1     2     0     0  9.438050248E+01 -1.128399807E+02 -1.191742085E+02  2.268656705E+02  1.250000000E+02  0.00000E+00  9.000E+00
       2     1     1     2   501     0  6.294276176E+01  1.325914181E+01  3.078341049E+02  3.144828012E+02  0.000000000E+00  0.00000E+00  9.000E+00
#rwgt            1           1   9.0621879915070355E-002           1      207008           0
</event>
<event>
      5   9999  3.79277E-02  1.74628E+01 -1.00000E+00  1.71381E-01
      21    -1     0     0   502   501  0.000000000E+00  0.000000000E+00  3.594072024E+02  3.594072024E+02  0.000000000E+00  0.00000E+00  9.000E+00
      21    -1     0     0   501   511  0.000000000E+00  0.000000000E+00 -1.253949226E+02  1.253949226E+02  0.000000000E+00  0.00000E+00  9.000E+00
      25     1     1     2     0     0 -1.480401527E+01  5.083219890E+01 -4.212490994E+01  1.421357779E+02  1.250000000E+02  0.00000E+00  9.000E+00
      25     1     1     2     0     0 -2.557860863E+00 -4.895711031E+01  2.905172760E+02  3.200447296E+02  1.250000000E+02  0.00000E+00  9.000E+00
      21     1     1     2   502   511  1.736187613E+01 -1.875088592E+00 -1.438008621E+01  2.262161753E+01  5.591411304E-07  0.00000E+00  9.000E+00
#rwgt            1           1   5.4035029706399097E-002           1      207119           0
</event>
<event>
      5   9999  3.79277E-02  1.13752E+02 -1.00000E+00  1.21362E-01
      -3    -1     0     0     0   501  0.000000000E+00  0.000000000E+00  2.650702789E+02  2.650702789E+02  0.000000000E+00  0.00000E+00  9.000E+00
      21    -1     0     0   501   502  0.000000000E+00  0.000000000E+00 -1.580396390E+03  1.580396390E+03  0.000000000E+00  0.00000E+00  9.000E+00
      25     1     1     2     0     0  6.012815678E+01  1.781508741E+02 -9.007104871E+02  9.285782201E+02  1.250000000E+02  0.00000E+00  9.000E+00
      25     1     1     2     0     0 -7.869403659E+01 -2.903772349E+02 -6.095742734E+02  6.911710966E+02  1.250000000E+02  0.00000E+00  9.000E+00
      -3     1     1     2     0   502  1.856587981E+01  1.122263608E+02  1.949586496E+02  2.257173521E+02  3.814697266E-06  0.00000E+00  9.000E+00
#rwgt            1           1   3.9954032062338017E-002           1      207381           0
</event>
<event>
      5   9999  3.79277E-02  5.97973E+01 -1.00000E+00  1.34782E-01
      -3    -1     0     0     0   501  0.000000000E+00  0.000000000E+00  9.244284508E+01  9.244284508E+01  0.000000000E+00  0.00000E+00  9.000E+00
      21    -1     0     0   501   502  0.000000000E+00  0.000000000E+00 -8.113784508E+02  8.113784508E+02  0.000000000E+00  0.00000E+00  9.000E+00
      25     1     1     2     0     0  1.065804110E+01 -1.555643780E+01 -5.643044797E+02  5.782907075E+02  1.250000000E+02  0.00000E+00  9.000E+00
      25     1     1     2     0     0 -4.425213354E+01  6.502519134E+01 -2.013078793E+02  2.496725637E+02  1.250000000E+02  0.00000E+00  9.000E+00
      -3     1     1     2     0   502  3.359409244E+01 -4.946875353E+01  4.667675317E+01  7.585802469E+01  1.784161275E-06  0.00000E+00  9.000E+00
#rwgt            2           3   2.0152260243972137E-005           1      207451           0
</event>
<event>
      5   9999  3.79277E-02  1.51271E+02 -1.00000E+00  1.16249E-01
      21    -1     0     0   511   501  0.000000000E+00  0.000000000E+00  8.219946648E+02  8.219946648E+02  0.000000000E+00  0.00000E+00  9.000E+00
      21    -1     0     0   501   502  0.000000000E+00  0.000000000E+00 -2.810885379E+02  2.810885379E+02  0.000000000E+00  0.00000E+00  9.000E+00
      25     1     1     2     0     0 -1.393872555E+02 -2.274887792E+02  3.033485372E+01  2.961843261E+02  1.250000000E+02  0.00000E+00  9.000E+00
      25     1     1     2     0     0  2.408050928E+02  1.152512504E+02  2.217485536E+01  2.956123604E+02  1.250000000E+02  0.00000E+00  9.000E+00
      21     1     1     2   511   502 -1.014178373E+02  1.122375289E+02  4.883964179E+02  5.112865162E+02  0.000000000E+00  0.00000E+00  9.000E+00
#rwgt            1           1   6.1894853695302933E-002           1      207470           0
</event>
<event>
      5   9999  3.79277E-02  8.02360E+01 -1.00000E+00  1.28288E-01
      21    -1     0     0   502   512  0.000000000E+00  0.000000000E+00  9.079934489E+01  9.079934489E+01  0.000000000E+00  0.00000E+00  9.000E+00
      21    -1     0     0   501   502  0.000000000E+00  0.000000000E+00 -1.229453183E+03  1.229453183E+03  0.000000000E+00  0.00000E+00  9.000E+00
      25     1     1     2     0     0 -3.154168917E+01  6.654956525E+01 -9.381200305E+02  9.492723078E+02  1.250000000E+02  0.00000E+00  9.000E+00
      25     1     1     2     0     0  1.078894272E+02 -4.187504447E+01 -2.293800815E+02  2.857164147E+02  1.250000000E+02  0.00000E+00  9.000E+00
      21     1     1     2   501   512 -7.634773805E+01 -2.467452078E+01  2.884627346E+01  8.526380577E+01  1.066240300E-06  0.00000E+00  9.000E+00
#rwgt            1           1   8.0128976696447113E-002           1      207773           0
</event>
<event>
      5   9999  3.79277E-02  1.02966E+02 -1.00000E+00  1.23260E-01
      -5    -1     0     0     0   501  0.000000000E+00  0.000000000E+00  6.325333212E+02  6.325333212E+02  0.000000000E+00  0.00000E+00  9.000E+00
      21    -1     0     0   501   502  0.000000000E+00  0.000000000E+00 -1.281802296E+02  1.281802296E+02  0.000000000E+00  0.00000E+00  9.000E+00
      25     1     1     2     0     0  1.672992593E+01  6.462201381E+01 -2.797880605E+01  1.444427523E+02  1.250000000E+02  0.00000E+00  9.000E+00
      25     1     1     2     0     0 -9.282145914E+01 -1.339907023E+02  3.194083245E+02  3.797578298E+02  1.250000000E+02  0.00000E+00  9.000E+00
      -5     1     1     2     0   502  7.609153321E+01  6.936868846E+01  2.129235732E+02  2.365129687E+02  0.000000000E+00  0.00000E+00  9.000E+00
#rwgt            1           1   2.0642950914872709E-002           1      207883           0
</event>
<event>
      5   9999  3.79277E-02  8.77983E+01 -1.00000E+00  1.26424E-01
      21    -1     0     0   502   501  0.000000000E+00  0.000000000E+00  1.914044200E+02  1.914044200E+02  0.000000000E+00  0.00000E+00  9.000E+00
      21    -1     0     0   501   511  0.000000000E+00  0.000000000E+00 -5.507682514E+02  5.507682514E+02  0.000000000E+00  0.00000E+00  9.000E+00
      25     1     1     2     0     0  1.642438427E+02  9.207739420E+01 -1.240448033E+02  2.578107826E+02  1.250000000E+02  0.00000E+00  9.000E+00
      25     1     1     2     0     0 -1.931335548E+02 -9.168298706E+00  3.133235705E+00  2.302595163E+02  1.250000000E+02  0.00000E+00  9.000E+00
      21     1     1     2   502   511  2.888971213E+01 -8.290909550E+01 -2.384522638E+02  2.541023725E+02  2.697398305E-06  0.00000E+00  9.000E+00
#rwgt            1           1   2.5746839088275540E-002           1      208018           0
</event>
<event>
      5   9999  3.79277E-02  6.39957E+00 -1.00000E+00  2.21210E-01
      21    -1     0     0   502   501  0.000000000E+00  0.000000000E+00  8.404065629E+02  8.404065629E+02  0.000000000E+00  0.00000E+00  9.000E+00
      -1    -1     0     0     0   502  0.000000000E+00  0.000000000E+00 -1.608515397E+02  1.608515397E+02  0.000000000E+00  0.00000E+00  9.000E+00
      25     1     1     2     0     0 -9.388045930E+01 -7.316594352E+01  5.984981791E+02  6.228899311E+02  1.250000000E+02  0.00000E+00  9.000E+00
      25     1     1     2     0     0  8.751181405E+01  7.253756235E+01  1.985476249E+02  2.607032315E+02  1.250000000E+02  0.00000E+00  9.000E+00
      -1     1     1     2     0   501  6.368645244E+00  6.283811635E-01 -1.174907808E+02  1.176649399E+02  3.568322551E-06  0.00000E+00  9.000E+00
#rwgt            1           1   2.5252425567373681E-002           1      208107           0
</event>
<event>
      5   9999  3.79277E-02  5.35957E+01 -1.00000E+00  1.37376E-01
      21    -1     0     0   502   511  0.000000000E+00  0.000000000E+00  2.227550661E+02  2.227550661E+02  0.000000000E+00  0.00000E+00  9.000E+00
      21    -1     0     0   501   502  0.000000000E+00  0.000000000E+00 -3.672425221E+02  3.672425221E+02  0.000000000E+00  0.00000E+00  9.000E+00
      25     1     1     2     0     0 -6.086295487E+01  2.060927765E+01  6.041229242E+01  1.529826352E+02  1.250000000E+02  0.00000E+00  9.000E+00
      25     1     1     2     0     0  1.070784066E+02 -4.775023937E+01 -2.897594371E+02  3.366472961E+02  1.250000000E+02  0.00000E+00  9.000E+00
      21     1     1     2   501   511 -4.621545175E+01  2.714096172E+01  8.485968874E+01  1.003676569E+02  0.000000000E+00  0.00000E+00  9.000E+00
#rwgt            1           1   4.7283200725566348E-002           1      208350           0
</event>
<event>
      5   9999  3.79277E-02  4.11278E+01 -1.00000E+00  1.44095E-01
      21    -1     0     0   512   501  0.000000000E+00  0.000000000E+00  1.273585065E+02  1.273585065E+02  0.000000000E+00  0.00000E+00  9.000E+00
      21    -1     0     0   501   502  0.000000000E+00  0.000000000E+00 -1.779917126E+03  1.779917126E+03  0.000000000E+00  0.00000E+00  9.000E+00
      25     1     1     2     0     0 -1.777179399E+02  9.953484416E+01 -1.310901871E+03  1.332508750E+03  1.250000000E+02  0.00000E+00  9.000E+00
      25     1     1     2     0     0  1.442633700E+02 -7.561231216E+01 -4.304517001E+02  4.769096432E+02  1.250000000E+02  0.00000E+00  9.000E+00
      21     1     1     2   512   502  3.345456992E+01 -2.392253200E+01  8.879495221E+01  9.785723951E+01  2.336015456E-06  0.00000E+00  9.000E+00
#rwgt            1           1   1.0122901310759881E-002           1      208430           0
</event>
<event>
      5   9999 -3.79277E-02  1.34537E+01 -1.00000E+00  1.81954E-01
      21    -1     0     0   502   501  0.000000000E+00  0.000000000E+00  2.619789908E+03  2.619789908E+03  0.000000000E+00  0.00000E+00  9.000E+00
      21    -1     0     0   511   502  0.000000000E+00  0.000000000E+00 -3.771162683E+02  3.771162683E+02  0.000000000E+00  0.00000E+00  9.000E+00
      25     1     1     2     0     0  1.294013689E+02 -3.863210041E+01  6.264905721E+02  6.529568059E+02  1.250000000E+02  0.00000E+00  9.000E+00
      25     1     1     2     0     0 -1.428476398E+02  3.818396322E+01  1.975206690E+03  1.984673759E+03  1.250000000E+02  0.00000E+00  9.000E+00
      21     1     1     2   511   501  1.344627092E+01  4.481371929E-01 -3.590236225E+02  3.592756108E+02  5.394796609E-06  0.00000E+00  9.000E+00
#rwgt            1           1  -3.9955720576870135E-002           1      208569           0
</event>
<event>
      5   9999  3.79277E-02  1.25066E+01 -1.00000E+00  1.85159E-01
      21    -1     0     0   502   512  0.000000000E+00  0.000000000E+00  3.923869176E+02  3.923869176E+02  0.000000000E+00  0.00000E+00  9.000E+00
      21    -1     0     0   501   502  0.000000000E+00  0.000000000E+00 -1.178829820E+02  1.178829820E+02  0.000000000E+00  0.00000E+00  9.000E+00
      25     1     1     2     0     0 -1.597850530E+02 -4.758465178E+01  1.728914642E+02  2.707619261E+02  1.250000000E+02  0.00000E+00  9.000E+00
      25     1     1     2     0     0  1.559335128E+02  3.568586839E+01  8.873661542E+01  2.215579575E+02  1.250000000E+02  0.00000E+00  9.000E+00
      21     1     1     2   501   512  3.851540106E+00  1.189878339E+01  1.287585603E+01  1.795001604E+01  2.920019320E-07  0.00000E+00  9.000E+00
#rwgt            1           1   3.7583904101948687E-002           1      208752           0
</event>
<event>
      5   9999  3.79277E-02  2.99801E+01 -1.00000E+00  1.53060E-01
      21    -1     0     0   511   501  0.000000000E+00  0.000000000E+00  8.082880978E+02  8.082880978E+02  0.000000000E+00  0.00000E+00  9.000E+00
      21    -1     0     0   501   502  0.000000000E+00  0.000000000E+00 -2.468908639E+02  2.468908639E+02  0.000000000E+00  0.00000E+00  9.000E+00
      25     1     1     2     0     0 -1.225448143E+02 -2.925403797E+02  4.374519083E+02  5.546046135E+02  1.250000000E+02  0.00000E+00  9.000E+00
      25     1     1     2     0     0  1.490106715E+02  2.784562581E+02 -3.256842433E+01  3.412151376E+02  1.250000000E+02  0.00000E+00  9.000E+00
      21     1     1     2   511   502 -2.646585720E+01  1.408412162E+01  1.565137499E+02  1.593592106E+02  2.697398305E-06  0.00000E+00  9.000E+00
#rwgt            1           1  0.13601175825717499                1      209016           0
</event>
<event>
      5   9999  3.79277E-02  4.47436E+01 -1.00000E+00  1.41885E-01
       5    -1     0     0   502     0  0.000000000E+00  0.000000000E+00  1.865580803E+02  1.865580803E+02  0.000000000E+00  0.00000E+00  9.000E+00
      21    -1     0     0   501   502  0.000000000E+00  0.000000000E+00 -2.496667691E+02  2.496667691E+02  0.000000000E+00  0.00000E+00  9.000E+00
      25     1     1     2     0     0 -8.683640520E+01  9.140276201E+00  7.820682381E+01  1.713633952E+02  1.250000000E+02  0.00000E+00  9.000E+00
      25     1     1     2     0     0  4.951112432E+01  1.553377669E+01 -1.656647185E+02  2.139215945E+02  1.250000000E+02  0.00000E+00  9.000E+00
       5     1     1     2   501     0  3.732528088E+01 -2.467405289E+01  2.434920592E+01  5.093985972E+01  3.371747881E-07  0.00000E+00  9.000E+00
#rwgt            1           1   2.7749081605436376E-002           1      209254           0
</event>
<event>
      5   9999 -3.89147E-02  6.04629E+01 -1.00000E+00  1.34525E-01
       2    -1     0     0   502     0  0.000000000E+00  0.000000000E+00  2.871518536E+03  2.871518536E+03  0.000000000E+00  0.00000E+00  9.000E+00
      21    -1     0     0   501   502  0.000000000E+00  0.000000000E+00 -3.399929771E+02  3.399929771E+02  0.000000000E+00  0.00000E+00  9.000E+00
      25     1     1     2     0     0 -3.031314704E+02  2.388663011E+02 -2.338655622E+00  4.056800063E+02  1.250000000E+02  0.00000E+00  9.000E+00
      25     1     1     2     0     0  2.740838390E+02 -2.918945999E+02  1.888109264E+02  4.599988850E+02  1.250000000E+02  0.00000E+00  9.000E+00
       2     1     1     2   501     0  2.904763140E+01  5.302829879E+01  2.345053288E+03  2.345832622E+03  0.000000000E+00  0.00000E+00  9.000E+00
#rwgt            1           1 -0.36573230801799755                1      209478           0
</event>
<event>
      5   9999  3.79277E-02  1.74316E+01 -1.00000E+00  1.71450E-01
      21    -1     0     0   502   501  0.000000000E+00  0.000000000E+00  4.897144494E+02  4.897144494E+02  0.000000000E+00  0.00000E+00  9.000E+00
      21    -1     0     0   511   502  0.000000000E+00  0.000000000E+00 -7.054345584E+01  7.054345584E+01  0.000000000E+00  0.00000E+00  9.000E+00
      25     1     1     2     0     0  1.273545300E+02 -2.896093042E+01  1.762436075E+02  2.524771692E+02  1.250000000E+02  0.00000E+00  9.000E+00
      25     1     1     2     0     0 -1.138585581E+02  1.792828605E+01  2.302537520E+02  2.862289031E+02  1.250000000E+02  0.00000E+00  9.000E+00
      21     1     1     2   511   501 -1.349597190E+01  1.103264437E+01  1.267363407E+01  2.155183287E+01  4.460403188E-07  0.00000E+00  9.000E+00
#rwgt            1           1   3.3249365267798835E-002           1      209640           0
</event>
<event>
      5   9999  3.79277E-02  1.95894E+01 -1.00000E+00  1.67116E-01
      21    -1     0     0   502   501  0.000000000E+00  0.000000000E+00  9.849936681E+02  9.849936681E+02  0.000000000E+00  0.00000E+00  9.000E+00
      21    -1     0     0   512   502  0.000000000E+00  0.000000000E+00 -7.035291380E+01  7.035291380E+01  0.000000000E+00  0.00000E+00  9.000E+00
      25     1     1     2     0     0 -1.486967680E+02  1.178611816E+02  5.672641919E+02  6.110774503E+02  1.250000000E+02  0.00000E+00  9.000E+00
      25     1     1     2     0     0  1.512958172E+02 -9.844497467E+01  3.594906065E+02  4.212366716E+02  1.250000000E+02  0.00000E+00  9.000E+00
      21     1     1     2   512   501 -2.599049177E+00 -1.941620692E+01 -1.211404408E+01  2.303245996E+01  5.840038640E-07  0.00000E+00  9.000E+00
#rwgt            1           1   3.4209329913040189E-002           1      209890           0
</event>
<event>
      5   9999  3.79277E-02  2.76465E+01 -1.00000E+00  1.55546E-01
      21    -1     0     0   502   501  0.000000000E+00  0.000000000E+00  2.698118123E+02  2.698118123E+02  0.000000000E+00  0.00000E+00  9.000E+00
      21    -1     0     0   511   502  0.000000000E+00  0.000000000E+00 -2.124144265E+02  2.124144265E+02  0.000000000E+00  0.00000E+00  9.000E+00
      25     1     1     2     0     0 -1.852242615E+02 -3.214326374E+01  6.865121999E+01  2.359644178E+02  1.250000000E+02  0.00000E+00  9.000E+00
      25     1     1     2     0     0  1.647581483E+02  5.072995078E+01  7.131570965E+00  2.130601667E+02  1.250000000E+02  0.00000E+00  9.000E+00
      21     1     1     2   511   501  2.046611320E+01 -1.858668704E+01 -1.838540508E+01  3.320165424E+01  7.539457465E-07  0.00000E+00  9.000E+00
#rwgt            1           1   4.1482211244498683E-002           1      210063           0
</event>
<event>
      5   9999  3.79277E-02  5.95039E+01 -1.00000E+00  1.34896E-01
      21    -1     0     0   512   501  0.000000000E+00  0.000000000E+00  3.141427370E+02  3.141427370E+02  0.000000000E+00  0.00000E+00  9.000E+00
      21    -1     0     0   501   502  0.000000000E+00  0.000000000E+00 -2.805582513E+02  2.805582513E+02  0.000000000E+00  0.00000E+00  9.000E+00
      25     1     1     2     0     0 -6.136673852E+01  1.702063150E+02  8.668146822E+01  2.363783899E+02  1.250000000E+02  0.00000E+00  9.000E+00
      25     1     1     2     0     0  1.160078993E+02 -1.466467138E+02 -1.310057925E+02  2.602894716E+02  1.250000000E+02  0.00000E+00  9.000E+00
      21     1     1     2   512   502 -5.464116075E+01 -2.355960120E+01  7.790881002E+01  9.803312672E+01  2.132480600E-06  0.00000E+00  9.000E+00
#rwgt            1           1   3.7034199809231332E-002           1      210235           0
</event>
<event>
      5   9999  3.79277E-02  1.61887E+01 -1.00000E+00  1.74319E-01
      21    -1     0     0   511   501  0.000000000E+00  0.000000000E+00  8.711065015E+02  8.711065015E+02  0.000000000E+00  0.00000E+00  9.000E+00
      21    -1     0     0   501   502  0.000000000E+00  0.000000000E+00 -1.072587718E+02  1.072587718E+02  0.000000000E+00  0.00000E+00  9.000E+00
      25     1     1     2     0     0  2.157475685E+02  1.484761971E+02  4.996119490E+02  5.777796240E+02  1.250000000E+02  0.00000E+00  9.000E+00
      25     1     1     2     0     0 -2.127112040E+02 -1.325747497E+02  2.289120460E+02  3.617289667E+02  1.250000000E+02  0.00000E+00  9.000E+00
      21     1     1     2   511   502 -3.036364474E+00 -1.590144738E+01  3.532373476E+01  3.885668251E+01  0.000000000E+00  0.00000E+00  9.000E+00
#rwgt            1           1   2.5227852024178377E-002           1      210338           0
</event>
<event>
      5   9999  3.79277E-02  4.48947E+01 -1.00000E+00  1.41798E-01
      21    -1     0     0   512   501  0.000000000E+00  0.000000000E+00  8.561995037E+02  8.561995037E+02  0.000000000E+00  0.00000E+00  9.000E+00
      21    -1     0     0   501   502  0.000000000E+00  0.000000000E+00 -6.108712297E+01  6.108712297E+01  0.000000000E+00  0.00000E+00  9.000E+00
      25     1     1     2     0     0 -3.795299108E+01 -1.342103136E+02  1.552769169E+02  2.432873994E+02  1.250000000E+02  0.00000E+00  9.000E+00
      25     1     1     2     0     0  5.765699845E+01  9.387070890E+01  4.875467392E+02  5.152308826E+02  1.250000000E+02  0.00000E+00  9.000E+00
      21     1     1     2   512   502 -1.970400737E+01  4.033960468E+01  1.522887246E+02  1.587683446E+02  2.697398305E-06  0.00000E+00  9.000E+00
#rwgt            1           1   4.3576907994871357E-002           1      210621           0
</event>
<event>
      5   9999  3.79277E-02  6.60589E+01 -1.00000E+00  1.32508E-01
      21    -1     0     0   502   511  0.000000000E+00  0.000000000E+00  1.709441207E+02  1.709441207E+02  0.000000000E+00  0.00000E+00  9.000E+00
      21    -1     0     0   501   502  0.000000000E+00  0.000000000E+00 -6.729652759E+02  6.729652759E+02  0.000000000E+00  0.00000E+00  9.000E+00
      25     1     1     2     0     0 -1.441016951E+02  1.129286900E+01 -2.086661909E+02  2.829477101E+02  1.250000000E+02  0.00000E+00  9.000E+00
      25     1     1     2     0     0  1.398989734E+02  5.463219248E+01 -3.944510871E+02  4.401966144E+02  1.250000000E+02  0.00000E+00  9.000E+00
      21     1     1     2   501   511  4.202721763E+00 -6.592506148E+01  1.010961228E+02  1.207650721E+02  3.303624740E-06  0.00000E+00  9.000E+00
#rwgt            1           1   4.1724113870060385E-002           1      210751           0
</event>
<event>
      5   9999  3.79277E-02  2.99598E+01 -1.00000E+00  1.53080E-01
      21    -1     0     0   502   512  0.000000000E+00  0.000000000E+00  3.018001943E+02  3.018001943E+02  0.000000000E+00  0.00000E+00  9.000E+00
      21    -1     0     0   501   502  0.000000000E+00  0.000000000E+00 -5.151732080E+02  5.151732080E+02  0.000000000E+00  0.00000E+00  9.000E+00
      25     1     1     2     0     0  3.394467631E+01  4.607734644E+01  3.514460999E+01  1.418996354E+02  1.250000000E+02  0.00000E+00  9.000E+00
      25     1     1     2     0     0 -1.900118701E+01 -2.011045793E+01 -4.518034008E+02  4.695921514E+02  1.250000000E+02  0.00000E+00  9.000E+00
      21     1     1     2   501   512 -1.494348930E+01 -2.596688851E+01  2.032857772E+02  2.054816156E+02  2.697398305E-06  0.00000E+00  9.000E+00
#rwgt            1           1   4.5993790337251900E-002           1      210846           0
</event>
<event>
      5   9999  3.79277E-02  7.74438E+00 -1.00000E+00  2.09532E-01
      21    -1     0     0   502   501  0.000000000E+00  0.000000000E+00  4.022023110E+01  4.022023110E+01  0.000000000E+00  0.00000E+00  9.000E+00
      21    -1     0     0   511   502  0.000000000E+00  0.000000000E+00 -7.295349454E+02  7.295349454E+02  0.000000000E+00  0.00000E+00  9.000E+00
      25     1     1     2     0     0 -2.958859890E+00  5.055070643E+01 -1.154026341E+02  1.775018217E+02  1.250000000E+02  0.00000E+00  9.000E+00
      25     1     1     2     0     0  1.066906886E+01 -4.982402907E+01 -4.987763824E+02  5.167195976E+02  1.250000000E+02  0.00000E+00  9.000E+00
      21     1     1     2   511   501 -7.710208969E+00 -7.266773593E-01 -7.513569787E+01  7.553375720E+01  0.000000000E+00  0.00000E+00  9.000E+00
#rwgt            1           1   3.2043554676603671E-002           1      211012           0
</event>
<event>
      5   9999  3.79277E-02  1.96179E+01 -1.00000E+00  1.67063E-01
      21    -1     0     0   502   512  0.000000000E+00  0.000000000E+00  9.494875274E+01  9.494875274E+01  0.000000000E+00  0.00000E+00  9.000E+00
      21    -1     0     0   501   502  0.000000000E+00  0.000000000E+00 -5.309809997E+02  5.309809997E+02  0.000000000E+00  0.00000E+00  9.000E+00
      25     1     1     2     0     0 -9.614511210E+01 -2.743098100E+01 -2.526139646E+02  2.990571123E+02  1.250000000E+02  0.00000E+00  9.000E+00
      25     1     1     2     0     0  1.148966835E+02  3.319641137E+01 -2.232726066E+02  2.824516002E+02  1.250000000E+02  0.00000E+00  9.000E+00
      21     1     1     2   501   512 -1.875157139E+01 -5.765430366E+00  3.985432431E+01  4.442103987E+01  9.536743164E-07  0.00000E+00  9.000E+00
#rwgt            1           1   2.8974420835320248E-002           1      211480           0
</event>
<event>
      5   9999  3.79277E-02  2.11368E+01 -1.00000E+00  1.64412E-01
      21    -1     0     0   502   511  0.000000000E+00  0.000000000E+00  1.559583284E+03  1.559583284E+03  0.000000000E+00  0.00000E+00  9.000E+00
      21    -1     0     0   501   502  0.000000000E+00  0.000000000E+00 -3.019601033E+01  3.019601033E+01  0.000000000E+00  0.00000E+00  9.000E+00
      25     1     1     2     0     0  6.903435231E+01 -1.048640048E+02  3.675874466E+02  4.080535898E+02  1.250000000E+02  0.00000E+00  9.000E+00
      25     1     1     2     0     0 -6.719187633E+01  1.259203842E+02  9.422754437E+02  9.611860918E+02  1.250000000E+02  0.00000E+00  9.000E+00
      21     1     1     2   501   511 -1.842475978E+00 -2.105637939E+01  2.195243837E+02  2.205396130E+02  2.697398305E-06  0.00000E+00  9.000E+00
#rwgt            1           1   4.0618335851535584E-002           1      211624           0
</event>
<event>
      5   9999  3.79277E-02  1.33948E+02 -1.00000E+00  1.18376E-01
      21    -1     0     0   502   501  0.000000000E+00  0.000000000E+00  1.305566310E+02  1.305566310E+02  0.000000000E+00  0.00000E+00  9.000E+00
       2    -1     0     0   501     0  0.000000000E+00  0.000000000E+00 -1.713737529E+03  1.713737529E+03  0.000000000E+00  0.00000E+00  9.000E+00
      25     1     1     2     0     0  1.267132053E+02  6.018319334E+01 -1.274232730E+02  2.270241037E+02  1.250000000E+02  0.00000E+00  9.000E+00
      25     1     1     2     0     0 -4.684070071E+01 -1.677115853E+02 -7.063966339E+01  2.256904720E+02  1.250000000E+02  0.00000E+00  9.000E+00
       2     1     1     2   502     0 -7.987250463E+01  1.075283920E+02 -1.385117961E+03  1.391579584E+03  0.000000000E+00  0.00000E+00  9.000E+00
#rwgt            1           1   3.4247492826217314E-002           1      211923           0
</event>
<event>
      5   9999  3.79277E-02  9.31956E+01 -1.00000E+00  1.25220E-01
      21    -1     0     0   502   501  0.000000000E+00  0.000000000E+00  6.148267936E+02  6.148267936E+02  0.000000000E+00  0.00000E+00  9.000E+00
      21    -1     0     0   501   511  0.000000000E+00  0.000000000E+00 -1.826995322E+02  1.826995322E+02  0.000000000E+00  0.00000E+00  9.000E+00
      25     1     1     2     0     0  4.577660166E+01 -2.157707378E+02  3.115541245E+02  4.016758407E+02  1.250000000E+02  0.00000E+00  9.000E+00
      25     1     1     2     0     0  4.158858898E+01  2.482166680E+02  1.111012799E+02  3.021748159E+02  1.250000000E+02  0.00000E+00  9.000E+00
      21     1     1     2   502   511 -8.736519064E+01 -3.244593019E+01  9.471857038E+00  9.367566918E+01  2.050954167E-06  0.00000E+00  9.000E+00
#rwgt            1           1   4.0142750294573364E-002           1      211997           0
</event>
<event>
      5   9999  3.79277E-02  1.37525E+01 -1.00000E+00  1.81012E-01
       1    -1     0     0   502     0  0.000000000E+00  0.000000000E+00  6.425212201E+01  6.425212201E+01  0.000000000E+00  0.00000E+00  9.000E+00
      21    -1     0     0   501   502  0.000000000E+00  0.000000000E+00 -2.939452155E+03  2.939452155E+03  0.000000000E+00  0.00000E+00  9.000E+00
      25     1     1     2     0     0 -4.107291567E+01  4.422098201E+01 -7.877742578E+02  7.999098455E+02  1.250000000E+02  0.00000E+00  9.000E+00
      25     1     1     2     0     0  4.665990860E+01 -5.678742674E+01 -2.142310767E+03  2.147212700E+03  1.250000000E+02  0.00000E+00  9.000E+00
       1     1     1     2   501     0 -5.586992927E+00  1.256644473E+01  5.488499151E+01  5.658173129E+01  5.001110307E-06  0.00000E+00  9.000E+00
#rwgt            1           1   3.5925748290682076E-002           1      212156           0
</event>
<event>
      5   9999  3.79277E-02  3.06428E+01 -1.00000E+00  1.52403E-01
      21    -1     0     0   502   501  0.000000000E+00  0.000000000E+00  3.734886729E+02  3.734886729E+02  0.000000000E+00  0.00000E+00  9.000E+00
      21    -1     0     0   501   511  0.000000000E+00  0.000000000E+00 -1.414129235E+02  1.414129235E+02  0.000000000E+00  0.00000E+00  9.000E+00
      25     1     1     2     0     0 -7.256251956E+01 -7.817161566E+01 -4.496240446E+01  1.703606133E+02  1.250000000E+02  0.00000E+00  9.000E+00
      25     1     1     2     0     0  5.758427753E+01  5.143899578E+01  2.773876421E+02  3.138961983E+02  1.250000000E+02  0.00000E+00  9.000E+00
      21     1     1     2   502   511  1.497824203E+01  2.673261988E+01 -3.494881723E-01  3.064478490E+01  3.482299669E-07  0.00000E+00  9.000E+00
#rwgt            1           1   3.7125648166897930E-002           1      212339           0
</event>
<event>
      5   9999  3.79277E-02  3.23387E+01 -1.00000E+00  1.50809E-01
      21    -1     0     0   502   501  0.000000000E+00  0.000000000E+00  4.085475352E+02  4.085475352E+02  0.000000000E+00  0.00000E+00  9.000E+00
      21    -1     0     0   501   512  0.000000000E+00  0.000000000E+00 -1.620713489E+02  1.620713489E+02  0.000000000E+00  0.00000E+00  9.000E+00
      25     1     1     2     0     0 -6.143090121E+01 -1.432632562E+02  6.934054159E+01  2.114975813E+02  1.250000000E+02  0.00000E+00  9.000E+00
      25     1     1     2     0     0  8.016225279E+01  1.696247300E+02  2.134754496E+02  3.104759304E+02  1.250000000E+02  0.00000E+00  9.000E+00
      21     1     1     2   502   512 -1.873135158E+01 -2.636147381E+01 -3.633980488E+01  4.864537236E+01  8.259061849E-07  0.00000E+00  9.000E+00
#rwgt            1           1   3.9333389824713530E-002           1      212515           0
</event>
<event>
      5   9999  3.79277E-02  2.68217E+01 -1.00000E+00  1.56496E-01
      21    -1     0     0   502   501  0.000000000E+00  0.000000000E+00  4.920294991E+01  4.920294991E+01  0.000000000E+00  0.00000E+00  9.000E+00
      21    -1     0     0   501   511  0.000000000E+00  0.000000000E+00 -9.250856557E+02  9.250856557E+02  0.000000000E+00  0.00000E+00  9.000E+00
      25     1     1     2     0     0 -9.055017708E+01  9.412150801E+01 -4.101913402E+02  4.482634587E+02  1.250000000E+02  0.00000E+00  9.000E+00
      25     1     1     2     0     0  8.273821031E+01 -1.197803902E+02 -2.863833695E+02  3.447221891E+02  1.250000000E+02  0.00000E+00  9.000E+00
      21     1     1     2   502   511  7.811966770E+00  2.565888216E+01 -1.793079961E+02  1.813029578E+02  3.303624740E-06  0.00000E+00  9.000E+00
#rwgt            1           1   4.5561865010488742E-002           1      212672           0
</event>
<event>
      5   9999  3.79277E-02  5.81700E+01 -1.00000E+00  1.35426E-01
      21    -1     0     0   502   501  0.000000000E+00  0.000000000E+00  9.474756518E+02  9.474756518E+02  0.000000000E+00  0.00000E+00  9.000E+00
       4    -1     0     0   501     0  0.000000000E+00  0.000000000E+00 -2.779224904E+02  2.779224904E+02  0.000000000E+00  0.00000E+00  9.000E+00
      25     1     1     2     0     0  2.367901323E+02 -1.608102016E+01  5.852811675E+02  6.438223443E+02  1.250000000E+02  0.00000E+00  9.000E+00
      25     1     1     2     0     0 -1.835800106E+02 -7.422881216E+00  2.913833836E+02  3.664505365E+02  1.250000000E+02  0.00000E+00  9.000E+00
       4     1     1     2   502     0 -5.321012165E+01  2.350390137E+01 -2.071113896E+02  2.151252615E+02  0.000000000E+00  0.00000E+00  9.000E+00
#rwgt            1           1   3.3780115580550253E-002           1      212810           0
</event>
<event>
      5   9999  3.79277E-02  1.83687E+01 -1.00000E+00  1.69477E-01
      21    -1     0     0   502   501  0.000000000E+00  0.000000000E+00  9.926050484E+02  9.926050484E+02  0.000000000E+00  0.00000E+00  9.000E+00
      21    -1     0     0   501   511  0.000000000E+00  0.000000000E+00 -4.274921623E+01  4.274921623E+01  0.000000000E+00  0.00000E+00  9.000E+00
      25     1     1     2     0     0 -4.560853028E+01  7.511404742E+01  7.451307059E+02  7.606359359E+02  1.250000000E+02  0.00000E+00  9.000E+00
      25     1     1     2     0     0  5.444406325E+01 -9.121811835E+01  1.757559487E+02  2.404164193E+02  1.250000000E+02  0.00000E+00  9.000E+00
      21     1     1     2   502   511 -8.835532966E+00  1.610407093E+01  2.896917751E+01  3.430190941E+01  3.371747881E-07  0.00000E+00  9.000E+00
#rwgt            2          11   8.7206247667023420E-003           1      212860           0
</event>
<event>
      5   9999  3.79277E-02  4.46458E+01 -1.00000E+00  1.41941E-01
      21    -1     0     0   502   501  0.000000000E+00  0.000000000E+00  1.670692383E+02  1.670692383E+02  0.000000000E+00  0.00000E+00  9.000E+00
      21    -1     0     0   512   502  0.000000000E+00  0.000000000E+00 -3.997686487E+02  3.997686487E+02  0.000000000E+00  0.00000E+00  9.000E+00
      25     1     1     2     0     0  1.088528857E+02  3.650213403E+01 -8.642409461E+01  1.904612313E+02  1.250000000E+02  0.00000E+00  9.000E+00
      25     1     1     2     0     0 -1.075286238E+02 -8.112824105E+01  3.724795008E+01  1.875009499E+02  1.250000000E+02  0.00000E+00  9.000E+00
      21     1     1     2   512   501 -1.324261932E+00  4.462610702E+01 -1.835232659E+02  1.888757057E+02  0.000000000E+00  0.00000E+00  9.000E+00
#rwgt            1           1   3.7461182757094376E-002           1      212880           0
</event>
<event>
      5   9999  3.79277E-02  1.36165E+01 -1.00000E+00  1.81437E-01
      21    -1     0     0   502   501  0.000000000E+00  0.000000000E+00  4.066318387E+02  4.066318387E+02  0.000000000E+00  0.00000E+00  9.000E+00
      21    -1     0     0   501   511  0.000000000E+00  0.000000000E+00 -1.285207337E+02  1.285207337E+02  0.000000000E+00  0.00000E+00  9.000E+00
      25     1     1     2     0     0  1.127760250E+02  1.238158475E+02  2.252476935E+02  3.072626228E+02  1.250000000E+02  0.00000E+00  9.000E+00
      25     1     1     2     0     0 -9.926592918E+01 -1.255144839E+02  6.100624180E+01  2.120244607E+02  1.250000000E+02  0.00000E+00  9.000E+00
      21     1     1     2   502   511 -1.351009582E+01  1.698636438E+00 -8.142830268E+00  1.586548895E+01  2.665600750E-07  0.00000E+00  9.000E+00
#rwgt            1           1   3.5176794414405362E-002           1      213037           0
</event>
<event>
      5   9999  3.79277E-02  1.03543E+02 -1.00000E+00  1.23152E-01
      21    -1     0     0   502   501  0.000000000E+00  0.000000000E+00  1.244402559E+03  1.244402559E+03  0.000000000E+00  0.00000E+00  9.000E+00
      21    -1     0     0   512   502  0.000000000E+00  0.000000000E+00 -1.281099255E+02  1.281099255E+02  0.000000000E+00  0.00000E+00  9.000E+00
      25     1     1     2     0     0  3.655004161E+01  1.308426678E+02  1.012674520E+03  1.029364072E+03  1.250000000E+02  0.00000E+00  9.000E+00
      25     1     1     2     0     0 -1.394971839E+02 -1.197473973E+02  5.646247174E+01  2.293728715E+02  1.250000000E+02  0.00000E+00  9.000E+00
      21     1     1     2   512   501  1.029471423E+02 -1.109527054E+01  4.715564143E+01  1.137755407E+02  2.236564522E-06  0.00000E+00  9.000E+00
#rwgt            1           1   2.5224895598476928E-002           1      213245           0
</event>
<event>
      5   9999  3.79277E-02  3.51905E+01 -1.00000E+00  1.48377E-01
      21    -1     0     0   502   501  0.000000000E+00  0.000000000E+00  2.196220977E+02  2.196220977E+02  0.000000000E+00  0.00000E+00  9.000E+00
      21    -1     0     0   501   511  0.000000000E+00  0.000000000E+00 -2.053296094E+02  2.053296094E+02  0.000000000E+00  0.00000E+00  9.000E+00
      25     1     1     2     0     0  3.517482104E+01  1.292531291E+02  3.097982505E+00  1.832436545E+02  1.250000000E+02  0.00000E+00  9.000E+00
      25     1     1     2     0     0 -6.699804451E+01 -1.442748766E+02  2.511952566E+01  2.038626218E+02  1.250000000E+02  0.00000E+00  9.000E+00
      21     1     1     2   502   511  3.182322348E+01  1.502174749E+01 -1.392501987E+01  3.784543075E+01  5.331201500E-07  0.00000E+00  9.000E+00
#rwgt            1           1   3.8068543713915166E-002           1      213388           0
</event>
<event>
      5   9999  3.79277E-02  1.54467E+01 -1.00000E+00  1.76191E-01
      21    -1     0     0   502   501  0.000000000E+00  0.000000000E+00  3.558232235E+02  3.558232235E+02  0.000000000E+00  0.00000E+00  9.000E+00
      21    -1     0     0   501   512  0.000000000E+00  0.000000000E+00 -1.050607856E+02  1.050607856E+02  0.000000000E+00  0.00000E+00  9.000E+00
      25     1     1     2     0     0  1.442858601E+01 -1.053332258E+02  9.017368462E+01  1.872419984E+02  1.250000000E+02  0.00000E+00  9.000E+00
      25     1     1     2     0     0 -2.115894138E+01  9.142992670E+01  1.865835773E+02  2.434041158E+02  1.250000000E+02  0.00000E+00  9.000E+00
      21     1     1     2   502   512  6.730355374E+00  1.390329914E+01 -2.599482397E+01  3.023789483E+01  5.840038640E-07  0.00000E+00  9.000E+00
#rwgt            1           1   9.0031911345395482E-002           1      213565           0
</event>
<event>
      5   9999  3.79277E-02  1.21987E+02 -1.00000E+00  1.20066E-01
      21    -1     0     0   502   501  0.000000000E+00  0.000000000E+00  3.542307179E+02  3.542307179E+02  0.000000000E+00  0.00000E+00  9.000E+00
       2    -1     0     0   501     0  0.000000000E+00  0.000000000E+00 -4.675765564E+02  4.675765564E+02  0.000000000E+00  0.00000E+00  9.000E+00
      25     1     1     2     0     0 -1.905971374E+02  6.748663115E+01  1.747608388E+02  2.950390905E+02  1.250000000E+02  0.00000E+00  9.000E+00
      25     1     1     2     0     0  7.108918487E+01 -4.301664843E+01  5.713895862E+01  1.606049963E+02  1.250000000E+02  0.00000E+00  9.000E+00
       2     1     1     2   502     0  1.195079525E+02 -2.446998272E+01 -3.452456359E+02  3.661631875E+02  3.814697266E-06  0.00000E+00  9.000E+00
#rwgt            1           1  0.20166210276050867                1      213802           0
</event>
<event>
      5   9999  3.79277E-02  1.42984E+01 -1.00000E+00  1.79366E-01
      21    -1     0     0   502   511  0.000000000E+00  0.000000000E+00  2.052287791E+02  2.052287791E+02  0.000000000E+00  0.00000E+00  9.000E+00
      21    -1     0     0   501   502  0.000000000E+00  0.000000000E+00 -2.643231457E+02  2.643231457E+02  0.000000000E+00  0.00000E+00  9.000E+00
      25     1     1     2     0     0  1.458388807E+02  2.459262457E+01 -1.423076466E+02  2.403128015E+02  1.250000000E+02  0.00000E+00  9.000E+00
      25     1     1     2     0     0 -1.434069249E+02 -1.050258744E+01  5.614768675E+01  1.986288327E+02  1.250000000E+02  0.00000E+00  9.000E+00
      21     1     1     2   501   511 -2.431955827E+00 -1.409003713E+01  2.706559318E+01  3.061029059E+01  4.768371582E-07  0.00000E+00  9.000E+00
#rwgt            1           1   3.7022313293414516E-002           1      213860           0
</event>
<event>
      5   9999  3.79277E-02  4.18196E+01 -1.00000E+00  1.43652E-01
       2    -1     0     0   502     0  0.000000000E+00  0.000000000E+00  1.583749709E+03  1.583749709E+03  0.000000000E+00  0.00000E+00  9.000E+00
      21    -1     0     0   501   502  0.000000000E+00  0.000000000E+00 -3.378108080E+01  3.378108080E+01  0.000000000E+00  0.00000E+00  9.000E+00
      25     1     1     2     0     0 -1.313987784E+02  1.607270201E+01  3.019647487E+02  3.526069769E+02  1.250000000E+02  0.00000E+00  9.000E+00
      25     1     1     2     0     0  1.053161945E+02  1.661639957E+01  1.009210884E+03  1.022496559E+03  1.250000000E+02  0.00000E+00  9.000E+00
       2     1     1     2   501     0  2.608258383E+01 -3.268910158E+01  2.387929959E+02  2.424272539E+02  2.697398305E-06  0.00000E+00  9.000E+00
#rwgt            1           1   4.2291428325953305E-002           1      214132           0
</event>
<event>
      5   9999 -3.79277E-02  2.67760E+01 -1.00000E+00  1.56550E-01
      21    -1     0     0   502   501  0.000000000E+00  0.000000000E+00  4.764493197E+02  4.764493197E+02  0.000000000E+00  0.00000E+00  9.000E+00
      21    -1     0     0   511   502  0.000000000E+00  0.000000000E+00 -1.502519305E+02  1.502519305E+02  0.000000000E+00  0.00000E+00  9.000E+00
      25     1     1     2     0     0  2.084690608E+02 -6.132906188E+00  1.137482746E+02  2.684411143E+02  1.250000000E+02  0.00000E+00  9.000E+00
      25     1     1     2     0     0 -2.192908455E+02  3.062464758E+01  2.126728495E+02  3.314831593E+02  1.250000000E+02  0.00000E+00  9.000E+00
      21     1     1     2   511   501  1.082178469E+01 -2.449174140E+01 -2.237349591E-01  2.677697664E+01  4.458380365E-07  0.00000E+00  9.000E+00
#rwgt            1           1  -5.3366572082695005E-002           1      214228           0
</event>
<event>
      5   9999  3.79277E-02  5.11136E+01 -1.00000E+00  1.38532E-01
       2    -1     0     0   502     0  0.000000000E+00  0.000000000E+00  7.965501666E+02  7.965501666E+02  0.000000000E+00  0.00000E+00  9.000E+00
      21    -1     0     0   501   502  0.000000000E+00  0.000000000E+00 -5.440396253E+01  5.440396253E+01  0.000000000E+00  0.00000E+00  9.000E+00
      25     1     1     2     0     0  1.641682248E+01 -5.805575234E+01  2.811327225E+02  3.135292492E+02  1.250000000E+02  0.00000E+00  9.000E+00
      25     1     1     2     0     0 -6.570883329E+01  4.453178632E+01  1.145454597E+02  1.872068191E+02  1.250000000E+02  0.00000E+00  9.000E+00
       2     1     1     2   501     0  4.929201081E+01  1.352396602E+01  3.464680218E+02  3.502180608E+02  5.394796609E-06  0.00000E+00  9.000E+00
#rwgt            1           1  0.11386647307168518                1      214393           0
</event>
<event>
      5   9999  3.79277E-02  6.16756E+01 -1.00000E+00  1.34067E-01
      21    -1     0     0   511   501  0.000000000E+00  0.000000000E+00  4.013074931E+01  4.013074931E+01  0.000000000E+00  0.00000E+00  9.000E+00
      21    -1     0     0   501   502  0.000000000E+00  0.000000000E+00 -2.298395739E+03  2.298395739E+03  0.000000000E+00  0.00000E+00  9.000E+00
      25     1     1     2     0     0  6.204757755E+01 -1.346170382E+02 -6.244698769E+02  6.538801694E+02  1.250000000E+02  0.00000E+00  9.000E+00
      25     1     1     2     0     0 -1.170303321E+02  1.066747663E+02 -1.603118584E+03  1.615762916E+03  1.250000000E+02  0.00000E+00  9.000E+00
      21     1     1     2   511   502  5.498275453E+01  2.794227189E+01 -3.067652879E+01  6.888340346E+01  4.768371582E-07  0.00000E+00  9.000E+00
#rwgt            1           1   8.0537081660645965E-002           1      214475           0
</event>
<event>
      5   9999  3.79277E-02  5.78986E+01 -1.00000E+00  1.35536E-01
      21    -1     0     0   502   501  0.000000000E+00  0.000000000E+00  1.582108159E+02  1.582108159E+02  0.000000000E+00  0.00000E+00  9.000E+00
      21    -1     0     0   512   502  0.000000000E+00  0.000000000E+00 -5.488279049E+02  5.488279049E+02  0.000000000E+00  0.00000E+00  9.000E+00
      25     1     1     2     0     0 -1.328184459E+02 -7.132757888E+01 -2.086556535E+02  2.861652404E+02  1.250000000E+02  0.00000E+00  9.000E+00
      25     1     1     2     0     0  1.049265320E+02  1.220650580E+02  2.558748514E+01  2.054000363E+02  1.250000000E+02  0.00000E+00  9.000E+00
      21     1     1     2   512   501  2.789191384E+01 -5.073747911E+01 -2.075489206E+02  2.154734441E+02  4.672030912E-06  0.00000E+00  9.000E+00
#rwgt            1           1   4.0454707590419234E-002           1      214632           0
</event>
<event>
      5   9999  3.79277E-02  3.07085E+01 -1.00000E+00  1.52339E-01
      21    -1     0     0   502   501  0.000000000E+00  0.000000000E+00  1.238774926E+03  1.238774926E+03  0.000000000E+00  0.00000E+00  9.000E+00
      21    -1     0     0   511   502  0.000000000E+00  0.000000000E+00 -8.223206105E+01  8.223206105E+01  0.000000000E+00  0.00000E+00  9.000E+00
      25     1     1     2     0     0 -2.240248338E+02 -8.247289848E+01  8.243240330E+02  8.672508383E+02  1.250000000E+02  0.00000E+00  9.000E+00
      25     1     1     2     0     0  2.109280341E+02  1.102485656E+02  3.257836457E+02  4.223805933E+02  1.250000000E+02  0.00000E+00  9.000E+00
      21     1     1     2   511   501  1.309679963E+01 -2.777566713E+01  6.435185998E+00  3.137555519E+01  4.693274423E-07  0.00000E+00  9.000E+00
#rwgt            1           1   3.8121821750696852E-002           1      214716           0
</event>
<event>
      5   9999  3.79277E-02  3.40780E+01 -1.00000E+00  1.49292E-01
      21    -1     0     0   502   512  0.000000000E+00  0.000000000E+00  5.145145464E+02  5.145145464E+02  0.000000000E+00  0.00000E+00  9.000E+00
      21    -1     0     0   501   502  0.000000000E+00  0.000000000E+00 -1.400671460E+02  1.400671460E+02  0.000000000E+00  0.00000E+00  9.000E+00
      25     1     1     2     0     0 -5.265730542E+01  1.801518609E+02  2.982701282E+02  3.739218557E+02  1.250000000E+02  0.00000E+00  9.000E+00
      25     1     1     2     0     0  1.911459526E+01 -1.741352839E+02  2.155969641E+01  2.162828828E+02  1.250000000E+02  0.00000E+00  9.000E+00
      21     1     1     2   501   512  3.354271015E+01 -6.016576958E+00  5.461757587E+01  6.437695392E+01  6.743495762E-07  0.00000E+00  9.000E+00
#rwgt            1           1   3.5177276288490544E-002           1      214931           0
</event>
<event>
      5   9999  3.79277E-02  1.80131E+02 -1.00000E+00  1.13328E-01
      21    -1     0     0   502   501  0.000000000E+00  0.000000000E+00  1.467254189E+02  1.467254189E+02  0.000000000E+00  0.00000E+00  9.000E+00
      21    -1     0     0   501   511  0.000000000E+00  0.000000000E+00 -9.463955681E+02  9.463955681E+02  0.000000000E+00  0.00000E+00  9.000E+00
      25     1     1     2     0     0  1.955876786E+02  1.428798525E+02 -4.983104329E+01  2.770872158E+02  1.250000000E+02  0.00000E+00  9.000E+00
      25     1     1     2     0     0 -3.956515463E+01 -5.285768880E+01 -3.083271822E+02  3.391901945E+02  1.250000000E+02  0.00000E+00  9.000E+00
      21     1     1     2   502   511 -1.560225240E+02 -9.002216373E+01 -4.415119236E+02  4.768435767E+02  0.000000000E+00  0.00000E+00  9.000E+00
#rwgt            1           1   3.4489879569743684E-002           1      215085           0
</event>
<event>
      5   9999  3.79277E-02  1.25777E+01 -1.00000E+00  1.84906E-01
      21    -1     0     0   512   501  0.000000000E+00  0.000000000E+00  3.233442457E+02  3.233442457E+02  0.000000000E+00  0.00000E+00  9.000E+00
      21    -1     0     0   501   502  0.000000000E+00  0.000000000E+00 -3.189269954E+02  3.189269954E+02  0.000000000E+00  0.00000E+00  9.000E+00
      25     1     1     2     0     0 -2.433686203E+02  1.274418896E+01  1.427989561E+02  3.088806267E+02  1.250000000E+02  0.00000E+00  9.000E+00
      25     1     1     2     0     0  2.497380630E+02 -2.358984244E+01 -1.485626649E+02  3.172088368E+02  1.250000000E+02  0.00000E+00  9.000E+00
      21     1     1     2   512   502 -6.369442645E+00  1.084565348E+01  1.018095908E+01  1.618177762E+01  1.685873940E-07  0.00000E+00  9.000E+00
#rwgt            1           1   4.0952369859303096E-002           1      215205           0
</event>
<event>
      5   9999  3.79277E-02  5.90924E+01 -1.00000E+00  1.35058E-01
      21    -1     0     0   502   501  0.000000000E+00  0.000000000E+00  1.750973269E+02  1.750973269E+02  0.000000000E+00  0.00000E+00  9.000E+00
      21    -1     0     0   511   502  0.000000000E+00  0.000000000E+00 -3.529601004E+02  3.529601004E+02  0.000000000E+00  0.00000E+00  9.000E+00
      25     1     1     2     0     0 -1.144697395E+02 -8.550992926E+01  6.877866057E+01  2.019177392E+02  1.250000000E+02  0.00000E+00  9.000E+00
      25     1     1     2     0     0  7.337189301E+01  4.304965987E+01 -1.508119003E+02  2.135554663E+02  1.250000000E+02  0.00000E+00  9.000E+00
      21     1     1     2   511   501  4.109784652E+01  4.246026939E+01 -9.582953370E+01  1.125842218E+02  1.348699152E-06  0.00000E+00  9.000E+00
#rwgt            1           1   4.4641536857209264E-002           1      215393           0
</event>
<event>
      5   9999  3.79277E-02  1.13379E+01 -1.00000E+00  1.89658E-01
      21    -1     0     0   502   501  0.000000000E+00  0.000000000E+00  2.371113822E+02  2.371113822E+02  0.000000000E+00  0.00000E+00  9.000E+00
       2    -1     0     0   501     0  0.000000000E+00  0.000000000E+00 -5.022908473E+02  5.022908473E+02  0.000000000E+00  0.00000E+00  9.000E+00
      25     1     1     2     0     0 -1.735757143E+01 -1.231889892E+02  1.629648841E+02  2.401236469E+02  1.250000000E+02  0.00000E+00  9.000E+00
      25     1     1     2     0     0  6.058820620E+00  1.222481686E+02 -1.804806614E+02  2.513555115E+02  1.250000000E+02  0.00000E+00  9.000E+00
       2     1     1     2   502     0  1.129875081E+01  9.408206337E-01 -2.476636878E+02  2.479230710E+02  2.697398305E-06  0.00000E+00  9.000E+00
#rwgt            1           1   3.3784442899956357E-002           1      215576           0
</event>
<event>
      5   9999  3.79277E-02  1.31136E+02 -1.00000E+00  1.18755E-01
      21    -1     0     0   502   501  0.000000000E+00  0.000000000E+00  4.734442392E+02  4.734442392E+02  0.000000000E+00  0.00000E+00  9.000E+00
      21    -1     0     0   501   511  0.000000000E+00  0.000000000E+00 -1.944008563E+02  1.944008563E+02  0.000000000E+00  0.00000E+00  9.000E+00
      25     1     1     2     0     0  7.806211485E+01  1.996126228E+02  2.817312755E+02  3.754149765E+02  1.250000000E+02  0.00000E+00  9.000E+00
      25     1     1     2     0     0 -6.399147123E+01 -6.923402175E+01 -2.751084842E+01  1.589657351E+02  1.250000000E+02  0.00000E+00  9.000E+00
      21     1     1     2   502   511 -1.407064363E+01 -1.303786011E+02  2.482295576E+01  1.334643839E+02  1.011524364E-06  0.00000E+00  9.000E+00
#rwgt            1           1   4.0658573852594929E-002           1      215826           0
</event>
<event>
      5   9999  3.79277E-02  1.46413E+02 -1.00000E+00  1.16812E-01
       1    -1     0     0   502     0  0.000000000E+00  0.000000000E+00  1.650593700E+03  1.650593700E+03  0.000000000E+00  0.00000E+00  9.000E+00
      21    -1     0     0   501   502  0.000000000E+00  0.000000000E+00 -2.377791893E+02  2.377791893E+02  0.000000000E+00  0.00000E+00  9.000E+00
      25     1     1     2     0     0 -1.956867799E+02 -2.405630275E+00  4.228493189E+01  2.360341465E+02  1.250000000E+02  0.00000E+00  9.000E+00
      25     1     1     2     0     0  2.302251252E+02  1.446864554E+02  2.659219251E+01  3.004495354E+02  1.250000000E+02  0.00000E+00  9.000E+00
       1     1     1     2   501     0 -3.453834532E+01 -1.422808252E+02  1.343937387E+03  1.351889208E+03  0.000000000E+00  0.00000E+00  9.000E+00
#rwgt            1           1   4.0533145029378922E-002           1      215866           0
</event>
<event>
      5   9999  3.79277E-02  6.91317E+01 -1.00000E+00  1.31496E-01
      21    -1     0     0   511   501  0.000000000E+00  0.000000000E+00  3.273133710E+02  3.273133710E+02  0.000000000E+00  0.00000E+00  9.000E+00
      21    -1     0     0   501   502  0.000000000E+00  0.000000000E+00 -5.677170836E+02  5.677170836E+02  0.000000000E+00  0.00000E+00  9.000E+00
      25     1     1     2     0     0  1.084161469E+02  1.212381218E+02 -1.383655459E+02  2.474323491E+02  1.250000000E+02  0.00000E+00  9.000E+00
      25     1     1     2     0     0 -9.869053994E+01 -5.279390789E+01 -3.510938359E+02  3.891258164E+02  1.250000000E+02  0.00000E+00  9.000E+00
      21     1     1     2   511   502 -9.725606921E+00 -6.844421391E+01  2.490556692E+02  2.584722891E+02  5.394796609E-06  0.00000E+00  9.000E+00
#rwgt            1           1   4.4270580225695362E-002           1      215977           0
</event>
<event>
      5   9999  3.79277E-02  5.08745E+01 -1.00000E+00  1.38647E-01
       2    -1     0     0   502     0  0.000000000E+00  0.000000000E+00  1.473207592E+03  1.473207592E+03  0.000000000E+00  0.00000E+00  9.000E+00
      21    -1     0     0   501   502  0.000000000E+00  0.000000000E+00 -7.608383191E+01  7.608383191E+01  0.000000000E+00  0.00000E+00  9.000E+00
      25     1     1     2     0     0  7.286915951E+01 -2.288561084E+01  2.317528905E+01  1.483096747E+02  1.250000000E+02  0.00000E+00  9.000E+00
      25     1     1     2     0     0 -1.235118153E+02  2.773690527E+01  6.119032797E+02  6.372402437E+02  1.250000000E+02  0.00000E+00  9.000E+00
       2     1     1     2   501     0  5.064265580E+01 -4.851294431E+00  7.620451912E+02  7.637415054E+02  0.000000000E+00  0.00000E+00  9.000E+00
#rwgt            1           1   4.2511582942044560E-002           1      216130           0
</event>
<event>
      5   9999  3.79277E-02  8.11168E+00 -1.00000E+00  2.06886E-01
      21    -1     0     0   502   501  0.000000000E+00  0.000000000E+00  1.185053546E+02  1.185053546E+02  0.000000000E+00  0.00000E+00  9.000E+00
       1    -1     0     0   501     0  0.000000000E+00  0.000000000E+00 -3.287027011E+03  3.287027011E+03  0.000000000E+00  0.00000E+00  9.000E+00
      25     1     1     2     0     0  1.234597857E+02  3.366652359E+01 -9.759968680E+01  2.037804023E+02  1.250000000E+02  0.00000E+00  9.000E+00
      25     1     1     2     0     0 -1.300330484E+02 -3.841957875E+01 -6.457787956E+01  1.953969300E+02  1.250000000E+02  0.00000E+00  9.000E+00
       1     1     1     2   502     0  6.573262746E+00  4.753055160E+00 -3.006344090E+03  3.006355033E+03  4.315837288E-05  0.00000E+00  9.000E+00
#rwgt            1           1   3.6873132993876484E-002           1      216228           0
</event>
<event>
      5   9999  3.79277E-02  1.34048E+01 -1.00000E+00  1.82111E-01
      21    -1     0     0   502   501  0.000000000E+00  0.000000000E+00  9.976346138E+01  9.976346138E+01  0.000000000E+00  0.00000E+00  9.000E+00
       2    -1     0     0   501     0  0.000000000E+00  0.000000000E+00 -2.652752619E+03  2.652752619E+03  0.000000000E+00  0.00000E+00  9.000E+00
      25     1     1     2     0     0 -2.085198232E+02  8.326459700E+01 -1.074381112E+02  2.785344817E+02  1.250000000E+02  0.00000E+00  9.000E+00
      25     1     1     2     0     0  2.111851775E+02 -7.012746055E+01 -1.134220850E+03  1.162582890E+03  1.250000000E+02  0.00000E+00  9.000E+00
       2     1     1     2   502     0 -2.665354257E+00 -1.313713644E+01 -1.311330196E+03  1.311398708E+03  1.525878906E-05  0.00000E+00  9.000E+00
#rwgt            1           1   1.6531142827800285E-002           1      216665           0
</event>
<event>
      5   9999  3.79277E-02  3.14817E+01 -1.00000E+00  1.51600E-01
      21    -1     0     0   502   501  0.000000000E+00  0.000000000E+00  1.936973645E+03  1.936973645E+03  0.000000000E+00  0.00000E+00  9.000E+00
      21    -1     0     0   511   502  0.000000000E+00  0.000000000E+00 -2.198541845E+01  2.198541845E+01  0.000000000E+00  0.00000E+00  9.000E+00
      25     1     1     2     0     0  1.262485186E+02 -1.419139095E+01  8.843007783E+02  9.020825630E+02  1.250000000E+02  0.00000E+00  9.000E+00
      25     1     1     2     0     0 -1.577302124E+02  1.414635733E+01  9.152903926E+02  9.372622056E+02  1.250000000E+02  0.00000E+00  9.000E+00
      21     1     1     2   511   501  3.148169373E+01  4.503362636E-02  1.153970561E+02  1.196142953E+02  1.348699152E-06  0.00000E+00  9.000E+00
#rwgt            1           1  0.13003757862788767                1      217006           0
</event>
<event>
      5   9999  3.79277E-02  2.24000E+01 -1.00000E+00  1.62408E-01
      21    -1     0     0   502   501  0.000000000E+00  0.000000000E+00  7.109585011E+02  7.109585011E+02  0.000000000E+00  0.00000E+00  9.000E+00
      21    -1     0     0   501   512  0.000000000E+00  0.000000000E+00 -7.971822830E+01  7.971822830E+01  0.000000000E+00  0.00000E+00  9.000E+00
      25     1     1     2     0     0 -1.249736046E+02 -1.011577801E+02  1.923459172E+02  2.801307733E+02  1.250000000E+02  0.00000E+00  9.000E+00
      25     1     1     2     0     0  1.434918179E+02  8.855477497E+01  4.406397011E+02  4.880780636E+02  1.250000000E+02  0.00000E+00  9.000E+00
      21     1     1     2   502   512 -1.851821329E+01  1.260300514E+01 -1.745345428E+00  2.246789248E+01  2.866295585E-07  0.00000E+00  9.000E+00
#rwgt            1           1   3.8512885414704830E-002           1      217184           0
</event>
<event>
      5   9999  3.79277E-02  4.00964E+01 -1.00000E+00  1.44775E-01
      21    -1     0     0   502   501  0.000000000E+00  0.000000000E+00  2.659528630E+02  2.659528630E+02  0.000000000E+00  0.00000E+00  9.000E+00
      21    -1     0     0   501   511  0.000000000E+00  0.000000000E+00 -1.627802076E+02  1.627802076E+02  0.000000000E+00  0.00000E+00  9.000E+00
      25     1     1     2     0     0 -5.339926710E+01  6.812231431E+01  1.403157911E+02  2.068952698E+02  1.250000000E+02  0.00000E+00  9.000E+00
      25     1     1     2     0     0  8.195072650E+01 -9.627432858E+01 -2.277070119E+01  1.792433339E+02  1.250000000E+02  0.00000E+00  9.000E+00
      21     1     1     2   502   511 -2.855145941E+01  2.815201428E+01 -1.437243449E+01  4.259446696E+01  1.079486029E-06  0.00000E+00  9.000E+00
#rwgt            1           1   3.2393682383413253E-002           1      217388           0
</event>
<event>
      5   9999  3.79277E-02  3.41950E+02 -1.00000E+00  1.03777E-01
      21    -1     0     0   502   512  0.000000000E+00  0.000000000E+00  5.411603074E+02  5.411603074E+02  0.000000000E+00  0.00000E+00  9.000E+00
      21    -1     0     0   501   502  0.000000000E+00  0.000000000E+00 -1.769312778E+03  1.769312778E+03  0.000000000E+00  0.00000E+00  9.000E+00
      25     1     1     2     0     0 -6.042112671E+01 -8.436843803E+01 -1.145472487E+03  1.156936024E+03  1.250000000E+02  0.00000E+00  9.000E+00
      25     1     1     2     0     0  3.921852715E+02  1.529103459E+00 -4.780229870E+02  6.308269188E+02  1.250000000E+02  0.00000E+00  9.000E+00
      21     1     1     2   501   512 -3.317641448E+02  8.283933457E+01  3.953430031E+02  5.227101427E+02  7.629394531E-06  0.00000E+00  9.000E+00
#rwgt            2          11   2.7005364069337145E-003           1      217678           0
</event>
<event>
      5   9999  3.79277E-02  5.27361E+01 -1.00000E+00  1.37768E-01
      21    -1     0     0   502   501  0.000000000E+00  0.000000000E+00  2.326569726E+02  2.326569726E+02  0.000000000E+00  0.00000E+00  9.000E+00
      21    -1     0     0   501   511  0.000000000E+00  0.000000000E+00 -5.423724626E+02  5.423724626E+02  0.000000000E+00  0.00000E+00  9.000E+00
      25     1     1     2     0     0 -1.471202099E+02  9.149932336E+01 -7.199975992E+01  2.254449994E+02  1.250000000E+02  0.00000E+00  9.000E+00
      25     1     1     2     0     0  1.998424858E+02 -9.270784123E+01  4.906067858E+01  2.579994440E+02  1.250000000E+02  0.00000E+00  9.000E+00
      21     1     1     2   502   511 -5.272227586E+01  1.208517862E+00 -2.867764086E+02  2.915849918E+02  5.394796609E-06  0.00000E+00  9.000E+00
#rwgt            1           1   5.8790272429129098E-002           1      217713           0
</event>
<event>
      5   9999  3.79277E-02  1.66821E+02 -1.00000E+00  1.14593E-01
       1    -1     0     0   502     0  0.000000000E+00  0.000000000E+00  6.817520156E+02  6.817520156E+02  0.000000000E+00  0.00000E+00  9.000E+00
      21    -1     0     0   501   502  0.000000000E+00  0.000000000E+00 -3.862707393E+02  3.862707393E+02  0.000000000E+00  0.00000E+00  9.000E+00
      25     1     1     2     0     0 -2.080254838E+02  3.185325363E+01 -1.219307106E+02  2.734617521E+02  1.250000000E+02  0.00000E+00  9.000E+00
      25     1     1     2     0     0  1.658291705E+02 -1.932498821E+02 -5.903775488E+01  2.897503878E+02  1.250000000E+02  0.00000E+00  9.000E+00
       1     1     1     2   501     0  4.219631323E+01  1.613966285E+02  4.764497417E+02  5.048106149E+02  5.394796609E-06  0.00000E+00  9.000E+00
#rwgt            1           1   2.5385834557351484E-002           1      217826           0
</event>
<event>
      5   9999  3.79277E-02  4.02405E+01 -1.00000E+00  1.44679E-01
       4    -1     0     0   502     0  0.000000000E+00  0.000000000E+00  6.360359928E+02  6.360359928E+02  0.000000000E+00  0.00000E+00  9.000E+00
      21    -1     0     0   501   502  0.000000000E+00  0.000000000E+00 -6.757737115E+01  6.757737115E+01  0.000000000E+00  0.00000E+00  9.000E+00
      25     1     1     2     0     0 -3.366670262E+01  8.880294745E+01  3.137700332E+02  3.508504582E+02  1.250000000E+02  0.00000E+00  9.000E+00
      25     1     1     2     0     0  6.790888450E+01 -1.099399442E+02  1.303334389E+02  2.220590309E+02  1.250000000E+02  0.00000E+00  9.000E+00
       4     1     1     2   501     0 -3.424218188E+01  2.113699673E+01  1.243551496E+02  1.307038748E+02  1.907348633E-06  0.00000E+00  9.000E+00
#rwgt            1           1   3.8659700774116457E-002           1      217996           0
</event>
<event>
      5   9999  3.79277E-02  1.26466E+02 -1.00000E+00  1.19409E-01
      21    -1     0     0   502   501  0.000000000E+00  0.000000000E+00  2.008998660E+02  2.008998660E+02  0.000000000E+00  0.00000E+00  9.000E+00
      21    -1     0     0   501   511  0.000000000E+00  0.000000000E+00 -4.604853412E+02  4.604853412E+02  0.000000000E+00  0.00000E+00  9.000E+00
      25     1     1     2     0     0  7.375875250E+01  2.260232982E+02 -4.617463175E+01  2.725508788E+02  1.250000000E+02  0.00000E+00  9.000E+00
      25     1     1     2     0     0  2.716489757E+00 -1.253000558E+02 -5.341740339E+01  1.848943003E+02  1.250000000E+02  0.00000E+00  9.000E+00
      21     1     1     2   502   511 -7.647524226E+01 -1.007232424E+02 -1.599934400E+02  2.039400282E+02  0.000000000E+00  0.00000E+00  9.000E+00
#rwgt            1           1   2.9848069569394120E-002           1      218197           0
</event>
<event>
      5   9999  3.79277E-02  1.48213E+01 -1.00000E+00  1.77875E-01
      21    -1     0     0   512   501  0.000000000E+00  0.000000000E+00  5.453646400E+01  5.453646400E+01  0.000000000E+00  0.00000E+00  9.000E+00
      21    -1     0     0   501   502  0.000000000E+00  0.000000000E+00 -1.070562126E+03  1.070562126E+03  0.000000000E+00  0.00000E+00  9.000E+00
      25     1     1     2     0     0  7.554139923E+01 -1.561965743E+02 -5.664607649E+02  6.054805289E+02  1.250000000E+02  0.00000E+00  9.000E+00
      25     1     1     2     0     0 -9.010057488E+01  1.534212217E+02 -4.546309316E+02  5.039548282E+02  1.250000000E+02  0.00000E+00  9.000E+00
      21     1     1     2   512   502  1.455917565E+01  2.775352580E+00  5.066034022E+00  1.566323333E+01  3.318646170E-07  0.00000E+00  9.000E+00
#rwgt            1           1   4.0024136185125257E-002           1      218253           0
</event>
<event>
      5   9999  3.79277E-02  6.60825E+01 -1.00000E+00  1.32500E-01
      21    -1     0     0   502   501  0.000000000E+00  0.000000000E+00  4.321884796E+02  4.321884796E+02  0.000000000E+00  0.00000E+00  9.000E+00
      21    -1     0     0   511   502  0.000000000E+00  0.000000000E+00 -1.069318095E+02  1.069318095E+02  0.000000000E+00  0.00000E+00  9.000E+00
      25     1     1     2     0     0  1.193340385E+02 -2.307086421E+01  4.384188027E+01  1.797776070E+02  1.250000000E+02  0.00000E+00  9.000E+00
      25     1     1     2     0     0 -5.348990955E+01  2.867904381E+01  2.503379038E+02  2.863175231E+02  1.250000000E+02  0.00000E+00  9.000E+00
      21     1     1     2   511   501 -6.584412897E+01 -5.608179597E+00  3.107688605E+01  7.302515898E+01  1.305872339E-06  0.00000E+00  9.000E+00
#rwgt            1           1   5.1073789891828675E-002           1      218411           0
</event>
<event>
      5   9999  3.79277E-02  9.38378E+01 -1.00000E+00  1.25083E-01
      21    -1     0     0   502   501  0.000000000E+00  0.000000000E+00  6.232621279E+02  6.232621279E+02  0.000000000E+00  0.00000E+00  9.000E+00
      21    -1     0     0   512   502  0.000000000E+00  0.000000000E+00 -1.790986884E+02  1.790986884E+02  0.000000000E+00  0.00000E+00  9.000E+00
      25     1     1     2     0     0 -1.660803295E+02  1.188471338E+02  1.752115808E+01  2.400818778E+02  1.250000000E+02  0.00000E+00  9.000E+00
      25     1     1     2     0     0  2.267218727E+02 -4.723615938E+01  3.650888795E+02  4.500543881E+02  1.250000000E+02  0.00000E+00  9.000E+00
      21     1     1     2   512   501 -6.064154319E+01 -7.161097446E+01  6.155340195E+01  1.122245504E+02  6.743495762E-07  0.00000E+00  9.000E+00
#rwgt            1           1   3.3699131162485685E-002           1      218498           0
</event>
<event>
      5   9999  3.79277E-02  5.28829E+01 -1.00000E+00  1.37701E-01
      21    -1     0     0   502   511  0.000000000E+00  0.000000000E+00  4.504531053E+02  4.504531053E+02  0.000000000E+00  0.00000E+00  9.000E+00
      21    -1     0     0   501   502  0.000000000E+00  0.000000000E+00 -3.159295026E+02  3.159295026E+02  0.000000000E+00  0.00000E+00  9.000E+00
      25     1     1     2     0     0 -5.770258197E+01 -1.966523476E+00 -2.363787325E+02  2.735568686E+02  1.250000000E+02  0.00000E+00  9.000E+00
      25     1     1     2     0     0  1.074610165E+02 -1.594157800E+01  5.798108103E+01  1.754674036E+02  1.250000000E+02  0.00000E+00  9.000E+00
      21     1     1     2   501   511 -4.975843457E+01  1.790810148E+01  3.129212542E+02  3.173583357E+02  3.814697266E-06  0.00000E+00  9.000E+00
#rwgt            1           1   4.4322658858633450E-002           1      218574           0
</event>
<event>
      5   9999 -3.79277E-02  2.76030E+01 -1.00000E+00  1.55595E-01
      21    -1     0     0   502   512  0.000000000E+00  0.000000000E+00  2.955127555E+02  2.955127555E+02  0.000000000E+00  0.00000E+00  9.000E+00
      21    -1     0     0   501   502  0.000000000E+00  0.000000000E+00 -4.005833067E+02  4.005833067E+02  0.000000000E+00  0.00000E+00  9.000E+00
      25     1     1     2     0     0 -7.567687065E+01 -1.440420300E+02 -1.885196288E+02  2.786390956E+02  1.250000000E+02  0.00000E+00  9.000E+00
      25     1     1     2     0     0  1.021145344E+02  1.361063984E+02 -9.881601702E+01  2.331135668E+02  1.250000000E+02  0.00000E+00  9.000E+00
      21     1     1     2   501   512 -2.643766380E+01  7.935631650E+00  1.822650947E+02  1.843433998E+02  2.697398305E-06  0.00000E+00  9.000E+00
#rwgt            1           1 -0.15045565799544208                1      218691           0
</event>
<event>
      5   9999 -3.79277E-02  3.14085E+01 -1.00000E+00  1.51669E-01
       1    -1     0     0   502     0  0.000000000E+00  0.000000000E+00  1.750627413E+03  1.750627413E+03  0.000000000E+00  0.00000E+00  9.000E+00
      21    -1     0     0   501   502  0.000000000E+00  0.000000000E+00 -2.719324258E+02  2.719324258E+02  0.000000000E+00  0.00000E+00  9.000E+00
      25     1     1     2     0     0  9.134648600E+01  1.438848800E+02 -5.100755216E+01  2.174254115E+02  1.250000000E+02  0.00000E+00  9.000E+00
      25     1     1     2     0     0 -6.100376669E+01 -1.357724136E+02 -6.890047285E+01  2.062228964E+02  1.250000000E+02  0.00000E+00  9.000E+00
       1     1     1     2   501     0 -3.034271931E+01 -8.112466467E+00  1.598603012E+03  1.598911531E+03  2.157918644E-05  0.00000E+00  9.000E+00
#rwgt            1           1 -0.18485320090756835                1      218859           0
</event>
<event>
      5   9999  3.79277E-02  8.59011E+01 -1.00000E+00  1.26871E-01
      21    -1     0     0   502   501  0.000000000E+00  0.000000000E+00  1.870454111E+02  1.870454111E+02  0.000000000E+00  0.00000E+00  9.000E+00
      21    -1     0     0   501   511  0.000000000E+00  0.000000000E+00 -3.146298032E+02  3.146298032E+02  0.000000000E+00  0.00000E+00  9.000E+00
      25     1     1     2     0     0 -5.397360870E+01  1.819516602E+02 -7.512708196E+01  2.393504450E+02  1.250000000E+02  0.00000E+00  9.000E+00
      25     1     1     2     0     0  6.353167954E+01 -9.658398538E+01 -2.467337452E+01  1.720421923E+02  1.250000000E+02  0.00000E+00  9.000E+00
      21     1     1     2   502   511 -9.558070840E+00 -8.536767478E+01 -2.778393565E+01  9.028257693E+01  1.215700987E-06  0.00000E+00  9.000E+00
#rwgt            1           1   2.9292247669744077E-002           1      219000           0
</event>
<event>
      5   9999  3.79277E-02  4.36264E+01 -1.00000E+00  1.42541E-01
      21    -1     0     0   502   501  0.000000000E+00  0.000000000E+00  4.078360558E+02  4.078360558E+02  0.000000000E+00  0.00000E+00  9.000E+00
      -4    -1     0     0     0   502  0.000000000E+00  0.000000000E+00 -2.711160463E+02  2.711160463E+02  0.000000000E+00  0.00000E+00  9.000E+00
      25     1     1     2     0     0  8.468957681E+01  2.951639497E+01  2.886186975E+02  3.270616067E+02  1.250000000E+02  0.00000E+00  9.000E+00
      25     1     1     2     0     0 -1.051408958E+02  9.019364653E+00  2.870955558E+01  1.660879150E+02  1.250000000E+02  0.00000E+00  9.000E+00
      -4     1     1     2     0   501  2.045131904E+01 -3.853575962E+01 -1.806082437E+02  1.858025805E+02  3.814697266E-06  0.00000E+00  9.000E+00
#rwgt            1           1   4.2263534277597936E-002           1      219067           0
</event>
<event>
      5   9999  3.79277E-02  1.37516E+01 -1.00000E+00  1.81014E-01
      21    -1     0     0   502   511  0.000000000E+00  0.000000000E+00  2.500441976E+02  2.500441976E+02  0.000000000E+00  0.00000E+00  9.000E+00
      21    -1     0     0   501   502  0.000000000E+00  0.000000000E+00 -2.695186777E+02  2.695186777E+02  0.000000000E+00  0.00000E+00  9.000E+00
      25     1     1     2     0     0 -1.429025349E+02 -1.500928191E+02 -6.934780202E+01  2.517600176E+02  1.250000000E+02  0.00000E+00  9.000E+00
      25     1     1     2     0     0  1.310061532E+02  1.569907409E+02  2.707445083E+01  2.411777992E+02  1.250000000E+02  0.00000E+00  9.000E+00
      21     1     1     2   501   511  1.189638168E+01 -6.897921860E+00  2.279887102E+01  2.662505855E+01  3.371747881E-07  0.00000E+00  9.000E+00
#rwgt            1           1   3.6266658948145118E-002           1      219262           0
</event>
<event>
      5   9999  3.79277E-02  8.64390E+01 -1.00000E+00  1.26743E-01
      21    -1     0     0   502   512  0.000000000E+00  0.000000000E+00  6.072617219E+02  6.072617219E+02  0.000000000E+00  0.00000E+00  9.000E+00
      21    -1     0     0   501   502  0.000000000E+00  0.000000000E+00 -4.503746989E+02  4.503746989E+02  0.000000000E+00  0.00000E+00  9.000E+00
      25     1     1     2     0     0 -2.956031546E+01 -2.922858141E+02 -2.797659509E+02  4.244982882E+02  1.250000000E+02  0.00000E+00  9.000E+00
      25     1     1     2     0     0 -1.201344722E+00  2.115056839E+02  6.861614998E+01  2.550867962E+02  1.250000000E+02  0.00000E+00  9.000E+00
      21     1     1     2   501   512  3.076166018E+01  8.078013021E+01  3.680368239E+02  3.780513364E+02  5.394796609E-06  0.00000E+00  9.000E+00
#rwgt            1           1   3.0945065970460098E-002           1      219521           0
</event>
<event>
      5   9999  3.79277E-02  4.40371E+00 -1.00000E+00  2.54004E-01
       3    -1     0     0   502     0  0.000000000E+00  0.000000000E+00  3.525000760E+02  3.525000760E+02  0.000000000E+00  0.00000E+00  9.000E+00
      21    -1     0     0   501   502  0.000000000E+00  0.000000000E+00 -3.535145370E+02  3.535145370E+02  0.000000000E+00  0.00000E+00  9.000E+00
      25     1     1     2     0     0 -1.127587029E+02  2.096350849E+02 -1.057287386E+02  2.889030289E+02  1.250000000E+02  0.00000E+00  9.000E+00
      25     1     1     2     0     0  1.146398816E+02 -2.056533973E+02 -4.240734178E+01  2.699240725E+02  1.250000000E+02  0.00000E+00  9.000E+00
       3     1     1     2   501     0 -1.881178754E+00 -3.981687680E+00  1.471216195E+02  1.471875116E+02  0.000000000E+00  0.00000E+00  9.000E+00
#rwgt            1           1   3.7716740849295508E-002           1      219650           0
</event>
<event>
      5   9999  3.79277E-02  3.81225E+01 -1.00000E+00  1.46147E-01
      21    -1     0     0   502   501  0.000000000E+00  0.000000000E+00  1.363214776E+02  1.363214776E+02  0.000000000E+00  0.00000E+00  9.000E+00
      21    -1     0     0   501   511  0.000000000E+00  0.000000000E+00 -5.578014966E+02  5.578014966E+02  0.000000000E+00  0.00000E+00  9.000E+00
      25     1     1     2     0     0  1.440747486E+01 -1.167945363E+02  3.674659530E+01  1.755672273E+02  1.250000000E+02  0.00000E+00  9.000E+00
      25     1     1     2     0     0 -4.082995562E+01  8.931410919E+01 -1.904234950E+02  2.480528227E+02  1.250000000E+02  0.00000E+00  9.000E+00
      21     1     1     2   502   511  2.642248076E+01  2.748042708E+01 -2.678031192E+02  2.705029243E+02  3.814697266E-06  0.00000E+00  9.000E+00
#rwgt            1           1   2.1554031362185623E-002           1      220099           0
</event>
<event>
      5   9999  3.79277E-02  3.08021E+01 -1.00000E+00  1.52248E-01
      21    -1     0     0   512   501  0.000000000E+00  0.000000000E+00  2.338116850E+02  2.338116850E+02  0.000000000E+00  0.00000E+00  9.000E+00
      21    -1     0     0   501   502  0.000000000E+00  0.000000000E+00 -2.956509031E+03  2.956509031E+03  0.000000000E+00  0.00000E+00  9.000E+00
      25     1     1     2     0     0 -1.810446672E+02  1.349104765E+02 -1.319624776E+03  1.344623574E+03  1.250000000E+02  0.00000E+00  9.000E+00
      25     1     1     2     0     0  1.509331822E+02 -1.413963727E+02 -1.614273690E+03  1.632261715E+03  1.250000000E+02  0.00000E+00  9.000E+00
      21     1     1     2   512   502  3.011148501E+01  6.485896177E+00  2.112011197E+02  2.134354266E+02  2.697398305E-06  0.00000E+00  9.000E+00
#rwgt            1           1   4.1542615721675599E-002           1      220210           0
</event>
<event>
      5   9999  3.79277E-02  1.08730E+02 -1.00000E+00  1.22215E-01
      21    -1     0     0   511   501  0.000000000E+00  0.000000000E+00  1.895318836E+02  1.895318836E+02  0.000000000E+00  0.00000E+00  9.000E+00
      21    -1     0     0   501   502  0.000000000E+00  0.000000000E+00 -1.146143459E+03  1.146143459E+03  0.000000000E+00  0.00000E+00  9.000E+00
      25     1     1     2     0     0  9.076131932E+01  2.492702758E+01 -1.406526790E+02  2.103975995E+02  1.250000000E+02  0.00000E+00  9.000E+00
      25     1     1     2     0     0 -1.287479902E+02 -1.268050384E+02 -9.370894764E+02  9.625057140E+02  1.250000000E+02  0.00000E+00  9.000E+00
      21     1     1     2   511   502  3.798667092E+01  1.018780108E+02  1.211305796E+02  1.627720294E+02  1.907348633E-06  0.00000E+00  9.000E+00
#rwgt            1           1   4.7889589759690952E-002           1      220400           0
</event>
<event>
      5   9999  3.79277E-02  1.17033E+01 -1.00000E+00  1.88178E-01
      21    -1     0     0   512   501  0.000000000E+00  0.000000000E+00  5.324707226E+02  5.324707226E+02  0.000000000E+00  0.00000E+00  9.000E+00
      21    -1     0     0   501   502  0.000000000E+00  0.000000000E+00 -5.454186768E+02  5.454186768E+02  0.000000000E+00  0.00000E+00  9.000E+00
      25     1     1     2     0     0  5.072125029E+01 -1.475208850E+02 -6.949495545E+01  2.116355489E+02  1.250000000E+02  0.00000E+00  9.000E+00
      25     1     1     2     0     0 -5.315744866E+01  1.589678234E+02 -3.777709997E+02  4.317781971E+02  1.250000000E+02  0.00000E+00  9.000E+00
      21     1     1     2   512   502  2.436198368E+00 -1.144693845E+01  4.343180010E+02  4.344756535E+02  5.394796609E-06  0.00000E+00  9.000E+00
#rwgt            1           1   3.5187726254981698E-002           1      220504           0
</event>
<event>
      5   9999  3.79277E-02  4.12174E+01 -1.00000E+00  1.44037E-01
      21    -1     0     0   502   511  0.000000000E+00  0.000000000E+00  4.175600107E+02  4.175600107E+02  0.000000000E+00  0.00000E+00  9.000E+00
      21    -1     0     0   501   502  0.000000000E+00  0.000000000E+00 -1.166111974E+02  1.166111974E+02  0.000000000E+00  0.00000E+00  9.000E+00
      25     1     1     2     0     0  5.598521892E+01 -3.549734719E+01  1.966414837E+02  2.422545758E+02  1.250000000E+02  0.00000E+00  9.000E+00
      25     1     1     2     0     0 -9.713345492E+01  3.788333117E+01 -1.713302303E+01  1.636722192E+02  1.250000000E+02  0.00000E+00  9.000E+00
      21     1     1     2   501   511  4.114823600E+01 -2.385983980E+00  1.214403526E+02  1.282444131E+02  1.348699152E-06  0.00000E+00  9.000E+00
#rwgt            1           1   3.6782567277977025E-002           1      220866           0
</event>
<event>
      5   9999  3.79277E-02  5.27282E+01 -1.00000E+00  1.37772E-01
      21    -1     0     0   502   501  0.000000000E+00  0.000000000E+00  4.918656388E+02  4.918656388E+02  0.000000000E+00  0.00000E+00  9.000E+00
      21    -1     0     0   512   502  0.000000000E+00  0.000000000E+00 -2.234320189E+02  2.234320189E+02  0.000000000E+00  0.00000E+00  9.000E+00
      25     1     1     2     0     0  5.163692283E+01 -6.780573394E+01 -1.430335918E+02  2.082008591E+02  1.250000000E+02  0.00000E+00  9.000E+00
      25     1     1     2     0     0 -5.313311879E+01  1.509877727E+01  4.300096601E+02  4.512032903E+02  1.250000000E+02  0.00000E+00  9.000E+00
      21     1     1     2   512   501  1.496195952E+00  5.270695667E+01 -1.854244828E+01  5.589350832E+01  1.118282261E-06  0.00000E+00  9.000E+00
#rwgt            1           1   4.8867618324128191E-002           1      220954           0
</event>
<event>
      5   9999  3.79277E-02  2.26028E+01 -1.00000E+00  1.62101E-01
      21    -1     0     0   502   501  0.000000000E+00  0.000000000E+00  3.411774311E+01  3.411774311E+01  0.000000000E+00  0.00000E+00  9.000E+00
      21    -1     0     0   501   511  0.000000000E+00  0.000000000E+00 -9.951467623E+02  9.951467623E+02  0.000000000E+00  0.00000E+00  9.000E+00
      25     1     1     2     0     0 -2.270067610E+01 -5.226734632E+01 -1.583000221E+02  2.095974551E+02  1.250000000E+02  0.00000E+00  9.000E+00
      25     1     1     2     0     0  4.527682444E+01  5.116903272E+01 -6.640404114E+02  6.791486794E+02  1.250000000E+02  0.00000E+00  9.000E+00
      21     1     1     2   502   511 -2.257614834E+01  1.098313598E+00 -1.386885857E+02  1.405183709E+02  1.907348633E-06  0.00000E+00  9.000E+00
#rwgt            1           1   4.1920189422375811E-002           1      221059           0
</event>
<event>
      5   9999  3.79277E-02  8.47808E+01 -1.00000E+00  1.27141E-01
       2    -1     0     0   502     0  0.000000000E+00  0.000000000E+00  2.094715227E+03  2.094715227E+03  0.000000000E+00  0.00000E+00  9.000E+00
      21    -1     0     0   501   502  0.000000000E+00  0.000000000E+00 -1.225332419E+02  1.225332419E+02  0.000000000E+00  0.00000E+00  9.000E+00
      25     1     1     2     0     0 -2.227316770E+02 -7.710610494E+01  2.578944868E+02  3.710651124E+02  1.250000000E+02  0.00000E+00  9.000E+00
      25     1     1     2     0     0  3.071468112E+02  6.924071877E+01  3.794875462E+02  5.086936588E+02  1.250000000E+02  0.00000E+00  9.000E+00
       2     1     1     2   501     0 -8.441513426E+01  7.865386168E+00  1.334799952E+03  1.337489698E+03  1.525878906E-05  0.00000E+00  9.000E+00
#rwgt            2          18   3.9378096800515188E-004           1      221361           0
</event>
<event>
      5   9999  3.79277E-02  2.27288E+01 -1.00000E+00  1.61913E-01
      21    -1     0     0   511   501  0.000000000E+00  0.000000000E+00  3.985573972E+02  3.985573972E+02  0.000000000E+00  0.00000E+00  9.000E+00
      21    -1     0     0   501   502  0.000000000E+00  0.000000000E+00 -1.470793913E+02  1.470793913E+02  0.000000000E+00  0.00000E+00  9.000E+00
      25     1     1     2     0     0  3.212555886E+01  2.692507183E+01  2.527901072E+02  2.851049794E+02  1.250000000E+02  0.00000E+00  9.000E+00
      25     1     1     2     0     0 -4.937768200E+01 -1.212765994E+01 -9.441484431E+01  1.646948646E+02  1.250000000E+02  0.00000E+00  9.000E+00
      21     1     1     2   511   502  1.725212314E+01 -1.479741189E+01  9.310274306E+01  9.583694442E+01  0.000000000E+00  0.00000E+00  9.000E+00
#rwgt            1           1   5.3842522087697652E-002           1      221455           0
</event>
<event>
      5   9999  3.79277E-02  1.00818E+02 -1.00000E+00  1.23669E-01
      21    -1     0     0   502   501  0.000000000E+00  0.000000000E+00  4.677056579E+02  4.677056579E+02  0.000000000E+00  0.00000E+00  9.000E+00
      21    -1     0     0   501   512  0.000000000E+00  0.000000000E+00 -1.046010968E+02  1.046010968E+02  0.000000000E+00  0.00000E+00  9.000E+00
      25     1     1     2     0     0 -1.439349352E+00  5.166278048E+01  2.979824074E+02  3.272455191E+02  1.250000000E+02  0.00000E+00  9.000E+00
      25     1     1     2     0     0 -1.223440432E+01  4.822334128E+01  2.664126740E+01  1.371492925E+02  1.250000000E+02  0.00000E+00  9.000E+00
      21     1     1     2   502   512  1.367375368E+01 -9.988612176E+01  3.848088624E+01  1.079119431E+02  2.078484985E-06  0.00000E+00  9.000E+00
#rwgt            1           1   4.1916094674000211E-002           1      221648           0
</event>
<event>
      5   9999  3.79277E-02  3.72262E+01 -1.00000E+00  1.46803E-01
      21    -1     0     0   502   511  0.000000000E+00  0.000000000E+00  2.912796514E+02  2.912796514E+02  0.000000000E+00  0.00000E+00  9.000E+00
      21    -1     0     0   501   502  0.000000000E+00  0.000000000E+00 -1.226470015E+02  1.226470015E+02  0.000000000E+00  0.00000E+00  9.000E+00
      25     1     1     2     0     0 -1.208351132E+02  5.127627918E+01  7.591908316E+01  1.965174002E+02  1.250000000E+02  0.00000E+00  9.000E+00
      25     1     1     2     0     0  9.322364098E+01 -2.630841410E+01  6.489027752E+01  1.709342798E+02  1.250000000E+02  0.00000E+00  9.000E+00
      21     1     1     2   501   511  2.761147218E+01 -2.496786508E+01  2.782328920E+01  4.647497288E+01  4.768371582E-07  0.00000E+00  9.000E+00
#rwgt            1           1   4.5879722283419140E-002           1      221808           0
</event>
<event>
      5   9999  3.79277E-02  1.37855E+01 -1.00000E+00  1.80909E-01
      21    -1     0     0   512   501  0.000000000E+00  0.000000000E+00  1.880285775E+03  1.880285775E+03  0.000000000E+00  0.00000E+00  9.000E+00
      21    -1     0     0   501   502  0.000000000E+00  0.000000000E+00 -4.599974618E+01  4.599974618E+01  0.000000000E+00  0.00000E+00  9.000E+00
      25     1     1     2     0     0  1.809000741E+02 -1.545286555E+02  9.380560374E+02  9.757961219E+02  1.250000000E+02  0.00000E+00  9.000E+00
      25     1     1     2     0     0 -1.798376965E+02  1.682731776E+02  6.818164259E+02  7.356331273E+02  1.250000000E+02  0.00000E+00  9.000E+00
      21     1     1     2   512   502 -1.062377645E+00 -1.374452213E+01  2.144135653E+02  2.148562717E+02  2.697398305E-06  0.00000E+00  9.000E+00
#rwgt            1           1   4.1402373831142737E-002           1      221954           0
</event>
<event>
      5   9999  3.79277E-02  2.38982E+01 -1.00000E+00  1.60231E-01
      21    -1     0     0   511   501  0.000000000E+00  0.000000000E+00  5.930282901E+01  5.930282901E+01  0.000000000E+00  0.00000E+00  9.000E+00
      21    -1     0     0   501   502  0.000000000E+00  0.000000000E+00 -8.319302270E+02  8.319302270E+02  0.000000000E+00  0.00000E+00  9.000E+00
      25     1     1     2     0     0 -4.642776162E+01 -8.682815058E+00 -7.057954784E+02  7.183336172E+02  1.250000000E+02  0.00000E+00  9.000E+00
      25     1     1     2     0     0  3.796342972E+01 -1.366624234E+01 -4.075481540E+01  1.375279723E+02  1.250000000E+02  0.00000E+00  9.000E+00
      21     1     1     2   511   502  8.464331899E+00  2.234905740E+01 -2.607710423E+01  3.537146656E+01  5.840038640E-07  0.00000E+00  9.000E+00
#rwgt            1           1   3.8310780059502822E-002           1      222178           0
</event>
<event>
      5   9999  3.79277E-02  4.22602E+01 -1.00000E+00  1.43375E-01
      21    -1     0     0   502   512  0.000000000E+00  0.000000000E+00  1.298607874E+02  1.298607874E+02  0.000000000E+00  0.00000E+00  9.000E+00
      21    -1     0     0   501   502  0.000000000E+00  0.000000000E+00 -1.055008823E+03  1.055008823E+03  0.000000000E+00  0.00000E+00  9.000E+00
      25     1     1     2     0     0  6.764786176E+01  1.496613356E+02 -1.794818238E+02  2.735205177E+02  1.250000000E+02  0.00000E+00  9.000E+00
      25     1     1     2     0     0 -1.012698357E+02 -1.752637610E+02 -8.044841063E+02  8.389235024E+02  1.250000000E+02  0.00000E+00  9.000E+00
      21     1     1     2   501   512  3.362197396E+01  2.560242547E+01  5.881789486E+01  7.242558994E+01  1.651812370E-06  0.00000E+00  9.000E+00
#rwgt            1           1   2.6345625980469675E-002           1      222868           0
</event>
<event>
      5   9999  3.79277E-02  7.66111E+01 -1.00000E+00  1.29266E-01
      21    -1     0     0   502   501  0.000000000E+00  0.000000000E+00  1.654686849E+03  1.654686849E+03  0.000000000E+00  0.00000E+00  9.000E+00
      21    -1     0     0   511   502  0.000000000E+00  0.000000000E+00 -1.464492125E+02  1.464492125E+02  0.000000000E+00  0.00000E+00  9.000E+00
      25     1     1     2     0     0  4.082478179E+02  3.317035755E+01  9.517416538E+02  1.043649237E+03  1.250000000E+02  0.00000E+00  9.000E+00
      25     1     1     2     0     0 -4.036387059E+02 -1.096426899E+02  4.582455688E+02  6.328978793E+02  1.250000000E+02  0.00000E+00  9.000E+00
      21     1     1     2   511   501 -4.609112021E+00  7.647233237E+01  9.825041405E+01  1.245889457E+02  1.348699152E-06  0.00000E+00  9.000E+00
#rwgt            1           1  0.14839605009318235                1      223081           0
</event>
<event>
      5   9999  3.79277E-02  9.62859E+01 -1.00000E+00  1.24572E-01
      21    -1     0     0   512   501  0.000000000E+00  0.000000000E+00  1.955998942E+03  1.955998942E+03  0.000000000E+00  0.00000E+00  9.000E+00
      21    -1     0     0   501   502  0.000000000E+00  0.000000000E+00 -6.303179403E+01  6.303179403E+01  0.000000000E+00  0.00000E+00  9.000E+00
      25     1     1     2     0     0  3.261832837E+01 -1.760486663E+02  4.155125412E+02  4.693961654E+02  1.250000000E+02  0.00000E+00  9.000E+00
      25     1     1     2     0     0 -1.248340088E+02  1.483495762E+02  3.569794062E+02  4.250299083E+02  1.250000000E+02  0.00000E+00  9.000E+00
      21     1     1     2   512   502  9.221568043E+01  2.769909011E+01  1.120475201E+03  1.124604662E+03  0.000000000E+00  0.00000E+00  9.000E+00
#rwgt            1           1   3.9903488080402352E-002           1      223305           0
</event>
<event>
      5   9999  3.79277E-02  8.77361E+00 -1.00000E+00  2.02564E-01
      21    -1     0     0   502   501  0.000000000E+00  0.000000000E+00  5.657377950E+01  5.657377950E+01  0.000000000E+00  0.00000E+00  9.000E+00
      21    -1     0     0   511   502  0.000000000E+00  0.000000000E+00 -1.523522790E+03  1.523522790E+03  0.000000000E+00  0.00000E+00  9.000E+00
      25     1     1     2     0     0 -5.987256483E+01  1.455527156E+02 -2.684682867E+02  3.353662744E+02  1.250000000E+02  0.00000E+00  9.000E+00
      25     1     1     2     0     0  5.273778278E+01 -1.506586984E+02 -4.217517005E+02  4.679517219E+02  1.250000000E+02  0.00000E+00  9.000E+00
      21     1     1     2   511   501  7.134782053E+00  5.105982809E+00 -7.767290234E+02  7.767785733E+02  0.000000000E+00  0.00000E+00  9.000E+00
#rwgt            1           1   3.3112543162585439E-002           1      223348           0
</event>
<event>
      5   9999  3.79277E-02  3.87000E+01 -1.00000E+00  1.45736E-01
       3    -1     0     0   502     0  0.000000000E+00  0.000000000E+00  5.729949106E+02  5.729949106E+02  0.000000000E+00  0.00000E+00  9.000E+00
      21    -1     0     0   501   502  0.000000000E+00  0.000000000E+00 -1.536076580E+03  1.536076580E+03  0.000000000E+00  0.00000E+00  9.000E+00
      25     1     1     2     0     0 -9.546766562E+01 -4.087155976E+01 -1.017176257E+02  1.917186349E+02  1.250000000E+02  0.00000E+00  9.000E+00
      25     1     1     2     0     0  1.128720008E+02  6.305948262E+00 -1.383528591E+03  1.393756153E+03  1.250000000E+02  0.00000E+00  9.000E+00
       3     1     1     2   501     0 -1.740433515E+01  3.456561149E+01  5.221645471E+02  5.235967023E+02  1.321449896E-05  0.00000E+00  9.000E+00
#rwgt            1           1   4.4607340805074162E-002           1      223606           0
</event>
<event>
      5   9999  3.79277E-02  1.10043E+01 -1.00000E+00  1.91072E-01
      21    -1     0     0   502   511  0.000000000E+00  0.000000000E+00  7.015213618E+01  7.015213618E+01  0.000000000E+00  0.00000E+00  9.000E+00
      21    -1     0     0   501   502  0.000000000E+00  0.000000000E+00 -1.132142954E+03  1.132142954E+03  0.000000000E+00  0.00000E+00  9.000E+00
      25     1     1     2     0     0  8.818495547E+01 -7.592764004E+01 -7.908713146E+02  8.091007534E+02  1.250000000E+02  0.00000E+00  9.000E+00
      25     1     1     2     0     0 -8.181749100E+01  8.490260472E+01 -3.090994038E+02  3.536523654E+02  1.250000000E+02  0.00000E+00  9.000E+00
      21     1     1     2   501   511 -6.367464471E+00 -8.974964681E+00  3.797990096E+01  3.954197101E+01  1.651812370E-06  0.00000E+00  9.000E+00
#rwgt            1           1   3.9447817576088680E-002           1      223715           0
</event>
<event>
      5   9999  3.79277E-02  1.40466E+01 -1.00000E+00  1.80113E-01
      21    -1     0     0   512   501  0.000000000E+00  0.000000000E+00  1.373121886E+02  1.373121886E+02  0.000000000E+00  0.00000E+00  9.000E+00
      21    -1     0     0   501   502  0.000000000E+00  0.000000000E+00 -8.137985080E+02  8.137985080E+02  0.000000000E+00  0.00000E+00  9.000E+00
      25     1     1     2     0     0  2.645543471E+02 -8.600264920E+01 -4.968054593E+02  5.829460718E+02  1.250000000E+02  0.00000E+00  9.000E+00
      25     1     1     2     0     0 -2.506954424E+02  8.829138344E+01 -1.908020488E+02  3.502484762E+02  1.250000000E+02  0.00000E+00  9.000E+00
      21     1     1     2   512   502 -1.385890466E+01 -2.288734234E+00  1.112118873E+01  1.791614862E+01  5.717076687E-07  0.00000E+00  9.000E+00
#rwgt            1           1   2.1154039437628627E-002           1      223927           0
</event>
<event>
      5   9999  3.79277E-02  2.82147E+01 -1.00000E+00  1.54914E-01
      21    -1     0     0   511   501  0.000000000E+00  0.000000000E+00  9.132183550E+02  9.132183550E+02  0.000000000E+00  0.00000E+00  9.000E+00
      21    -1     0     0   501   502  0.000000000E+00  0.000000000E+00 -1.442448853E+03  1.442448853E+03  0.000000000E+00  0.00000E+00  9.000E+00
      25     1     1     2     0     0 -1.125816619E+02  4.874594277E+01 -1.251660066E+03  1.263854707E+03  1.250000000E+02  0.00000E+00  9.000E+00
      25     1     1     2     0     0  1.126299748E+02 -2.053126306E+01 -1.455219508E+02  2.234025115E+02  1.250000000E+02  0.00000E+00  9.000E+00
      21     1     1     2   511   502 -4.831282529E-02 -2.821467972E+01  8.679515193E+02  8.684099897E+02  1.868812365E-05  0.00000E+00  9.000E+00
#rwgt            1           1   3.4861755337508044E-002           1      224181           0
</event>
<event>
      5   9999  3.79277E-02  6.88494E+01 -1.00000E+00  1.31586E-01
      21    -1     0     0   502   501  0.000000000E+00  0.000000000E+00  1.076985508E+02  1.076985508E+02  0.000000000E+00  0.00000E+00  9.000E+00
      21    -1     0     0   501   512  0.000000000E+00  0.000000000E+00 -6.701306665E+02  6.701306665E+02  0.000000000E+00  0.00000E+00  9.000E+00
      25     1     1     2     0     0 -6.632541565E+01 -1.321987190E+01 -3.715373310E+02  3.977924259E+02  1.250000000E+02  0.00000E+00  9.000E+00
      25     1     1     2     0     0  1.241594984E+02 -2.413588332E+01 -7.708321356E-01  1.778305825E+02  1.250000000E+02  0.00000E+00  9.000E+00
      21     1     1     2   502   512 -5.783408272E+01  3.735575521E+01 -1.901239526E+02  2.022062089E+02  2.697398305E-06  0.00000E+00  9.000E+00
#rwgt            1           1   3.4283180316860555E-002           1      224347           0
</event>
<event>
      5   9999  3.79277E-02  6.73157E+01 -1.00000E+00  1.32087E-01
      21    -1     0     0   502   501  0.000000000E+00  0.000000000E+00  1.573048908E+03  1.573048908E+03  0.000000000E+00  0.00000E+00  9.000E+00
      21    -1     0     0   511   502  0.000000000E+00  0.000000000E+00 -1.140683536E+02  1.140683536E+02  0.000000000E+00  0.00000E+00  9.000E+00
      25     1     1     2     0     0  1.655747650E+02 -2.159865762E+01  8.959643150E+02  9.199231265E+02  1.250000000E+02  0.00000E+00  9.000E+00
      25     1     1     2     0     0 -1.202085461E+02  7.133097385E+01  6.388447292E+02  6.657971090E+02  1.250000000E+02  0.00000E+00  9.000E+00
      21     1     1     2   511   501 -4.536621890E+01 -4.973231623E+01 -7.582848961E+01  1.013970262E+02  3.303624740E-06  0.00000E+00  9.000E+00
#rwgt            1           1   5.8670607092595577E-002           1      224493           0
</event>
<event>
      5   9999  3.79277E-02  4.63069E+01 -1.00000E+00  1.41004E-01
      21    -1     0     0   502   501  0.000000000E+00  0.000000000E+00  5.669706277E+02  5.669706277E+02  0.000000000E+00  0.00000E+00  9.000E+00
      21    -1     0     0   501   512  0.000000000E+00  0.000000000E+00 -6.045012509E+02  6.045012509E+02  0.000000000E+00  0.00000E+00  9.000E+00
      25     1     1     2     0     0 -4.388561127E+02 -2.272337279E+02 -1.378200680E+02  5.280617633E+02  1.250000000E+02  0.00000E+00  9.000E+00
      25     1     1     2     0     0  4.001630274E+02  2.526733039E+02  2.036405640E+02  5.301591519E+02  1.250000000E+02  0.00000E+00  9.000E+00
      21     1     1     2   502   512  3.869308530E+01 -2.543957602E+01 -1.033511192E+02  1.132509635E+02  0.000000000E+00  0.00000E+00  9.000E+00
#rwgt            1           1   7.6713486187379207E-002           1      224555           0
</event>
<event>
      5   9999  3.79277E-02  1.76105E+02 -1.00000E+00  1.13697E-01
      21    -1     0     0   502   511  0.000000000E+00  0.000000000E+00  9.777482816E+01  9.777482816E+01  0.000000000E+00  0.00000E+00  9.000E+00
      21    -1     0     0   501   502  0.000000000E+00  0.000000000E+00 -2.494066841E+03  2.494066841E+03  0.000000000E+00  0.00000E+00  9.000E+00
      25     1     1     2     0     0  1.624204864E+02 -4.641649186E+01 -1.724087333E+03  1.736846867E+03  1.250000000E+02  0.00000E+00  9.000E+00
      25     1     1     2     0     0 -2.787080528E+02 -8.583378698E+01 -5.673335886E+02  6.500292443E+02  1.250000000E+02  0.00000E+00  9.000E+00
      21     1     1     2   501   511  1.162875664E+02  1.322502788E+02 -1.048710909E+02  2.049655582E+02  1.348699152E-06  0.00000E+00  9.000E+00
#rwgt            1           1  0.12474516554428128                1      224712           0
</event>
<event>
      5   9999  3.79277E-02  4.04433E+01 -1.00000E+00  1.44544E-01
      21    -1     0     0   502   501  0.000000000E+00  0.000000000E+00  5.969339192E+02  5.969339192E+02  0.000000000E+00  0.00000E+00  9.000E+00
      21    -1     0     0   512   502  0.000000000E+00  0.000000000E+00 -7.949058951E+01  7.949058951E+01  0.000000000E+00  0.00000E+00  9.000E+00
      25     1     1     2     0     0  9.495393596E+01 -3.118384192E+01  7.164173478E+01  1.753460011E+02  1.250000000E+02  0.00000E+00  9.000E+00
      25     1     1     2     0     0 -1.039580627E+02  7.061207615E+01  4.114844145E+02  4.480376854E+02  1.250000000E+02  0.00000E+00  9.000E+00
      21     1     1     2   512   501  9.004126725E+00 -3.942823423E+01  3.431718037E+01  5.304082221E+01  4.768371582E-07  0.00000E+00  9.000E+00
#rwgt            1           1   4.8842926841646317E-002           1      224969           0
</event>
<event>
      5   9999  3.79277E-02  3.05246E+01 -1.00000E+00  1.52519E-01
      21    -1     0     0   502   501  0.000000000E+00  0.000000000E+00  8.527067092E+01  8.527067092E+01  0.000000000E+00  0.00000E+00  9.000E+00
      21    -1     0     0   511   502  0.000000000E+00  0.000000000E+00 -4.788592543E+02  4.788592543E+02  0.000000000E+00  0.00000E+00  9.000E+00
      25     1     1     2     0     0 -1.243964958E+02 -4.474123051E+01 -2.590751647E+02  3.165773316E+02  1.250000000E+02  0.00000E+00  9.000E+00
      25     1     1     2     0     0  9.712067730E+01  5.844462055E+01 -8.390089204E+01  1.884477628E+02  1.250000000E+02  0.00000E+00  9.000E+00
      21     1     1     2   511   501  2.727581853E+01 -1.370339004E+01 -5.061252657E+01  5.910483077E+01  0.000000000E+00  0.00000E+00  9.000E+00
#rwgt            1           1   4.2440582930169085E-002           1      225058           0
</event>
<event>
      5   9999  3.79277E-02  8.20975E+01 -1.00000E+00  1.27808E-01
      21    -1     0     0   502   501  0.000000000E+00  0.000000000E+00  8.461998769E+01  8.461998769E+01  0.000000000E+00  0.00000E+00  9.000E+00
      21    -1     0     0   512   502  0.000000000E+00  0.000000000E+00 -8.582583464E+02  8.582583464E+02  0.000000000E+00  0.00000E+00  9.000E+00
      25     1     1     2     0     0 -9.388889837E+01  1.361417912E+02 -1.739441206E+02  2.706127670E+02  1.250000000E+02  0.00000E+00  9.000E+00
      25     1     1     2     0     0  1.335285270E+01 -1.202059490E+02 -2.037213368E+02  2.678715213E+02  1.250000000E+02  0.00000E+00  9.000E+00
      21     1     1     2   512   501  8.053604567E+01 -1.593584217E+01 -3.959729014E+02  4.043940459E+02  0.000000000E+00  0.00000E+00  9.000E+00
#rwgt            1           1   3.6872688159372211E-002           1      225182           0
</event>
<event>
      5   9999  3.79277E-02  4.03917E+01 -1.00000E+00  1.44578E-01
      21    -1     0     0   502   501  0.000000000E+00  0.000000000E+00  5.020634166E+02  5.020634166E+02  0.000000000E+00  0.00000E+00  9.000E+00
      21    -1     0     0   501   511  0.000000000E+00  0.000000000E+00 -2.514500081E+02  2.514500081E+02  0.000000000E+00  0.00000E+00  9.000E+00
      25     1     1     2     0     0 -2.683708201E+02  3.096830229E+01  1.495858327E+02  3.331408924E+02  1.250000000E+02  0.00000E+00  9.000E+00
      25     1     1     2     0     0  3.032042166E+02 -1.052016575E+01  1.466760809E+02  3.594194535E+02  1.250000000E+02  0.00000E+00  9.000E+00
      21     1     1     2   502   511 -3.483339646E+01 -2.044813654E+01 -4.564850510E+01  6.095307880E+01  1.168007728E-06  0.00000E+00  9.000E+00
#rwgt            1           1  0.12620041662723419                1      225282           0
</event>
<event>
      5   9999  3.79277E-02  1.95245E+01 -1.00000E+00  1.67236E-01
      21    -1     0     0   502   512  0.000000000E+00  0.000000000E+00  8.547971328E+02  8.547971328E+02  0.000000000E+00  0.00000E+00  9.000E+00
      21    -1     0     0   501   502  0.000000000E+00  0.000000000E+00 -5.997953359E+01  5.997953359E+01  0.000000000E+00  0.00000E+00  9.000E+00
      25     1     1     2     0     0 -1.384925329E+02  8.632185962E+01  2.606259318E+02  3.319375264E+02  1.250000000E+02  0.00000E+00  9.000E+00
      25     1     1     2     0     0  1.368472395E+02 -1.057768936E+02  4.954805609E+02  5.394829973E+02  1.250000000E+02  0.00000E+00  9.000E+00
      21     1     1     2   501   512  1.645293360E+00  1.945503397E+01  3.871110656E+01  4.335614268E+01  6.743495762E-07  0.00000E+00  9.000E+00
#rwgt            1           1   3.9440988605596063E-002           1      225412           0
</event>
<event>
      5   9999  3.79277E-02  6.11081E+01 -1.00000E+00  1.34280E-01
      21    -1     0     0   502   501  0.000000000E+00  0.000000000E+00  8.429798796E+01  8.429798796E+01  0.000000000E+00  0.00000E+00  9.000E+00
      21    -1     0     0   511   502  0.000000000E+00  0.000000000E+00 -1.039865073E+03  1.039865073E+03  0.000000000E+00  0.00000E+00  9.000E+00
      25     1     1     2     0     0  1.487727014E+02 -9.065349856E+01 -2.202602568E+02  3.073938097E+02  1.250000000E+02  0.00000E+00  9.000E+00
      25     1     1     2     0     0 -1.420449985E+02  2.991684212E+01 -1.962002052E+02  2.742103564E+02  1.250000000E+02  0.00000E+00  9.000E+00
      21     1     1     2   511   501 -6.727702853E+00  6.073665644E+01 -5.391066229E+02  5.425588947E+02  1.321449896E-05  0.00000E+00  9.000E+00
#rwgt            1           1   5.6305906660568027E-002           1      225624           0
</event>
<event>
      5   9999  3.79277E-02  3.91662E+01 -1.00000E+00  1.45410E-01
      21    -1     0     0   502   501  0.000000000E+00  0.000000000E+00  5.054909555E+01  5.054909555E+01  0.000000000E+00  0.00000E+00  9.000E+00
      21    -1     0     0   501   512  0.000000000E+00  0.000000000E+00 -8.174415117E+02  8.174415117E+02  0.000000000E+00  0.00000E+00  9.000E+00
      25     1     1     2     0     0  5.755238848E+01 -7.972555186E+01 -2.269704584E+02  2.771444209E+02  1.250000000E+02  0.00000E+00  9.000E+00
      25     1     1     2     0     0 -5.272488369E+01  1.185931340E+02 -3.180830095E+02  3.655763200E+02  1.250000000E+02  0.00000E+00  9.000E+00
      21     1     1     2   502   512 -4.827504793E+00 -3.886758216E+01 -2.218389483E+02  2.252698664E+02  0.000000000E+00  0.00000E+00  9.000E+00
#rwgt            2          11   9.5416773167069226E-004           1      225829           0
</event>
<event>
      5   9999  3.79277E-02  1.26117E+02 -1.00000E+00  1.19459E-01
      21    -1     0     0   502   501  0.000000000E+00  0.000000000E+00  8.595462645E+02  8.595462645E+02  0.000000000E+00  0.00000E+00  9.000E+00
      21    -1     0     0   501   511  0.000000000E+00  0.000000000E+00 -1.573009349E+02  1.573009349E+02  0.000000000E+00  0.00000E+00  9.000E+00
      25     1     1     2     0     0 -1.663363362E+02 -1.705545985E+02  3.728998184E+02  4.598216202E+02  1.250000000E+02  0.00000E+00  9.000E+00
      25     1     1     2     0     0  2.742190513E+02  1.052339875E+02  2.679214113E+02  4.167459212E+02  1.250000000E+02  0.00000E+00  9.000E+00
      21     1     1     2   502   511 -1.078827150E+02  6.532061092E+01  6.142409985E+01  1.402796580E+02  2.697398305E-06  0.00000E+00  9.000E+00
#rwgt            1           1  0.20686791777143876                1      225849           0
</event>
<event>
      5   9999  3.79277E-02  9.09121E+01 -1.00000E+00  1.25718E-01
      21    -1     0     0   502   501  0.000000000E+00  0.000000000E+00  5.413541043E+01  5.413541043E+01  0.000000000E+00  0.00000E+00  9.000E+00
       2    -1     0     0   501     0  0.000000000E+00  0.000000000E+00 -1.557734936E+03  1.557734936E+03  0.000000000E+00  0.00000E+00  9.000E+00
      25     1     1     2     0     0  1.031687071E+02  2.044937839E+01 -3.685312631E+02  4.031156795E+02  1.250000000E+02  0.00000E+00  9.000E+00
      25     1     1     2     0     0 -1.475601813E+02 -9.978663079E+01 -3.103622378E+02  3.790528953E+02  1.250000000E+02  0.00000E+00  9.000E+00
       2     1     1     2   502     0  4.439147420E+01  7.933725240E+01 -8.247060247E+02  8.297017716E+02  1.525878906E-05  0.00000E+00  9.000E+00
#rwgt            1           1   2.9841795127687056E-002           1      225912           0
</event>
<event>
      5   9999  3.79277E-02  2.60176E+01 -1.00000E+00  1.57464E-01
      21    -1     0     0   502   501  0.000000000E+00  0.000000000E+00  6.133027596E+02  6.133027596E+02  0.000000000E+00  0.00000E+00  9.000E+00
      21    -1     0     0   511   502  0.000000000E+00  0.000000000E+00 -6.842103021E+01  6.842103021E+01  0.000000000E+00  0.00000E+00  9.000E+00
      25     1     1     2     0     0  8.962925969E+01 -4.169410070E+01  4.561367722E+02  4.831744583E+02  1.250000000E+02  0.00000E+00  9.000E+00
      25     1     1     2     0     0 -6.661211149E+01  5.382375626E+01  7.771350072E+01  1.702896307E+02  1.250000000E+02  0.00000E+00  9.000E+00
      21     1     1     2   511   501 -2.301714820E+01 -1.212965555E+01  1.103145645E+01  2.825970075E+01  4.460403188E-07  0.00000E+00  9.000E+00
#rwgt            1           1   4.1066183574677138E-002           1      225976           0
</event>
<event>
      5   9999  3.79277E-02  1.10812E+02 -1.00000E+00  1.21855E-01
      21    -1     0     0   512   501  0.000000000E+00  0.000000000E+00  5.418312726E+02  5.418312726E+02  0.000000000E+00  0.00000E+00  9.000E+00
      21    -1     0     0   501   502  0.000000000E+00  0.000000000E+00 -5.770996960E+02  5.770996960E+02  0.000000000E+00  0.00000E+00  9.000E+00
      25     1     1     2     0     0 -1.734696499E+02  5.350275411E+01  5.925594243E+01  2.282335007E+02  1.250000000E+02  0.00000E+00  9.000E+00
      25     1     1     2     0     0  2.643743912E+02  9.866543009E+00 -4.397064585E+02  5.281646874E+02  1.250000000E+02  0.00000E+00  9.000E+00
      21     1     1     2   512   502 -9.090474138E+01 -6.336929712E+01  3.451820926E+02  3.625327804E+02  7.629394531E-06  0.00000E+00  9.000E+00
#rwgt            1           1   3.5367173402370319E-002           1      226194           0
</event>
<event>
      5   9999  3.79277E-02  3.87712E+01 -1.00000E+00  1.45686E-01
      21    -1     0     0   502   501  0.000000000E+00  0.000000000E+00  3.491381615E+02  3.491381615E+02  0.000000000E+00  0.00000E+00  9.000E+00
      21    -1     0     0   511   502  0.000000000E+00  0.000000000E+00 -3.669823588E+02  3.669823588E+02  0.000000000E+00  0.00000E+00  9.000E+00
      25     1     1     2     0     0  1.447351214E+02  1.056109644E+02  6.752980718E+01  2.286639587E+02  1.250000000E+02  0.00000E+00  9.000E+00
      25     1     1     2     0     0 -1.391396812E+02 -6.724561135E+01  1.499364384E+02  2.489734096E+02  1.250000000E+02  0.00000E+00  9.000E+00
      21     1     1     2   511   501 -5.595440228E+00 -3.836535305E+01 -2.353104428E+02  2.384831520E+02  0.000000000E+00  0.00000E+00  9.000E+00
#rwgt            1           1   3.9115721948233366E-002           1      226258           0
</event>
<event>
      5   9999  3.79277E-02  2.80119E+01 -1.00000E+00  1.55137E-01
      21    -1     0     0   502   501  0.000000000E+00  0.000000000E+00  5.148457018E+01  5.148457018E+01  0.000000000E+00  0.00000E+00  9.000E+00
       1    -1     0     0   501     0  0.000000000E+00  0.000000000E+00 -2.182464569E+03  2.182464569E+03  0.000000000E+00  0.00000E+00  9.000E+00
      25     1     1     2     0     0 -1.886232521E+02 -1.363929602E+02 -5.833849590E+02  6.404254689E+02  1.250000000E+02  0.00000E+00  9.000E+00
      25     1     1     2     0     0  2.160433175E+02  1.306655002E+02 -8.521516647E+02  8.975163774E+02  1.250000000E+02  0.00000E+00  9.000E+00
       1     1     1     2   502     0 -2.742006544E+01  5.727459995E+00 -6.954433753E+02  6.960072931E+02  0.000000000E+00  0.00000E+00  9.000E+00
#rwgt            2          12   6.4027858263781688E-005           1      226930           0
</event>
<event>
      5   9999  3.79277E-02  4.10028E+01 -1.00000E+00  1.44176E-01
      21    -1     0     0   502   511  0.000000000E+00  0.000000000E+00  1.203010123E+02  1.203010123E+02  0.000000000E+00  0.00000E+00  9.000E+00
      21    -1     0     0   501   502  0.000000000E+00  0.000000000E+00 -5.185694849E+02  5.185694849E+02  0.000000000E+00  0.00000E+00  9.000E+00
      25     1     1     2     0     0  5.143136042E+01  1.365437090E+02 -3.887750219E+02  4.336592983E+02  1.250000000E+02  0.00000E+00  9.000E+00
      25     1     1     2     0     0 -3.487483010E+01 -9.903225986E+01 -5.531117565E-01  1.632450557E+02  1.250000000E+02  0.00000E+00  9.000E+00
      21     1     1     2   501   511 -1.655653032E+01 -3.751144918E+01 -8.940338962E+00  4.196614321E+01  2.920019320E-07  0.00000E+00  9.000E+00
#rwgt            1           1   3.8953334073691538E-002           1      227129           0
</event>
<event>
      5   9999  3.79277E-02  1.75530E+01 -1.00000E+00  1.71185E-01
      21    -1     0     0   502   501  0.000000000E+00  0.000000000E+00  5.185306751E+02  5.185306751E+02  0.000000000E+00  0.00000E+00  9.000E+00
      21    -1     0     0   501   512  0.000000000E+00  0.000000000E+00 -1.349991023E+02  1.349991023E+02  0.000000000E+00  0.00000E+00  9.000E+00
      25     1     1     2     0     0 -1.529211076E+01  7.296407801E+01 -7.036717231E+01  1.616605835E+02  1.250000000E+02  0.00000E+00  9.000E+00
      25     1     1     2     0     0  2.940826397E+01 -8.339685593E+01  4.478524168E+02  4.733039920E+02  1.250000000E+02  0.00000E+00  9.000E+00
      21     1     1     2   502   512 -1.411615321E+01  1.043277791E+01  6.046328250E+00  1.856520191E+01  2.920019320E-07  0.00000E+00  9.000E+00
#rwgt            1           1   3.9999616760798537E-002           1      227236           0
</event>
<event>
      5   9999  3.79277E-02  2.62919E+01 -1.00000E+00  1.57129E-01
      21    -1     0     0   502   501  0.000000000E+00  0.000000000E+00  3.805812711E+02  3.805812711E+02  0.000000000E+00  0.00000E+00  9.000E+00
      21    -1     0     0   501   511  0.000000000E+00  0.000000000E+00 -4.097107513E+02  4.097107513E+02  0.000000000E+00  0.00000E+00  9.000E+00
      25     1     1     2     0     0  1.468047212E+02  7.558818885E+01  5.787669921E+01  2.150346781E+02  1.250000000E+02  0.00000E+00  9.000E+00
      25     1     1     2     0     0 -1.364035389E+02 -9.973526216E+01  1.981674071E+02  2.888743138E+02  1.250000000E+02  0.00000E+00  9.000E+00
      21     1     1     2   502   511 -1.040118234E+01  2.414707331E+01 -2.851735865E+02  2.863830306E+02  0.000000000E+00  0.00000E+00  9.000E+00
#rwgt            1           1   3.4313450597790500E-002           1      227394           0
</event>
<event>
      5   9999  3.79277E-02  4.52923E+01 -1.00000E+00  1.41571E-01
      21    -1     0     0   502   501  0.000000000E+00  0.000000000E+00  7.273462691E+01  7.273462691E+01  0.000000000E+00  0.00000E+00  9.000E+00
      21    -1     0     0   501   512  0.000000000E+00  0.000000000E+00 -1.338497169E+03  1.338497169E+03  0.000000000E+00  0.00000E+00  9.000E+00
      25     1     1     2     0     0  1.945162790E+02  1.049951948E+02 -3.367719302E+02  4.217830090E+02  1.250000000E+02  0.00000E+00  9.000E+00
      25     1     1     2     0     0 -1.499126865E+02 -1.128637450E+02 -4.052268423E+02  4.637303443E+02  1.250000000E+02  0.00000E+00  9.000E+00
      21     1     1     2   502   512 -4.460359248E+01  7.868550277E+00 -5.237637695E+02  5.257184425E+02  7.629394531E-06  0.00000E+00  9.000E+00
#rwgt            1           1   4.1642564117695992E-002           1      227616           0
</event>
<event>
      5   9999  3.79277E-02  4.22047E+01 -1.00000E+00  1.43410E-01
      21    -1     0     0   502   501  0.000000000E+00  0.000000000E+00  4.306042730E+02  4.306042730E+02  0.000000000E+00  0.00000E+00  9.000E+00
      21    -1     0     0   501   511  0.000000000E+00  0.000000000E+00 -1.959977032E+02  1.959977032E+02  0.000000000E+00  0.00000E+00  9.000E+00
      25     1     1     2     0     0 -2.366839142E+02  2.673829632E+01  2.003410721E+02  3.354038713E+02  1.250000000E+02  0.00000E+00  9.000E+00
      25     1     1     2     0     0  2.119514606E+02  7.460313347E+00  2.155433507E+01  2.471207544E+02  1.250000000E+02  0.00000E+00  9.000E+00
      21     1     1     2   502   511  2.473245358E+01 -3.419860966E+01  1.271116265E+01  4.407735041E+01  6.951036328E-07  0.00000E+00  9.000E+00
#rwgt            1           1   8.9632310773274312E-003           1      227704           0
</event>
<event>
      5   9999 -3.79277E-02  1.99706E+01 -1.00000E+00  1.66422E-01
      21    -1     0     0   502   501  0.000000000E+00  0.000000000E+00  3.678701331E+02  3.678701331E+02  0.000000000E+00  0.00000E+00  9.000E+00
      21    -1     0     0   501   512  0.000000000E+00  0.000000000E+00 -9.958609087E+02  9.958609087E+02  0.000000000E+00  0.00000E+00  9.000E+00
      25     1     1     2     0     0  4.628109184E+00  1.865702366E+02  1.464298948E+02  2.681353887E+02  1.250000000E+02  0.00000E+00  9.000E+00
      25     1     1     2     0     0  1.405014172E+01 -1.795028057E+02  8.562395249E+01  2.353191981E+02  1.250000000E+02  0.00000E+00  9.000E+00
      21     1     1     2   502   512 -1.867825091E+01 -7.067430943E+00 -8.600446229E+02  8.602764550E+02  1.868812365E-05  0.00000E+00  9.000E+00
#rwgt            1           1 -0.16128366555564777                1      227846           0
</event>
<event>
      5   9999  3.79277E-02  6.88872E+01 -1.00000E+00  1.31574E-01
      21    -1     0     0   502   501  0.000000000E+00  0.000000000E+00  4.127038133E+02  4.127038133E+02  0.000000000E+00  0.00000E+00  9.000E+00
      21    -1     0     0   501   511  0.000000000E+00  0.000000000E+00 -1.176898068E+02  1.176898068E+02  0.000000000E+00  0.00000E+00  9.000E+00
      25     1     1     2     0     0 -1.238060140E+02  1.145974884E+02  1.353448449E+02  2.498074068E+02  1.250000000E+02  0.00000E+00  9.000E+00
      25     1     1     2     0     0  6.696827356E+01 -7.567560781E+01  1.240227798E+02  2.030226519E+02  1.250000000E+02  0.00000E+00  9.000E+00
      21     1     1     2   502   511  5.683774044E+01 -3.892188058E+01  3.564638178E+01  7.756356142E+01  4.768371582E-07  0.00000E+00  9.000E+00
#rwgt            1           1   4.1816778279012104E-002           1      228007           0
</event>
<event>
      5   9999  3.79277E-02  2.14442E+01 -1.00000E+00  1.63909E-01
      21    -1     0     0   502   512  0.000000000E+00  0.000000000E+00  3.082569191E+02  3.082569191E+02  0.000000000E+00  0.00000E+00  9.000E+00
      21    -1     0     0   501   502  0.000000000E+00  0.000000000E+00 -2.833709474E+02  2.833709474E+02  0.000000000E+00  0.00000E+00  9.000E+00
      25     1     1     2     0     0 -3.243876116E+01  8.939851294E+01  1.249810977E+02  2.007227992E+02  1.250000000E+02  0.00000E+00  9.000E+00
      25     1     1     2     0     0  1.218539310E+01 -9.644513883E+01 -2.189052343E+02  2.701752213E+02  1.250000000E+02  0.00000E+00  9.000E+00
      21     1     1     2   501   512  2.025336806E+01  7.046625888E+00  1.188101083E+02  1.207298459E+02  1.348699152E-06  0.00000E+00  9.000E+00
#rwgt            1           1   4.5162531289828417E-002           1      228111           0
</event>
<event>
      5   9999  3.79277E-02  5.41388E+00 -1.00000E+00  2.32636E-01
      21    -1     0     0   502   501  0.000000000E+00  0.000000000E+00  1.583255384E+03  1.583255384E+03  0.000000000E+00  0.00000E+00  9.000E+00
      21    -1     0     0   511   502  0.000000000E+00  0.000000000E+00 -1.296913123E+02  1.296913123E+02  0.000000000E+00  0.00000E+00  9.000E+00
      25     1     1     2     0     0  2.009678734E+02 -1.585664820E+02  6.240792946E+02  6.860257877E+02  1.250000000E+02  0.00000E+00  9.000E+00
      25     1     1     2     0     0 -1.976407859E+02  1.628373785E+02  9.062342426E+02  9.499807338E+02  1.250000000E+02  0.00000E+00  9.000E+00
      21     1     1     2   511   501 -3.327087509E+00 -4.270896479E+00 -7.674946544E+01  7.694017490E+01  3.303624740E-06  0.00000E+00  9.000E+00
#rwgt            1           1   8.0204751601986299E-002           1      228319           0
</event>
<event>
      5   9999  3.79277E-02  1.76831E+01 -1.00000E+00  1.70905E-01
      21    -1     0     0   502   501  0.000000000E+00  0.000000000E+00  9.545671416E+02  9.545671416E+02  0.000000000E+00  0.00000E+00  9.000E+00
      21    -1     0     0   501   512  0.000000000E+00  0.000000000E+00 -8.611554537E+01  8.611554537E+01  0.000000000E+00  0.00000E+00  9.000E+00
      25     1     1     2     0     0  1.245818564E+02 -1.706275758E+02  5.357764918E+02  5.893350980E+02  1.250000000E+02  0.00000E+00  9.000E+00
      25     1     1     2     0     0 -1.357227573E+02  1.568953858E+02  3.506284851E+02  4.261480534E+02  1.250000000E+02  0.00000E+00  9.000E+00
      21     1     1     2   502   512  1.114090087E+01  1.373219001E+01 -1.795338064E+01  2.519953553E+01  3.371747881E-07  0.00000E+00  9.000E+00
#rwgt            1           1   3.3103267777307668E-002           1      228713           0
</event>
<event>
      5   9999  3.79277E-02  2.34031E+01 -1.00000E+00  1.60928E-01
      21    -1     0     0   502   501  0.000000000E+00  0.000000000E+00  2.279744726E+02  2.279744726E+02  0.000000000E+00  0.00000E+00  9.000E+00
      21    -1     0     0   511   502  0.000000000E+00  0.000000000E+00 -9.759729851E+02  9.759729851E+02  0.000000000E+00  0.00000E+00  9.000E+00
      25     1     1     2     0     0  2.018685540E+01 -1.474182646E+02  9.072437062E+01  2.144657672E+02  1.250000000E+02  0.00000E+00  9.000E+00
      25     1     1     2     0     0 -3.655072453E+01  1.306871825E+02 -3.794404853E+01  1.883609459E+02  1.250000000E+02  0.00000E+00  9.000E+00
      21     1     1     2   511   501  1.636386913E+01  1.673108208E+01 -8.007788347E+02  8.011207445E+02  1.078959322E-05  0.00000E+00  9.000E+00
#rwgt            1           1   3.6121594041603297E-002           1      228940           0
</event>
<event>
      5   9999  3.79277E-02  2.02673E+01 -1.00000E+00  1.65895E-01
      21    -1     0     0   502   512  0.000000000E+00  0.000000000E+00  3.242610968E+02  3.242610968E+02  0.000000000E+00  0.00000E+00  9.000E+00
      21    -1     0     0   501   502  0.000000000E+00  0.000000000E+00 -9.348928198E+01  9.348928198E+01  0.000000000E+00  0.00000E+00  9.000E+00
      25     1     1     2     0     0 -5.152714058E+01  5.190143372E+01  1.756951446E+02  2.276896767E+02  1.250000000E+02  0.00000E+00  9.000E+00
      25     1     1     2     0     0  6.287454926E+01 -6.869432722E+01  3.160048781E+01  1.590462523E+02  1.250000000E+02  0.00000E+00  9.000E+00
      21     1     1     2   501   512 -1.134740868E+01  1.679289351E+01  2.347618243E+01  3.101444981E+01  3.371747881E-07  0.00000E+00  9.000E+00
#rwgt            1           1   4.5863797490887592E-002           1      229261           0
</event>
<event>
      5   9999  3.79277E-02  8.53506E+00 -1.00000E+00  2.04061E-01
      21    -1     0     0   502   501  0.000000000E+00  0.000000000E+00  1.542641365E+01  1.542641365E+01  0.000000000E+00  0.00000E+00  9.000E+00
       2    -1     0     0   501     0  0.000000000E+00  0.000000000E+00 -2.959678569E+03  2.959678569E+03  0.000000000E+00  0.00000E+00  9.000E+00
      25     1     1     2     0     0  1.348794622E+02 -3.981315854E+01 -9.772915312E+02  9.952393149E+02  1.250000000E+02  0.00000E+00  9.000E+00
      25     1     1     2     0     0 -1.325645072E+02  3.159803821E+01 -1.324359369E+03  1.337207733E+03  1.250000000E+02  0.00000E+00  9.000E+00
       2     1     1     2   502     0 -2.314954979E+00  8.215120325E+00 -6.426012556E+02  6.426579346E+02  0.000000000E+00  0.00000E+00  9.000E+00
#rwgt            1           1   8.9109929642300231E-002           1      229502           0
</event>
<event>
      5   9999  3.79277E-02  2.32053E+01 -1.00000E+00  1.61213E-01
      21    -1     0     0   511   501  0.000000000E+00  0.000000000E+00  8.885764699E+01  8.885764699E+01  0.000000000E+00  0.00000E+00  9.000E+00
      21    -1     0     0   501   502  0.000000000E+00  0.000000000E+00 -6.117408715E+02  6.117408715E+02  0.000000000E+00  0.00000E+00  9.000E+00
      25     1     1     2     0     0  8.603097808E+01  1.366683258E+02 -1.167808467E+02  2.352494986E+02  1.250000000E+02  0.00000E+00  9.000E+00
      25     1     1     2     0     0 -8.195584344E+01 -1.138235992E+02 -3.990996418E+02  4.411100726E+02  1.250000000E+02  0.00000E+00  9.000E+00
      21     1     1     2   511   502 -4.075134640E+00 -2.284472657E+01 -7.002736017E+00  2.423894730E+01  3.371747881E-07  0.00000E+00  9.000E+00
#rwgt            1           1   4.7853372421211335E-002           1      229785           0
</event>
<event>
      5   9999  3.79277E-02  2.53034E+01 -1.00000E+00  1.58359E-01
      21    -1     0     0   502   501  0.000000000E+00  0.000000000E+00  7.722954018E+01  7.722954018E+01  0.000000000E+00  0.00000E+00  9.000E+00
      21    -1     0     0   512   502  0.000000000E+00  0.000000000E+00 -1.814781009E+03  1.814781009E+03  0.000000000E+00  0.00000E+00  9.000E+00
      25     1     1     2     0     0 -8.415748261E+01 -8.142411491E+01 -5.005881083E+01  1.784467789E+02  1.250000000E+02  0.00000E+00  9.000E+00
      25     1     1     2     0     0  5.997533014E+01  7.397514981E+01 -4.654983908E+02  4.913075563E+02  1.250000000E+02  0.00000E+00  9.000E+00
      21     1     1     2   512   501  2.418215247E+01  7.448965100E+00 -1.221994267E+03  1.222256214E+03  2.157918644E-05  0.00000E+00  9.000E+00
#rwgt            1           1   5.0862023405476908E-002           1      229927           0
</event>
<event>
      5   9999  3.79277E-02  5.13799E+00 -1.00000E+00  2.36469E-01
       1    -1     0     0   502     0  0.000000000E+00  0.000000000E+00  8.669712510E+02  8.669712510E+02  0.000000000E+00  0.00000E+00  9.000E+00
      21    -1     0     0   501   502  0.000000000E+00  0.000000000E+00 -1.616979053E+03  1.616979053E+03  0.000000000E+00  0.00000E+00  9.000E+00
      25     1     1     2     0     0 -1.521083744E+01  6.675375808E+01 -1.368558918E+03  1.375960008E+03  1.250000000E+02  0.00000E+00  9.000E+00
      25     1     1     2     0     0  1.366969498E+01 -6.185234500E+01 -2.246498207E+02  2.647737054E+02  1.250000000E+02  0.00000E+00  9.000E+00
       1     1     1     2   501     0  1.541142468E+00 -4.901413079E+00  8.432009363E+02  8.432165902E+02  0.000000000E+00  0.00000E+00  9.000E+00
#rwgt            1           1   4.6337052924815207E-002           1      230091           0
</event>
<event>
      5   9999  3.79277E-02  4.88386E+01 -1.00000E+00  1.39660E-01
      21    -1     0     0   502   501  0.000000000E+00  0.000000000E+00  3.023522531E+02  3.023522531E+02  0.000000000E+00  0.00000E+00  9.000E+00
      21    -1     0     0   511   502  0.000000000E+00  0.000000000E+00 -3.179260561E+02  3.179260561E+02  0.000000000E+00  0.00000E+00  9.000E+00
      25     1     1     2     0     0 -9.621435463E+01  2.028535868E+01  1.481442320E+02  2.173485940E+02  1.250000000E+02  0.00000E+00  9.000E+00
      25     1     1     2     0     0  8.158318800E+01 -6.688083785E+01  5.978746739E+01  1.741505219E+02  1.250000000E+02  0.00000E+00  9.000E+00
      21     1     1     2   511   501  1.463116663E+01  4.659547917E+01 -2.235055024E+02  2.287791934E+02  2.697398305E-06  0.00000E+00  9.000E+00
#rwgt            1           1   3.7227331831805849E-002           1      230457           0
</event>
<event>
      5   9999  3.79277E-02  2.33315E+02 -1.00000E+00  1.09265E-01
      21    -1     0     0   502   501  0.000000000E+00  0.000000000E+00  3.698407195E+02  3.698407195E+02  0.000000000E+00  0.00000E+00  9.000E+00
      21    -1     0     0   501   512  0.000000000E+00  0.000000000E+00 -7.445231089E+02  7.445231089E+02  0.000000000E+00  0.00000E+00  9.000E+00
      25     1     1     2     0     0 -1.861803804E+02  4.471662778E+01 -5.320251364E+02  5.790841533E+02  1.250000000E+02  0.00000E+00  9.000E+00
      25     1     1     2     0     0 -4.679086547E+01 -3.206476825E+01  2.492231797E+02  2.845254431E+02  1.250000000E+02  0.00000E+00  9.000E+00
      21     1     1     2   502   512  2.329712459E+02 -1.265185953E+01 -9.188043268E+01  2.507542320E+02  2.336015456E-06  0.00000E+00  9.000E+00
#rwgt            2          11   2.7900813194587275E-003           1      230604           0
</event>
<event>
      5   9999  3.79277E-02  2.10857E+01 -1.00000E+00  1.64497E-01
      21    -1     0     0   502   501  0.000000000E+00  0.000000000E+00  5.275491480E+02  5.275491480E+02  0.000000000E+00  0.00000E+00  9.000E+00
      21    -1     0     0   501   511  0.000000000E+00  0.000000000E+00 -7.950154433E+02  7.950154433E+02  0.000000000E+00  0.00000E+00  9.000E+00
      25     1     1     2     0     0 -7.228046888E+01 -6.849882452E+01  4.743914696E+02  5.005884753E+02  1.250000000E+02  0.00000E+00  9.000E+00
      25     1     1     2     0     0  8.654125127E+01  5.296699120E+01 -1.226081296E+02  2.023675957E+02  1.250000000E+02  0.00000E+00  9.000E+00
      21     1     1     2   502   511 -1.426078239E+01  1.553183332E+01 -6.192496353E+02  6.196085204E+02  1.078959322E-05  0.00000E+00  9.000E+00
#rwgt            1           1   3.4823955466681017E-002           1      230639           0
</event>
<event>
      5   9999  3.79277E-02  1.90485E+01 -1.00000E+00  1.68135E-01
      21    -1     0     0   502   501  0.000000000E+00  0.000000000E+00  6.779168271E+02  6.779168271E+02  0.000000000E+00  0.00000E+00  9.000E+00
      21    -1     0     0   501   512  0.000000000E+00  0.000000000E+00 -7.740127164E+01  7.740127164E+01  0.000000000E+00  0.00000E+00  9.000E+00
      25     1     1     2     0     0  1.080866892E+02  1.001387565E+02  3.425814074E+02  3.933160607E+02  1.250000000E+02  0.00000E+00  9.000E+00
      25     1     1     2     0     0 -8.991969197E+01 -1.058665186E+02  2.775930039E+02  3.346283709E+02  1.250000000E+02  0.00000E+00  9.000E+00
      21     1     1     2   502   512 -1.816699721E+01  5.727762085E+00 -1.965885580E+01  2.737366723E+01  7.907449699E-07  0.00000E+00  9.000E+00
#rwgt            1           1  0.17859501219279306                1      230787           0
</event>
<event>
      5   9999  3.79277E-02  9.47635E+01 -1.00000E+00  1.24888E-01
      21    -1     0     0   502   501  0.000000000E+00  0.000000000E+00  2.661356328E+02  2.661356328E+02  0.000000000E+00  0.00000E+00  9.000E+00
      21    -1     0     0   511   502  0.000000000E+00  0.000000000E+00 -3.075254061E+02  3.075254061E+02  0.000000000E+00  0.00000E+00  9.000E+00
      25     1     1     2     0     0  1.025164856E+02 -2.357419029E+01  2.904683756E+01  1.659339961E+02  1.250000000E+02  0.00000E+00  9.000E+00
      25     1     1     2     0     0 -1.954344427E+02  4.218555505E+01  6.299845742E+01  2.440656635E+02  1.250000000E+02  0.00000E+00  9.000E+00
      21     1     1     2   511   501  9.291795707E+01 -1.861136476E+01 -1.334350683E+02  1.636613794E+02  2.697398305E-06  0.00000E+00  9.000E+00
#rwgt            1           1   4.3164908571631327E-002           1      230990           0
</event>
<event>
      5   9999  3.79277E-02  1.78511E+01 -1.00000E+00  1.70548E-01
      21    -1     0     0   502   501  0.000000000E+00  0.000000000E+00  2.245020946E+02  2.245020946E+02  0.000000000E+00  0.00000E+00  9.000E+00
      21    -1     0     0   512   502  0.000000000E+00  0.000000000E+00 -4.959189412E+02  4.959189412E+02  0.000000000E+00  0.00000E+00  9.000E+00
      25     1     1     2     0     0 -3.627628976E+01 -2.367969709E+02  3.131067032E+01  2.720186257E+02  1.250000000E+02  0.00000E+00  9.000E+00
      25     1     1     2     0     0  4.439080596E+01  2.526971721E+02 -2.109273730E+02  3.548827428E+02  1.250000000E+02  0.00000E+00  9.000E+00
      21     1     1     2   512   501 -8.114516197E+00 -1.590020122E+01 -9.180014394E+01  9.351966745E+01  1.348699152E-06  0.00000E+00  9.000E+00
#rwgt            1           1   2.7484412479054077E-002           1      231206           0
</event>
<event>
      5   9999  3.79277E-02  1.10703E+01 -1.00000E+00  1.90787E-01
      21    -1     0     0   502   501  0.000000000E+00  0.000000000E+00  8.583964068E+02  8.583964068E+02  0.000000000E+00  0.00000E+00  9.000E+00
      21    -1     0     0   511   502  0.000000000E+00  0.000000000E+00 -2.071213615E+02  2.071213615E+02  0.000000000E+00  0.00000E+00  9.000E+00
      25     1     1     2     0     0  7.731341465E+01  2.922452151E+02  4.750503210E+02  5.767863013E+02  1.250000000E+02  0.00000E+00  9.000E+00
      25     1     1     2     0     0 -7.350215160E+01 -3.026387768E+02  2.472594260E+02  4.168393206E+02  1.250000000E+02  0.00000E+00  9.000E+00
      21     1     1     2   511   501 -3.811263050E+00  1.039356165E+01 -7.103470180E+01  7.189214637E+01  2.336015456E-06  0.00000E+00  9.000E+00
#rwgt            1           1   3.8001147592367911E-002           1      231376           0
</event>
<event>
      5   9999 -3.79277E-02  2.71535E+01 -1.00000E+00  1.56109E-01
      21    -1     0     0   502   501  0.000000000E+00  0.000000000E+00  1.235877121E+03  1.235877121E+03  0.000000000E+00  0.00000E+00  9.000E+00
      21    -1     0     0   501   512  0.000000000E+00  0.000000000E+00 -8.230060202E+01  8.230060202E+01  0.000000000E+00  0.00000E+00  9.000E+00
      25     1     1     2     0     0  9.202463416E+01  2.349672056E+02  7.039551191E+02  7.581925420E+02  1.250000000E+02  0.00000E+00  9.000E+00
      25     1     1     2     0     0 -9.319720136E+01 -2.078390379E+02  4.620733054E+02  5.301127461E+02  1.250000000E+02  0.00000E+00  9.000E+00
      21     1     1     2   502   512  1.172567201E+00 -2.712816769E+01 -1.245190579E+01  2.987243469E+01  8.085167388E-07  0.00000E+00  9.000E+00
#rwgt            1           1 -0.23507471127749718                1      231735           0
</event>
<event>
      5   9999  3.79277E-02  3.61113E+01 -1.00000E+00  1.47650E-01
      21    -1     0     0   502   501  0.000000000E+00  0.000000000E+00  2.438687990E+02  2.438687990E+02  0.000000000E+00  0.00000E+00  9.000E+00
      21    -1     0     0   501   511  0.000000000E+00  0.000000000E+00 -2.670341152E+02  2.670341152E+02  0.000000000E+00  0.00000E+00  9.000E+00
      25     1     1     2     0     0  1.778744358E+02 -1.044897395E+02 -5.052766837E+01  2.464456651E+02  1.250000000E+02  0.00000E+00  9.000E+00
      25     1     1     2     0     0 -1.450893604E+02  1.196280464E+02  3.196471358E+01  2.280537983E+02  1.250000000E+02  0.00000E+00  9.000E+00
      21     1     1     2   502   511 -3.278507539E+01 -1.513830687E+01 -4.602361427E+00  3.640345085E+01  8.860867469E-07  0.00000E+00  9.000E+00
#rwgt            1           1   4.4903777069593573E-002           1      231909           0
</event>
<event>
      5   9999  3.79277E-02  6.41617E+01 -1.00000E+00  1.33165E-01
      21    -1     0     0   502   501  0.000000000E+00  0.000000000E+00  1.486412543E+02  1.486412543E+02  0.000000000E+00  0.00000E+00  9.000E+00
      21    -1     0     0   512   502  0.000000000E+00  0.000000000E+00 -5.553478521E+02  5.553478521E+02  0.000000000E+00  0.00000E+00  9.000E+00
      25     1     1     2     0     0  5.410086126E+01  3.653291914E+01 -2.384853309E+02  2.770592182E+02  1.250000000E+02  0.00000E+00  9.000E+00
      25     1     1     2     0     0 -1.416438565E+01  1.368459558E+01  9.357726588E+01  1.573836163E+02  1.250000000E+02  0.00000E+00  9.000E+00
      21     1     1     2   512   501 -3.993647561E+01 -5.021751472E+01 -2.617985329E+02  2.695462719E+02  0.000000000E+00  0.00000E+00  9.000E+00
#rwgt            1           1   3.0688555938637379E-002           1      232072           0
</event>
<event>
      5   9999  3.79277E-02  3.50602E+01 -1.00000E+00  1.48482E-01
      21    -1     0     0   502   511  0.000000000E+00  0.000000000E+00  5.958148561E+02  5.958148561E+02  0.000000000E+00  0.00000E+00  9.000E+00
      21    -1     0     0   501   502  0.000000000E+00  0.000000000E+00 -3.398448463E+02  3.398448463E+02  0.000000000E+00  0.00000E+00  9.000E+00
      25     1     1     2     0     0 -8.250579953E+01  3.125054807E+02 -1.511910171E+02  3.780880930E+02  1.250000000E+02  0.00000E+00  9.000E+00
      25     1     1     2     0     0  5.098873614E+01 -2.971466993E+02  2.945782086E+02  4.396559258E+02  1.250000000E+02  0.00000E+00  9.000E+00
      21     1     1     2   501   511  3.151706339E+01 -1.535878148E+01  1.125828183E+02  1.179156835E+02  1.348699152E-06  0.00000E+00  9.000E+00
#rwgt            1           1   5.2412600859865974E-002           1      232197           0
</event>
<event>
      5   9999  3.79277E-02  1.96099E+02 -1.00000E+00  1.11960E-01
      -3    -1     0     0     0   501  0.000000000E+00  0.000000000E+00  1.189386529E+03  1.189386529E+03  0.000000000E+00  0.00000E+00  9.000E+00
      21    -1     0     0   501   502  0.000000000E+00  0.000000000E+00 -2.358228942E+02  2.358228942E+02  0.000000000E+00  0.00000E+00  9.000E+00
      25     1     1     2     0     0  1.835897660E+01 -1.259243691E+02  8.983156071E+01  1.997215763E+02  1.250000000E+02  0.00000E+00  9.000E+00
      25     1     1     2     0     0  1.217923527E+02 -1.123401995E+01 -1.266184268E+02  2.159092550E+02  1.250000000E+02  0.00000E+00  9.000E+00
      -3     1     1     2     0   502 -1.401513293E+02  1.371583891E+02  9.903505011E+02  1.009578592E+03  0.000000000E+00  0.00000E+00  9.000E+00
#rwgt            1           1   4.3258724014037984E-002           1      232329           0
</event>
<event>
      5   9999  3.79277E-02  2.79078E+01 -1.00000E+00  1.55253E-01
      21    -1     0     0   502   511  0.000000000E+00  0.000000000E+00  2.218140162E+02  2.218140162E+02  0.000000000E+00  0.00000E+00  9.000E+00
      21    -1     0     0   501   502  0.000000000E+00  0.000000000E+00 -2.105359625E+02  2.105359625E+02  0.000000000E+00  0.00000E+00  9.000E+00
      25     1     1     2     0     0  3.295673743E+01 -1.647504307E+02  3.112938219E+01  2.117141691E+02  1.250000000E+02  0.00000E+00  9.000E+00
      25     1     1     2     0     0 -2.567922528E+01  1.378082186E+02 -3.141532211E+01  1.904270207E+02  1.250000000E+02  0.00000E+00  9.000E+00
      21     1     1     2   501   511 -7.277512146E+00  2.694221210E+01  1.156399369E+01  3.020878888E+01  4.460403188E-07  0.00000E+00  9.000E+00
#rwgt            1           1   3.6430911081950568E-002           1      232401           0
</event>
<event>
      5   9999  3.79277E-02  1.04021E+02 -1.00000E+00  1.23063E-01
      21    -1     0     0   502   501  0.000000000E+00  0.000000000E+00  2.162209927E+02  2.162209927E+02  0.000000000E+00  0.00000E+00  9.000E+00
       2    -1     0     0   501     0  0.000000000E+00  0.000000000E+00 -6.633003456E+02  6.633003456E+02  0.000000000E+00  0.00000E+00  9.000E+00
      25     1     1     2     0     0 -2.722068059E+02 -6.348676216E+01 -1.397500528E+02  3.365741990E+02  1.250000000E+02  0.00000E+00  9.000E+00
      25     1     1     2     0     0  2.241514312E+02  1.557417760E+02 -1.097152566E+02  3.196275996E+02  1.250000000E+02  0.00000E+00  9.000E+00
       2     1     1     2   502     0  4.805537472E+01 -9.225501388E+01 -1.976140435E+02  2.233195397E+02  2.697398305E-06  0.00000E+00  9.000E+00
#rwgt            2          13   2.1116031366943207E-004           1      232561           0
</event>
<event>
      5   9999  3.79277E-02  1.29354E+02 -1.00000E+00  1.19001E-01
       2    -1     0     0   502     0  0.000000000E+00  0.000000000E+00  1.158068910E+03  1.158068910E+03  0.000000000E+00  0.00000E+00  9.000E+00
      21    -1     0     0   501   502  0.000000000E+00  0.000000000E+00 -4.372955560E+02  4.372955560E+02  0.000000000E+00  0.00000E+00  9.000E+00
      25     1     1     2     0     0 -9.598758953E+01 -6.833597509E+01 -3.583800712E+02  3.974225689E+02  1.250000000E+02  0.00000E+00  9.000E+00
      25     1     1     2     0     0  9.033155651E+01 -6.089428837E+01  6.908840622E+01  1.796277048E+02  1.250000000E+02  0.00000E+00  9.000E+00
       2     1     1     2   501     0  5.656033018E+00  1.292302635E+02  1.010065019E+03  1.018314193E+03  1.525878906E-05  0.00000E+00  9.000E+00
#rwgt            1           1   3.1385983708774032E-002           1      232580           0
</event>
<event>
      5   9999  3.79277E-02  2.11911E+01 -1.00000E+00  1.64322E-01
      21    -1     0     0   502   501  0.000000000E+00  0.000000000E+00  9.737267276E+01  9.737267276E+01  0.000000000E+00  0.00000E+00  9.000E+00
      21    -1     0     0   511   502  0.000000000E+00  0.000000000E+00 -4.483726849E+02  4.483726849E+02  0.000000000E+00  0.00000E+00  9.000E+00
      25     1     1     2     0     0 -2.471820881E+01 -2.598332541E+01 -2.700569260E+02  2.997363280E+02  1.250000000E+02  0.00000E+00  9.000E+00
      25     1     1     2     0     0  2.251934610E+01  4.906612318E+00  3.201783747E+01  1.310776019E+02  1.250000000E+02  0.00000E+00  9.000E+00
      21     1     1     2   511   501  2.198862707E+00  2.107671310E+01 -1.129609236E+02  1.149314278E+02  1.907348633E-06  0.00000E+00  9.000E+00
#rwgt            1           1   2.3306431034863781E-002           1      232654           0
</event>
<event>
      5   9999  3.79277E-02  3.24493E+01 -1.00000E+00  1.50710E-01
      21    -1     0     0   502   501  0.000000000E+00  0.000000000E+00  1.733387463E+03  1.733387463E+03  0.000000000E+00  0.00000E+00  9.000E+00
      21    -1     0     0   501   512  0.000000000E+00  0.000000000E+00 -3.508988419E+01  3.508988419E+01  0.000000000E+00  0.00000E+00  9.000E+00
      25     1     1     2     0     0 -4.674147715E+01  8.948675882E+01  1.356258625E+03  1.365743426E+03  1.250000000E+02  0.00000E+00  9.000E+00
      25     1     1     2     0     0  7.572390528E+01 -1.040804465E+02  2.766802521E+02  3.297632652E+02  1.250000000E+02  0.00000E+00  9.000E+00
      21     1     1     2   502   512 -2.898242813E+01  1.459368765E+01  6.535870170E+01  7.297065675E+01  9.536743164E-07  0.00000E+00  9.000E+00
#rwgt            1           1   4.3458318297195805E-002           1      232795           0
</event>
<event>
      5   9999  3.79277E-02  3.44975E+01 -1.00000E+00  1.48942E-01
      21    -1     0     0   502   501  0.000000000E+00  0.000000000E+00  4.486841727E+02  4.486841727E+02  0.000000000E+00  0.00000E+00  9.000E+00
      21    -1     0     0   501   511  0.000000000E+00  0.000000000E+00 -2.013640215E+02  2.013640215E+02  0.000000000E+00  0.00000E+00  9.000E+00
      25     1     1     2     0     0  1.636190431E+02  9.847127352E+01 -4.383706465E+01  2.324101358E+02  1.250000000E+02  0.00000E+00  9.000E+00
      25     1     1     2     0     0 -1.942014287E+02 -8.250898899E+01  2.941901090E+02  3.830075044E+02  1.250000000E+02  0.00000E+00  9.000E+00
      21     1     1     2   502   511  3.058238560E+01 -1.596228453E+01 -3.032893160E+00  3.463055410E+01  6.136673773E-07  0.00000E+00  9.000E+00
#rwgt            1           1   4.4419840844379853E-002           1      232943           0
</event>
<event>
      5   9999  3.79277E-02  2.54569E+01 -1.00000E+00  1.58164E-01
      21    -1     0     0   502   512  0.000000000E+00  0.000000000E+00  6.074997679E+02  6.074997679E+02  0.000000000E+00  0.00000E+00  9.000E+00
      21    -1     0     0   501   502  0.000000000E+00  0.000000000E+00 -7.644696651E+01  7.644696651E+01  0.000000000E+00  0.00000E+00  9.000E+00
      25     1     1     2     0     0 -2.731489711E+01 -1.406536932E+01 -2.471276813E-01  1.287206250E+02  1.250000000E+02  0.00000E+00  9.000E+00
      25     1     1     2     0     0  3.500169532E+01  3.833405097E+01  4.610073076E+02  4.804657696E+02  1.250000000E+02  0.00000E+00  9.000E+00
      21     1     1     2   501   512 -7.686798213E+00 -2.426868165E+01  7.029262147E+01  7.476033981E+01  9.536743164E-07  0.00000E+00  9.000E+00
#rwgt            1           1   5.0755376984541925E-002           1      233188           0
</event>
<event>
      5   9999  3.79277E-02  7.12927E+01 -1.00000E+00  1.30819E-01
      21    -1     0     0   502   501  0.000000000E+00  0.000000000E+00  2.998007895E+02  2.998007895E+02  0.000000000E+00  0.00000E+00  9.000E+00
      21    -1     0     0   511   502  0.000000000E+00  0.000000000E+00 -2.779949876E+02  2.779949876E+02  0.000000000E+00  0.00000E+00  9.000E+00
      25     1     1     2     0     0 -7.115391342E+01  1.327258761E+02  2.046578199E+02  2.831763776E+02  1.250000000E+02  0.00000E+00  9.000E+00
      25     1     1     2     0     0  1.175985552E+01 -9.329239117E+01 -1.015740958E+02  1.865048562E+02  1.250000000E+02  0.00000E+00  9.000E+00
      21     1     1     2   511   501  5.939405790E+01 -3.943348489E+01 -8.127792222E+01  1.081145434E+02  9.536743164E-07  0.00000E+00  9.000E+00
#rwgt            1           1   4.0293798904238599E-002           1      233312           0
</event>
<event>
      5   9999  3.79277E-02  4.68744E+01 -1.00000E+00  1.40694E-01
      21    -1     0     0   502   501  0.000000000E+00  0.000000000E+00  1.675582634E+02  1.675582634E+02  0.000000000E+00  0.00000E+00  9.000E+00
      21    -1     0     0   501   512  0.000000000E+00  0.000000000E+00 -7.219140853E+02  7.219140853E+02  0.000000000E+00  0.00000E+00  9.000E+00
      25     1     1     2     0     0 -1.395794054E+02 -1.739129095E+02 -8.206749075E+01  2.684924273E+02  1.250000000E+02  0.00000E+00  9.000E+00
      25     1     1     2     0     0  9.421544408E+01  1.621094531E+02 -1.013450438E+02  2.470867107E+02  1.250000000E+02  0.00000E+00  9.000E+00
      21     1     1     2   502   512  4.536396130E+01  1.180345639E+01 -3.709432874E+02  3.738932107E+02  5.394796609E-06  0.00000E+00  9.000E+00
#rwgt            1           1   2.7267271147561414E-002           1      233397           0
</event>
<event>
      5   9999  3.79277E-02  1.12029E+02 -1.00000E+00  1.21649E-01
      21    -1     0     0   502   511  0.000000000E+00  0.000000000E+00  2.491297831E+02  2.491297831E+02  0.000000000E+00  0.00000E+00  9.000E+00
      21    -1     0     0   501   502  0.000000000E+00  0.000000000E+00 -3.836041968E+02  3.836041968E+02  0.000000000E+00  0.00000E+00  9.000E+00
      25     1     1     2     0     0 -1.136483001E+02  1.889267268E+02  5.783866471E+01  2.599606804E+02  1.250000000E+02  0.00000E+00  9.000E+00
      25     1     1     2     0     0  9.520531477E+01 -7.842645347E+01 -1.927368946E+02  2.607436885E+02  1.250000000E+02  0.00000E+00  9.000E+00
      21     1     1     2   501   511  1.844298535E+01 -1.105002733E+02  4.238161312E-01  1.120296110E+02  2.580800890E-06  0.00000E+00  9.000E+00
#rwgt            2          11   3.0540788607641470E-003           1      233492           0
</event>
<event>
      5   9999 -3.79277E-02  1.00402E+02 -1.00000E+00  1.23750E-01
      21    -1     0     0   502   501  0.000000000E+00  0.000000000E+00  1.534081725E+02  1.534081725E+02  0.000000000E+00  0.00000E+00  9.000E+00
      21    -1     0     0   501   512  0.000000000E+00  0.000000000E+00 -5.721314475E+02  5.721314475E+02  0.000000000E+00  0.00000E+00  9.000E+00
      25     1     1     2     0     0 -7.236056993E+01 -2.095695243E+02 -4.101666512E+01  2.578038100E+02  1.250000000E+02  0.00000E+00  9.000E+00
      25     1     1     2     0     0  2.928162923E+01  1.188789980E+02 -2.260347624E+02  2.858432154E+02  1.250000000E+02  0.00000E+00  9.000E+00
      21     1     1     2   502   512  4.307894071E+01  9.069052632E+01 -1.516718474E+02  1.818925947E+02  1.907348633E-06  0.00000E+00  9.000E+00
#rwgt            1           1 -0.22921357662076755                1      233572           0
</event>
<event>
      5   9999  3.79277E-02  3.05209E+01 -1.00000E+00  1.52522E-01
      21    -1     0     0   511   501  0.000000000E+00  0.000000000E+00  8.457855653E+01  8.457855653E+01  0.000000000E+00  0.00000E+00  9.000E+00
      21    -1     0     0   501   502  0.000000000E+00  0.000000000E+00 -1.969225321E+03  1.969225321E+03  0.000000000E+00  0.00000E+00  9.000E+00
      25     1     1     2     0     0  3.102057034E+02  1.955070857E+02 -8.140044319E+02  9.014870016E+02  1.250000000E+02  0.00000E+00  9.000E+00
      25     1     1     2     0     0 -3.266960463E+02 -1.698244807E+02 -1.033597016E+03  1.104318094E+03  1.250000000E+02  0.00000E+00  9.000E+00
      21     1     1     2   511   502  1.649034288E+01 -2.568260497E+01 -3.704531721E+01  4.799878263E+01  1.066240300E-06  0.00000E+00  9.000E+00
#rwgt            1           1   6.4360552544459201E-002           1      233697           0
</event>
<event>
      5   9999  3.79277E-02  3.80595E+01 -1.00000E+00  1.46192E-01
      21    -1     0     0   502   501  0.000000000E+00  0.000000000E+00  1.179469041E+02  1.179469041E+02  0.000000000E+00  0.00000E+00  9.000E+00
      21    -1     0     0   501   512  0.000000000E+00  0.000000000E+00 -3.511916924E+02  3.511916924E+02  0.000000000E+00  0.00000E+00  9.000E+00
      25     1     1     2     0     0 -6.890747239E+01  1.555122181E+00 -1.491684552E+02  2.064627961E+02  1.250000000E+02  0.00000E+00  9.000E+00
      25     1     1     2     0     0  1.066434640E+02 -6.506816730E+00  6.355139752E+00  1.645617054E+02  1.250000000E+02  0.00000E+00  9.000E+00
      21     1     1     2   502   512 -3.773599163E+01  4.951694549E+00 -9.043147287E+01  9.811409496E+01  0.000000000E+00  0.00000E+00  9.000E+00
#rwgt            1           1   4.0473465401736027E-002           1      233928           0
</event>
<event>
      5   9999  3.79277E-02  3.33781E+01 -1.00000E+00  1.49889E-01
      21    -1     0     0   502   511  0.000000000E+00  0.000000000E+00  4.154551064E+01  4.154551064E+01  0.000000000E+00  0.00000E+00  9.000E+00
      21    -1     0     0   501   502  0.000000000E+00  0.000000000E+00 -2.226580718E+03  2.226580718E+03  0.000000000E+00  0.00000E+00  9.000E+00
      25     1     1     2     0     0 -2.467638412E+01 -2.188591020E+02 -5.584895898E+02  6.132241453E+02  1.250000000E+02  0.00000E+00  9.000E+00
      25     1     1     2     0     0 -3.107642795E+00  2.373561914E+02 -1.511025473E+03  1.534656509E+03  1.250000000E+02  0.00000E+00  9.000E+00
      21     1     1     2   501   511  2.778402691E+01 -1.849708937E+01 -1.155201441E+02  1.202455744E+02  1.348699152E-06  0.00000E+00  9.000E+00
#rwgt            1           1   8.0114847842089013E-002           1      234134           0
</event>
<event>
      5   9999  3.79277E-02  4.50417E+01 -1.00000E+00  1.41714E-01
      21    -1     0     0   502   501  0.000000000E+00  0.000000000E+00  2.686542743E+02  2.686542743E+02  0.000000000E+00  0.00000E+00  9.000E+00
      21    -1     0     0   501   512  0.000000000E+00  0.000000000E+00 -8.807332675E+02  8.807332675E+02  0.000000000E+00  0.00000E+00  9.000E+00
      25     1     1     2     0     0 -1.296671303E+02 -8.769002733E+01 -6.872569710E+01  2.117813189E+02  1.250000000E+02  0.00000E+00  9.000E+00
      25     1     1     2     0     0  8.815849268E+01  7.020336662E+01  1.603518526E+02  2.324610702E+02  1.250000000E+02  0.00000E+00  9.000E+00
      21     1     1     2   502   512  4.150863767E+01  1.748666071E+01 -7.037051486E+02  7.051451528E+02  0.000000000E+00  0.00000E+00  9.000E+00
#rwgt            1           1   4.3756577983393108E-002           1      234274           0
</event>
<event>
      5   9999  3.79277E-02  5.94671E+00 -1.00000E+00  2.26075E-01
      21    -1     0     0   502   511  0.000000000E+00  0.000000000E+00  8.796107417E+02  8.796107417E+02  0.000000000E+00  0.00000E+00  9.000E+00
      21    -1     0     0   501   502  0.000000000E+00  0.000000000E+00 -2.225383883E+01  2.225383883E+01  0.000000000E+00  0.00000E+00  9.000E+00
      25     1     1     2     0     0 -4.746341934E+00 -2.651962480E+01  5.605174288E+02  5.749179126E+02  1.250000000E+02  0.00000E+00  9.000E+00
      25     1     1     2     0     0 -1.085711413E+00  2.535752268E+01  2.596815462E+02  2.893158969E+02  1.250000000E+02  0.00000E+00  9.000E+00
      21     1     1     2   501   511  5.832053346E+00  1.162102116E+00  3.715792792E+01  3.763077112E+01  4.768371582E-07  0.00000E+00  9.000E+00
#rwgt            1           1   3.9203950277452972E-002           1      234501           0
</event>
<event>
      5   9999  3.79277E-02  2.79074E+01 -1.00000E+00  1.55253E-01
      21    -1     0     0   502   512  0.000000000E+00  0.000000000E+00  4.394473733E+02  4.394473733E+02  0.000000000E+00  0.00000E+00  9.000E+00
      21    -1     0     0   501   502  0.000000000E+00  0.000000000E+00 -1.396167295E+02  1.396167295E+02  0.000000000E+00  0.00000E+00  9.000E+00
      25     1     1     2     0     0  7.215874258E+01 -3.010778125E+00  3.262475430E+02  3.567609960E+02  1.250000000E+02  0.00000E+00  9.000E+00
      25     1     1     2     0     0 -7.470216152E+01 -2.478048374E+01 -7.546241450E+01  1.658736306E+02  1.250000000E+02  0.00000E+00  9.000E+00
      21     1     1     2   501   512  2.543418940E+00  2.779126186E+01  4.904551528E+01  5.642947620E+01  9.536743164E-07  0.00000E+00  9.000E+00
#rwgt            1           1   4.1505667701830951E-002           1      234761           0
</event>
<event>
      5   9999  3.79277E-02  1.16257E+01 -1.00000E+00  1.88487E-01
      21    -1     0     0   502   511  0.000000000E+00  0.000000000E+00  9.453257413E+01  9.453257413E+01  0.000000000E+00  0.00000E+00  9.000E+00
      21    -1     0     0   501   502  0.000000000E+00  0.000000000E+00 -6.350739693E+02  6.350739693E+02  0.000000000E+00  0.00000E+00  9.000E+00
      25     1     1     2     0     0  7.170518919E+01  2.869366817E+01 -5.406879482E+02  5.602976156E+02  1.250000000E+02  0.00000E+00  9.000E+00
      25     1     1     2     0     0 -8.297080733E+01 -2.582265550E+01 -1.173202481E+01  1.526879328E+02  1.250000000E+02  0.00000E+00  9.000E+00
      21     1     1     2   501   511  1.126561814E+01 -2.871012674E+00  1.187857782E+01  1.662099507E+01  6.078504936E-07  0.00000E+00  9.000E+00
#rwgt            1           1   2.7489266527105066E-002           1      234924           0
</event>
<event>
      5   9999  3.79277E-02  5.84006E+01 -1.00000E+00  1.35333E-01
      21    -1     0     0   502   501  0.000000000E+00  0.000000000E+00  2.961020664E+02  2.961020664E+02  0.000000000E+00  0.00000E+00  9.000E+00
      21    -1     0     0   512   502  0.000000000E+00  0.000000000E+00 -2.904254414E+02  2.904254414E+02  0.000000000E+00  0.00000E+00  9.000E+00
      25     1     1     2     0     0  4.661225217E+00  1.709348598E+02 -1.644401022E+02  2.681529424E+02  1.250000000E+02  0.00000E+00  9.000E+00
      25     1     1     2     0     0 -5.100955362E+01 -1.354036293E+02  1.757410117E+02  2.597037169E+02  1.250000000E+02  0.00000E+00  9.000E+00
      21     1     1     2   512   501  4.634832840E+01 -3.553123052E+01 -5.624284592E+00  5.867084851E+01  6.307962682E-07  0.00000E+00  9.000E+00
#rwgt            1           1   3.0919442223529506E-002           1      235321           0
</event>
<event>
      5   9999  3.79277E-02  1.08578E+02 -1.00000E+00  1.22242E-01
      21    -1     0     0   511   501  0.000000000E+00  0.000000000E+00  1.337177101E+03  1.337177101E+03  0.000000000E+00  0.00000E+00  9.000E+00
      21    -1     0     0   501   502  0.000000000E+00  0.000000000E+00 -5.084065558E+02  5.084065558E+02  0.000000000E+00  0.00000E+00  9.000E+00
      25     1     1     2     0     0  2.597373816E+02  1.736006001E+02 -2.679195862E+02  4.301239129E+02  1.250000000E+02  0.00000E+00  9.000E+00
      25     1     1     2     0     0 -1.790122769E+02 -2.462128417E+02  1.614380773E+01  3.294719734E+02  1.250000000E+02  0.00000E+00  9.000E+00
      21     1     1     2   511   502 -8.072510471E+01  7.261224159E+01  1.080546324E+03  1.085987770E+03  1.525878906E-05  0.00000E+00  9.000E+00
#rwgt            1           1   3.7149680543210786E-002           1      235433           0
</event>
<event>
      5   9999 -3.79277E-02  3.64938E+01 -1.00000E+00  1.47355E-01
      21    -1     0     0   502   501  0.000000000E+00  0.000000000E+00  7.030446574E+01  7.030446574E+01  0.000000000E+00  0.00000E+00  9.000E+00
      21    -1     0     0   501   512  0.000000000E+00  0.000000000E+00 -1.445709702E+03  1.445709702E+03  0.000000000E+00  0.00000E+00  9.000E+00
      25     1     1     2     0     0  7.932785204E+01 -2.654031951E+02 -5.893778979E+02  6.631161818E+02  1.250000000E+02  0.00000E+00  9.000E+00
      25     1     1     2     0     0 -8.721120199E+01  2.297710585E+02 -5.628661981E+02  6.267725984E+02  1.250000000E+02  0.00000E+00  9.000E+00
      21     1     1     2   502   512  7.883349950E+00  3.563213658E+01 -2.231611407E+02  2.261253880E+02  2.697398305E-06  0.00000E+00  9.000E+00
#rwgt            1           1  -4.6331818761901164E-002           1      235669           0
</event>
<event>
      5   9999  3.79277E-02  1.03647E+01 -1.00000E+00  1.93976E-01
      21    -1     0     0   511   501  0.000000000E+00  0.000000000E+00  4.538061576E+02  4.538061576E+02  0.000000000E+00  0.00000E+00  9.000E+00
      21    -1     0     0   501   502  0.000000000E+00  0.000000000E+00 -3.416245296E+02  3.416245296E+02  0.000000000E+00  0.00000E+00  9.000E+00
      25     1     1     2     0     0 -3.064475018E+02  1.599576880E+02  1.475611377E+02  3.961007734E+02  1.250000000E+02  0.00000E+00  9.000E+00
      25     1     1     2     0     0  3.168122118E+02 -1.599448555E+02 -5.189704786E+01  3.798297486E+02  1.250000000E+02  0.00000E+00  9.000E+00
      21     1     1     2   511   502 -1.036470998E+01 -1.283249999E-02  1.651753820E+01  1.950016528E+01  2.384185791E-07  0.00000E+00  9.000E+00
#rwgt            1           1   8.6838006098521062E-002           1      235789           0
</event>
<event>
      5   9999  3.79277E-02  5.18480E+01  7.55638E-03  1.38182E-01
       2    -1     0     0   501     0  0.000000000E+00  0.000000000E+00  1.178398828E+03  1.178398828E+03  0.000000000E+00  0.00000E+00  9.000E+00
      -2    -1     0     0     0   502  0.000000000E+00  0.000000000E+00 -4.212708611E+01  4.212708611E+01  0.000000000E+00  0.00000E+00  9.000E+00
      25     1     1     2     0     0  9.468398144E+01  7.591676757E+01  2.964039116E+02  3.438149077E+02  1.250000000E+02  0.00000E+00  9.000E+00
      25     1     1     2     0     0 -1.120830027E+02 -2.707531606E+01  4.120721803E+02  4.457848741E+02  1.250000000E+02  0.00000E+00  9.000E+00
      21     1     1     2   501   502  1.739902128E+01 -4.884145151E+01  4.277956501E+02  4.309261324E+02  9.344061824E-06  0.00000E+00  9.000E+00
#rwgt            3           7   9.7519051777599677E-005           1      236109           0
</event>
<event>
      5   9999  3.79277E-02  9.59244E+01 -1.00000E+00  1.24646E-01
      21    -1     0     0   502   501  0.000000000E+00  0.000000000E+00  3.473267693E+02  3.473267693E+02  0.000000000E+00  0.00000E+00  9.000E+00
      21    -1     0     0   511   502  0.000000000E+00  0.000000000E+00 -7.371102899E+02  7.371102899E+02  0.000000000E+00  0.00000E+00  9.000E+00
      25     1     1     2     0     0  3.900825830E+02  2.613925022E+01 -3.076446607E+01  4.116055567E+02  1.250000000E+02  0.00000E+00  9.000E+00
      25     1     1     2     0     0 -4.000853970E+02  6.926217827E+01 -1.638126759E+02  4.553297344E+02  1.250000000E+02  0.00000E+00  9.000E+00
      21     1     1     2   511   501  1.000281398E+01 -9.540142849E+01 -1.952063787E+02  2.175017681E+02  2.697398305E-06  0.00000E+00  9.000E+00
#rwgt            1           1   5.3688609190306290E-002           1      236143           0
</event>
<event>
      5   9999  3.79277E-02  2.97720E+01 -1.00000E+00  1.53270E-01
      21    -1     0     0   512   501  0.000000000E+00  0.000000000E+00  2.409527408E+02  2.409527408E+02  0.000000000E+00  0.00000E+00  9.000E+00
      21    -1     0     0   501   502  0.000000000E+00  0.000000000E+00 -5.880689773E+02  5.880689773E+02  0.000000000E+00  0.00000E+00  9.000E+00
      25     1     1     2     0     0 -9.343118564E+01  3.059381859E+02 -7.701138782E+01  3.519706151E+02  1.250000000E+02  0.00000E+00  9.000E+00
      25     1     1     2     0     0  6.414488621E+01 -3.112942618E+02 -2.840111313E+02  4.441914076E+02  1.250000000E+02  0.00000E+00  9.000E+00
      21     1     1     2   512   502  2.928629943E+01  5.356075874E+00  1.390628260E+01  3.285969536E+01  1.685873940E-07  0.00000E+00  9.000E+00
#rwgt            1           1  0.18622705337782816                1      236288           0
</event>
<event>
      5   9999  3.79277E-02  4.20187E+01 -1.00000E+00  1.43526E-01
      21    -1     0     0   502   511  0.000000000E+00  0.000000000E+00  9.782775373E+02  9.782775373E+02  0.000000000E+00  0.00000E+00  9.000E+00
      21    -1     0     0   501   502  0.000000000E+00  0.000000000E+00 -5.950179532E+01  5.950179532E+01  0.000000000E+00  0.00000E+00  9.000E+00
      25     1     1     2     0     0  1.522502965E+02  3.024340232E+01  3.594190888E+02  4.109767603E+02  1.250000000E+02  0.00000E+00  9.000E+00
      25     1     1     2     0     0 -1.860055029E+02 -5.526660062E+01  3.982329742E+02  4.602900672E+02  1.250000000E+02  0.00000E+00  9.000E+00
      21     1     1     2   501   511  3.375520638E+01  2.502319830E+01  1.611236790E+02  1.665125051E+02  2.697398305E-06  0.00000E+00  9.000E+00
#rwgt            1           1   4.2226434993734067E-002           1      236539           0
</event>
<event>
      5   9999  3.79277E-02  5.39942E+01 -1.00000E+00  1.37198E-01
      21    -1     0     0   502   501  0.000000000E+00  0.000000000E+00  9.388829028E+01  9.388829028E+01  0.000000000E+00  0.00000E+00  9.000E+00
      21    -1     0     0   512   502  0.000000000E+00  0.000000000E+00 -9.224732878E+02  9.224732878E+02  0.000000000E+00  0.00000E+00  9.000E+00
      25     1     1     2     0     0 -1.499898323E+01 -1.419341546E+02 -2.528059843E+02  3.160793246E+02  1.250000000E+02  0.00000E+00  9.000E+00
      25     1     1     2     0     0  6.081501219E+01  1.133638714E+02 -7.146441237E+01  1.930854611E+02  1.250000000E+02  0.00000E+00  9.000E+00
      21     1     1     2   512   501 -4.581602896E+01  2.857028313E+01 -5.043146009E+02  5.071967924E+02  0.000000000E+00  0.00000E+00  9.000E+00
#rwgt            1           1   4.0492474539539122E-002           1      236659           0
</event>
<event>
      5   9999  3.79277E-02  6.92080E+01 -1.00000E+00  1.31471E-01
      21    -1     0     0   511   501  0.000000000E+00  0.000000000E+00  5.343765731E+02  5.343765731E+02  0.000000000E+00  0.00000E+00  9.000E+00
      21    -1     0     0   501   502  0.000000000E+00  0.000000000E+00 -1.649148120E+02  1.649148120E+02  0.000000000E+00  0.00000E+00  9.000E+00
      25     1     1     2     0     0  1.397084087E+02 -5.919913454E+00  5.137853628E+01  1.944691205E+02  1.250000000E+02  0.00000E+00  9.000E+00
      25     1     1     2     0     0 -2.004003850E+02  3.917994145E+01  7.321455680E+01  2.503612459E+02  1.250000000E+02  0.00000E+00  9.000E+00
      21     1     1     2   511   502  6.069197633E+01 -3.326002799E+01  2.448686680E+02  2.544610187E+02  3.814697266E-06  0.00000E+00  9.000E+00
#rwgt            1           1   4.8140185490073005E-002           1      236721           0
</event>
<event>
      5   9999  3.79277E-02  3.55946E+01 -1.00000E+00  1.48055E-01
      21    -1     0     0   502   501  0.000000000E+00  0.000000000E+00  3.803959637E+02  3.803959637E+02  0.000000000E+00  0.00000E+00  9.000E+00
       1    -1     0     0   501     0  0.000000000E+00  0.000000000E+00 -1.618126676E+02  1.618126676E+02  0.000000000E+00  0.00000E+00  9.000E+00
      25     1     1     2     0     0 -7.235230967E+00  6.653978555E+01  4.104377694E+00  1.418511105E+02  1.250000000E+02  0.00000E+00  9.000E+00
      25     1     1     2     0     0  4.148132176E+01 -5.683514643E+01  2.862863559E+02  3.202121352E+02  1.250000000E+02  0.00000E+00  9.000E+00
       1     1     1     2   502     0 -3.424609079E+01 -9.704639124E+00 -7.180743749E+01  8.014538561E+01  9.536743164E-07  0.00000E+00  9.000E+00
#rwgt            1           1   4.8063159591171148E-002           1      236819           0
</event>
<event>
      5   9999  3.79277E-02  1.13944E+01 -1.00000E+00  1.89424E-01
      21    -1     0     0   502   501  0.000000000E+00  0.000000000E+00  1.688738190E+02  1.688738190E+02  0.000000000E+00  0.00000E+00  9.000E+00
      21    -1     0     0   511   502  0.000000000E+00  0.000000000E+00 -8.558201792E+02  8.558201792E+02  0.000000000E+00  0.00000E+00  9.000E+00
      25     1     1     2     0     0 -7.092468941E+01 -8.781793965E-01 -7.491912981E+02  7.628523343E+02  1.250000000E+02  0.00000E+00  9.000E+00
      25     1     1     2     0     0  7.971544644E+01  8.127649090E+00  1.274331807E+02  1.956650879E+02  1.250000000E+02  0.00000E+00  9.000E+00
      21     1     1     2   511   501 -8.790757031E+00 -7.249469694E+00 -6.518824276E+01  6.617657602E+01  9.536743164E-07  0.00000E+00  9.000E+00
#rwgt            1           1   5.5709996638663654E-002           1      236954           0
</event>
<event>
      5   9999  3.79277E-02  6.85952E+01 -1.00000E+00  1.31668E-01
      21    -1     0     0   502   501  0.000000000E+00  0.000000000E+00  1.059750889E+03  1.059750889E+03  0.000000000E+00  0.00000E+00  9.000E+00
      21    -1     0     0   512   502  0.000000000E+00  0.000000000E+00 -1.780788784E+02  1.780788784E+02  0.000000000E+00  0.00000E+00  9.000E+00
      25     1     1     2     0     0 -2.546930480E+02 -1.625980853E+02  7.570125764E+02  8.246209596E+02  1.250000000E+02  0.00000E+00  9.000E+00
      25     1     1     2     0     0  2.688409785E+02  9.547774620E+01  1.422106986E+02  3.424037887E+02  1.250000000E+02  0.00000E+00  9.000E+00
      21     1     1     2   512   501 -1.414793049E+01  6.712033915E+01 -1.755126435E+01  7.080501921E+01  1.450243599E-06  0.00000E+00  9.000E+00
#rwgt            1           1   3.3321082509118580E-003           1      237293           0
</event>
<event>
      5   9999  3.79277E-02  5.56136E+01 -1.00000E+00  1.36489E-01
      21    -1     0     0   502   501  0.000000000E+00  0.000000000E+00  6.305693175E+01  6.305693175E+01  0.000000000E+00  0.00000E+00  9.000E+00
       1    -1     0     0   501     0  0.000000000E+00  0.000000000E+00 -8.997718625E+02  8.997718625E+02  0.000000000E+00  0.00000E+00  9.000E+00
      25     1     1     2     0     0  2.946217393E-01  7.405478382E+01 -5.698083593E+01  1.560641326E+02  1.250000000E+02  0.00000E+00  9.000E+00
      25     1     1     2     0     0  4.602418819E+01 -4.327432139E+01 -6.606741438E+02  6.753563630E+02  1.250000000E+02  0.00000E+00  9.000E+00
       1     1     1     2   502     0 -4.631880993E+01 -3.078046243E+01 -1.190599510E+02  1.314082986E+02  2.336015456E-06  0.00000E+00  9.000E+00
#rwgt            1           1   4.4858845803731506E-002           1      237668           0
</event>
<event>
      5   9999  3.79277E-02  7.68479E+00 -1.00000E+00  2.09980E-01
      21    -1     0     0   502   511  0.000000000E+00  0.000000000E+00  4.075864447E+02  4.075864447E+02  0.000000000E+00  0.00000E+00  9.000E+00
      21    -1     0     0   501   502  0.000000000E+00  0.000000000E+00 -3.498901866E+02  3.498901866E+02  0.000000000E+00  0.00000E+00  9.000E+00
      25     1     1     2     0     0 -2.558594955E+02 -7.431122847E+01 -7.844699769E+01  3.045737539E+02  1.250000000E+02  0.00000E+00  9.000E+00
      25     1     1     2     0     0  2.485236464E+02  7.660060651E+01 -2.679476178E+01  2.897837383E+02  1.250000000E+02  0.00000E+00  9.000E+00
      21     1     1     2   501   511  7.335849175E+00 -2.289378040E+00  1.629380176E+02  1.631191390E+02  2.697398305E-06  0.00000E+00  9.000E+00
#rwgt            1           1   3.3975030292724341E-002           1      237785           0
</event>
<event>
      5   9999  3.79277E-02  2.88673E+01 -1.00000E+00  1.54210E-01
      21    -1     0     0   512   501  0.000000000E+00  0.000000000E+00  2.799847506E+02  2.799847506E+02  0.000000000E+00  0.00000E+00  9.000E+00
      21    -1     0     0   501   502  0.000000000E+00  0.000000000E+00 -1.971942946E+02  1.971942946E+02  0.000000000E+00  0.00000E+00  9.000E+00
      25     1     1     2     0     0 -1.338135055E+02 -4.147685358E+01  4.364425924E+01  1.927594486E+02  1.250000000E+02  0.00000E+00  9.000E+00
      25     1     1     2     0     0  1.075836997E+02  5.353174249E+01 -5.818755548E+01  1.828953021E+02  1.250000000E+02  0.00000E+00  9.000E+00
      21     1     1     2   512   502  2.622980578E+01 -1.205488891E+01  9.733375224E+01  1.015242945E+02  1.348699152E-06  0.00000E+00  9.000E+00
#rwgt            1           1   4.8695553686305008E-002           1      238101           0
</event>
<event>
      5   9999  3.79277E-02  1.86424E+01 -1.00000E+00  1.68928E-01
      21    -1     0     0   511   501  0.000000000E+00  0.000000000E+00  1.259136394E+03  1.259136394E+03  0.000000000E+00  0.00000E+00  9.000E+00
      21    -1     0     0   501   502  0.000000000E+00  0.000000000E+00 -1.215917926E+02  1.215917926E+02  0.000000000E+00  0.00000E+00  9.000E+00
      25     1     1     2     0     0  8.743217701E+01  6.089378594E+01  2.351041880E+02  2.867950801E+02  1.250000000E+02  0.00000E+00  9.000E+00
      25     1     1     2     0     0 -7.969567780E+01 -4.393248037E+01 -3.317154907E+01  1.581354342E+02  1.250000000E+02  0.00000E+00  9.000E+00
      21     1     1     2   511   502 -7.736499205E+00 -1.696130556E+01  9.356119621E+02  9.357976720E+02  1.078959322E-05  0.00000E+00  9.000E+00
#rwgt            1           1   4.4746123127823473E-002           1      238169           0
</event>
<event>
      5   9999  3.79277E-02  5.72208E+01 -1.00000E+00  1.35813E-01
      21    -1     0     0   502   512  0.000000000E+00  0.000000000E+00  3.234016640E+02  3.234016640E+02  0.000000000E+00  0.00000E+00  9.000E+00
      21    -1     0     0   501   502  0.000000000E+00  0.000000000E+00 -3.223833410E+02  3.223833410E+02  0.000000000E+00  0.00000E+00  9.000E+00
      25     1     1     2     0     0  2.111747729E+02 -1.619422106E+02  3.950378409E+01  2.966574005E+02  1.250000000E+02  0.00000E+00  9.000E+00
      25     1     1     2     0     0 -2.341074870E+02  1.095179188E+02 -4.811482719E+01  2.911022614E+02  1.250000000E+02  0.00000E+00  9.000E+00
      21     1     1     2   501   512  2.293271406E+01  5.242429178E+01  9.629366095E+00  5.802534303E+01  5.196212463E-07  0.00000E+00  9.000E+00
#rwgt            1           1   4.5746418233075424E-002           1      238336           0
</event>
<event>
      5   9999  3.79277E-02  4.77172E+01 -1.00000E+00  1.40243E-01
      -4    -1     0     0     0   501  0.000000000E+00  0.000000000E+00  6.182178127E+02  6.182178127E+02  0.000000000E+00  0.00000E+00  9.000E+00
      21    -1     0     0   501   502  0.000000000E+00  0.000000000E+00 -3.196931861E+02  3.196931861E+02  0.000000000E+00  0.00000E+00  9.000E+00
      25     1     1     2     0     0  1.058073315E+01 -3.145294187E+01  8.905054958E+01  1.570230551E+02  1.250000000E+02  0.00000E+00  9.000E+00
      25     1     1     2     0     0 -5.574412261E+01  1.605164657E+01 -2.678310901E+02  3.012035116E+02  1.250000000E+02  0.00000E+00  9.000E+00
      -4     1     1     2     0   502  4.516338946E+01  1.540129529E+01  4.773051673E+02  4.796844320E+02  5.394796609E-06  0.00000E+00  9.000E+00
#rwgt            1           1   4.5053661117981078E-002           1      238434           0
</event>
<event>
      5   9999  3.79277E-02  6.11369E+01 -1.00000E+00  1.34269E-01
      21    -1     0     0   511   501  0.000000000E+00  0.000000000E+00  2.008720944E+03  2.008720944E+03  0.000000000E+00  0.00000E+00  9.000E+00
      21    -1     0     0   501   502  0.000000000E+00  0.000000000E+00 -2.738343540E+02  2.738343540E+02  0.000000000E+00  0.00000E+00  9.000E+00
      25     1     1     2     0     0 -1.597795345E+02 -2.303492483E+02  2.067901696E+01  3.076408581E+02  1.250000000E+02  0.00000E+00  9.000E+00
      25     1     1     2     0     0  1.558188807E+02  1.693408131E+02  2.273748313E+00  2.618892982E+02  1.250000000E+02  0.00000E+00  9.000E+00
      21     1     1     2   511   502  3.960653841E+00  6.100843517E+01  1.711933824E+03  1.713025141E+03  3.051757812E-05  0.00000E+00  9.000E+00
#rwgt            1           1   3.2435532092260119E-002           1      238557           0
</event>
<event>
      5   9999 -3.79277E-02  1.23739E+01 -1.00000E+00  1.85638E-01
      21    -1     0     0   502   501  0.000000000E+00  0.000000000E+00  7.388674845E+02  7.388674845E+02  0.000000000E+00  0.00000E+00  9.000E+00
      21    -1     0     0   512   502  0.000000000E+00  0.000000000E+00 -1.358411900E+02  1.358411900E+02  0.000000000E+00  0.00000E+00  9.000E+00
      25     1     1     2     0     0 -1.156608912E+02  1.974649118E+02  3.770692563E+02  4.584496233E+02  1.250000000E+02  0.00000E+00  9.000E+00
      25     1     1     2     0     0  1.054877398E+02 -2.045091723E+02  2.666439827E+02  3.737320943E+02  1.250000000E+02  0.00000E+00  9.000E+00
      21     1     1     2   512   501  1.017315135E+01  7.044260552E+00 -4.068694438E+01  4.252695684E+01  9.536743164E-07  0.00000E+00  9.000E+00
#rwgt            1           1  -7.7723752414223399E-002           1      238709           0
</event>
<event>
      5   9999  3.79277E-02  3.56342E+01 -1.00000E+00  1.48023E-01
      21    -1     0     0   502   511  0.000000000E+00  0.000000000E+00  1.287012733E+03  1.287012733E+03  0.000000000E+00  0.00000E+00  9.000E+00
      21    -1     0     0   501   502  0.000000000E+00  0.000000000E+00 -3.669149520E+01  3.669149520E+01  0.000000000E+00  0.00000E+00  9.000E+00
      25     1     1     2     0     0 -1.011944719E+02  1.073178565E+02  4.897105292E+02  5.264967672E+02  1.250000000E+02  0.00000E+00  9.000E+00
      25     1     1     2     0     0  7.547304296E+01 -1.319796413E+02  5.630922175E+02  5.965003364E+02  1.250000000E+02  0.00000E+00  9.000E+00
      21     1     1     2   501   511  2.572142891E+01  2.466178486E+01  1.975184912E+02  2.007071247E+02  3.814697266E-06  0.00000E+00  9.000E+00
#rwgt            1           1   3.3104057225431374E-002           1      238983           0
</event>
<event>
      5   9999  3.79277E-02  1.97333E+01 -1.00000E+00  1.66852E-01
      21    -1     0     0   502   501  0.000000000E+00  0.000000000E+00  2.878717286E+02  2.878717286E+02  0.000000000E+00  0.00000E+00  9.000E+00
      21    -1     0     0   501   512  0.000000000E+00  0.000000000E+00 -7.202221813E+02  7.202221813E+02  0.000000000E+00  0.00000E+00  9.000E+00
      25     1     1     2     0     0 -3.220228734E+02 -7.973462547E+01 -1.718637220E+02  3.939777664E+02  1.250000000E+02  0.00000E+00  9.000E+00
      25     1     1     2     0     0  3.134299022E+02  6.197055050E+01  9.693172677E+00  3.432165648E+02  1.250000000E+02  0.00000E+00  9.000E+00
      21     1     1     2   502   512  8.592971182E+00  1.776407497E+01 -2.701799034E+02  2.708995787E+02  5.394796609E-06  0.00000E+00  9.000E+00
#rwgt            1           1   4.0159147457173174E-002           1      239154           0
</event>
<event>
      5   9999  3.79277E-02  1.42100E+02 -1.00000E+00  1.17333E-01
      21    -1     0     0   511   501  0.000000000E+00  0.000000000E+00  1.033812186E+02  1.033812186E+02  0.000000000E+00  0.00000E+00  9.000E+00
      21    -1     0     0   501   502  0.000000000E+00  0.000000000E+00 -6.921407217E+02  6.921407217E+02  0.000000000E+00  0.00000E+00  9.000E+00
      25     1     1     2     0     0  2.023176999E+02  5.434739580E+01 -3.244341631E+02  4.059170079E+02  1.250000000E+02  0.00000E+00  9.000E+00
      25     1     1     2     0     0 -6.131859764E+01 -3.669464987E+01 -1.391196933E+02  2.002142773E+02  1.250000000E+02  0.00000E+00  9.000E+00
      21     1     1     2   511   502 -1.409991022E+02 -1.765274593E+01 -1.252056467E+02  1.893906551E+02  1.907348633E-06  0.00000E+00  9.000E+00
#rwgt            1           1   3.0983303639445521E-002           1      239351           0
</event>
<event>
      5   9999  3.79277E-02  1.15385E+02 -1.00000E+00  1.21096E-01
      21    -1     0     0   502   512  0.000000000E+00  0.000000000E+00  1.182040786E+02  1.182040786E+02  0.000000000E+00  0.00000E+00  9.000E+00
      21    -1     0     0   501   502  0.000000000E+00  0.000000000E+00 -6.083059530E+02  6.083059530E+02  0.000000000E+00  0.00000E+00  9.000E+00
      25     1     1     2     0     0 -3.655283054E+01  1.547374147E+02 -2.821331727E+02  3.471367224E+02  1.250000000E+02  0.00000E+00  9.000E+00
      25     1     1     2     0     0  1.225928983E+02 -7.785556364E+01 -1.746736886E+02  2.592805527E+02  1.250000000E+02  0.00000E+00  9.000E+00
      21     1     1     2   501   512 -8.604006773E+01 -7.688185105E+01 -3.329501304E+01  1.200927565E+02  1.507891493E-06  0.00000E+00  9.000E+00
#rwgt            1           1   7.6266283689569545E-002           1      239422           0
</event>
<event>
      5   9999 -3.79277E-02  2.22378E+01 -1.00000E+00  1.62656E-01
      21    -1     0     0   502   511  0.000000000E+00  0.000000000E+00  2.571035259E+03  2.571035259E+03  0.000000000E+00  0.00000E+00  9.000E+00
      21    -1     0     0   501   502  0.000000000E+00  0.000000000E+00 -2.007976886E+02  2.007976886E+02  0.000000000E+00  0.00000E+00  9.000E+00
      25     1     1     2     0     0 -5.202231968E+02  2.310093671E+02  5.482879259E+02  8.001513306E+02  1.250000000E+02  0.00000E+00  9.000E+00
      25     1     1     2     0     0  5.219416530E+02 -2.531806893E+02  1.103946001E+03  1.253333684E+03  1.250000000E+02  0.00000E+00  9.000E+00
      21     1     1     2   501   511 -1.718456210E+00  2.217132224E+01  7.180036431E+02  7.183479325E+02  7.629394531E-06  0.00000E+00  9.000E+00
#rwgt            1           1 -0.32040664660490314                1      239462           0
</event>
<event>
      5   9999  3.79277E-02  1.36165E+02 -1.00000E+00  1.18084E-01
      21    -1     0     0   502   512  0.000000000E+00  0.000000000E+00  4.900656046E+02  4.900656046E+02  0.000000000E+00  0.00000E+00  9.000E+00
      21    -1     0     0   501   502  0.000000000E+00  0.000000000E+00 -1.854020205E+02  1.854020205E+02  0.000000000E+00  0.00000E+00  9.000E+00
      25     1     1     2     0     0  1.884762707E+02  6.732533334E+01 -2.837925091E+01  2.376686496E+02  1.250000000E+02  0.00000E+00  9.000E+00
      25     1     1     2     0     0 -6.072272167E+01 -2.020817261E+01  1.187681578E+02  1.839198045E+02  1.250000000E+02  0.00000E+00  9.000E+00
      21     1     1     2   501   512 -1.277535491E+02 -4.711716073E+01  2.142746772E+02  2.538791709E+02  2.697398305E-06  0.00000E+00  9.000E+00
#rwgt            1           1   3.4612678209165561E-002           1      239669           0
</event>
<event>
      5   9999  3.79277E-02  2.10423E+01 -1.00000E+00  1.64569E-01
      21    -1     0     0   502   511  0.000000000E+00  0.000000000E+00  4.080886996E+02  4.080886996E+02  0.000000000E+00  0.00000E+00  9.000E+00
      21    -1     0     0   501   502  0.000000000E+00  0.000000000E+00 -1.551096195E+02  1.551096195E+02  0.000000000E+00  0.00000E+00  9.000E+00
      25     1     1     2     0     0 -1.012307575E+02  1.639072443E+02  1.630945881E+02  2.816701896E+02  1.250000000E+02  0.00000E+00  9.000E+00
      25     1     1     2     0     0  1.206754638E+02 -1.719498273E+02  7.479183677E+01  2.556328021E+02  1.250000000E+02  0.00000E+00  9.000E+00
      21     1     1     2   501   511 -1.944470630E+01  8.042583016E+00  1.509265518E+01  2.589532748E+01  5.057621821E-07  0.00000E+00  9.000E+00
#rwgt            1           1   5.4548587513610115E-002           1      239738           0
</event>
<event>
      5   9999  3.79277E-02  9.66432E+01 -1.00000E+00  1.24499E-01
      21    -1     0     0   502   501  0.000000000E+00  0.000000000E+00  6.000548965E+02  6.000548965E+02  0.000000000E+00  0.00000E+00  9.000E+00
       2    -1     0     0   501     0  0.000000000E+00  0.000000000E+00 -4.486158391E+02  4.486158391E+02  0.000000000E+00  0.00000E+00  9.000E+00
      25     1     1     2     0     0  1.062785311E+02 -4.335389872E+01  3.846499126E+02  4.204226944E+02  1.250000000E+02  0.00000E+00  9.000E+00
      25     1     1     2     0     0 -1.762217931E+02 -2.333826665E+01  1.294407016E+02  2.529400923E+02  1.250000000E+02  0.00000E+00  9.000E+00
       2     1     1     2   502     0  6.994326200E+01  6.669216537E+01 -3.626515569E+02  3.753079489E+02  0.000000000E+00  0.00000E+00  9.000E+00
#rwgt            1           1   2.4188888962264083E-002           1      239951           0
</event>
<event>
      5   9999  3.79277E-02  5.09642E+01 -1.00000E+00  1.38604E-01
       1    -1     0     0   502     0  0.000000000E+00  0.000000000E+00  6.645646451E+02  6.645646451E+02  0.000000000E+00  0.00000E+00  9.000E+00
      21    -1     0     0   501   502  0.000000000E+00  0.000000000E+00 -3.614655475E+02  3.614655475E+02  0.000000000E+00  0.00000E+00  9.000E+00
      25     1     1     2     0     0  1.394426485E+02 -1.606603391E+02 -2.136970542E+01  2.476644122E+02  1.250000000E+02  0.00000E+00  9.000E+00
      25     1     1     2     0     0 -1.786113355E+02  1.280541334E+02 -1.547577588E+02  2.964368975E+02  1.250000000E+02  0.00000E+00  9.000E+00
       1     1     1     2   501     0  3.916868705E+01  3.260620566E+01  4.792265617E+02  4.819288829E+02  5.394796609E-06  0.00000E+00  9.000E+00
#rwgt            1           1   3.1990702923147152E-002           1      240037           0
</event>
<event>
      5   9999  3.79277E-02  4.01224E+01 -1.00000E+00  1.44758E-01
      21    -1     0     0   502   501  0.000000000E+00  0.000000000E+00  1.794891000E+02  1.794891000E+02  0.000000000E+00  0.00000E+00  9.000E+00
      21    -1     0     0   511   502  0.000000000E+00  0.000000000E+00 -3.849452915E+02  3.849452915E+02  0.000000000E+00  0.00000E+00  9.000E+00
      25     1     1     2     0     0 -9.092224327E+01 -1.640096788E+02 -7.085115627E+01  2.362433394E+02  1.250000000E+02  0.00000E+00  9.000E+00
      25     1     1     2     0     0  9.028801788E+01  2.041270826E+02 -9.822484930E+01  2.740308615E+02  1.250000000E+02  0.00000E+00  9.000E+00
      21     1     1     2   511   501  6.342253830E-01 -4.011740382E+01 -3.638018585E+01  5.416019067E+01  4.768371582E-07  0.00000E+00  9.000E+00
#rwgt            1           1   2.7123179070756634E-002           1      240124           0
</event>
<event>
      5   9999  3.79277E-02  1.02003E+02 -1.00000E+00  1.23442E-01
      21    -1     0     0   502   512  0.000000000E+00  0.000000000E+00  2.869802997E+02  2.869802997E+02  0.000000000E+00  0.00000E+00  9.000E+00
      21    -1     0     0   501   502  0.000000000E+00  0.000000000E+00 -3.330746806E+02  3.330746806E+02  0.000000000E+00  0.00000E+00  9.000E+00
      25     1     1     2     0     0 -7.510083045E+01 -3.009943361E+01 -2.449496171E+02  2.866555870E+02  1.250000000E+02  0.00000E+00  9.000E+00
      25     1     1     2     0     0  4.469122244E+01 -6.726486648E+01  1.729404070E+02  2.281562009E+02  1.250000000E+02  0.00000E+00  9.000E+00
      21     1     1     2   501   512  3.040960801E+01  9.736430008E+01  2.591482921E+01  1.052431925E+02  1.168007728E-06  0.00000E+00  9.000E+00
#rwgt            1           1   4.8352227756388977E-002           1      240299           0
</event>
<event>
      5   9999  3.79277E-02  9.15888E+01 -1.00000E+00  1.25569E-01
      21    -1     0     0   502   511  0.000000000E+00  0.000000000E+00  4.271795083E+02  4.271795083E+02  0.000000000E+00  0.00000E+00  9.000E+00
      21    -1     0     0   501   502  0.000000000E+00  0.000000000E+00 -5.383528292E+02  5.383528292E+02  0.000000000E+00  0.00000E+00  9.000E+00
      25     1     1     2     0     0  6.774991354E+01 -1.511609571E+02 -4.258180712E+02  4.736936937E+02  1.250000000E+02  0.00000E+00  9.000E+00
      25     1     1     2     0     0  1.660441054E+01  1.154837374E+02  7.307954405E+00  1.711449861E+02  1.250000000E+02  0.00000E+00  9.000E+00
      21     1     1     2   501   511 -8.435432408E+01  3.567721966E+01  3.073367959E+02  3.206936578E+02  3.814697266E-06  0.00000E+00  9.000E+00
#rwgt            1           1   2.9284976380341408E-002           1      240387           0
</event>
<event>
      5   9999  3.79277E-02  7.71915E+01 -1.00000E+00  1.29105E-01
      21    -1     0     0   512   501  0.000000000E+00  0.000000000E+00  9.452378526E+01  9.452378526E+01  0.000000000E+00  0.00000E+00  9.000E+00
      21    -1     0     0   501   502  0.000000000E+00  0.000000000E+00 -5.496164772E+02  5.496164772E+02  0.000000000E+00  0.00000E+00  9.000E+00
      25     1     1     2     0     0 -8.121247489E+00 -1.673537939E+01 -3.830894672E+02  4.033962908E+02  1.250000000E+02  0.00000E+00  9.000E+00
      25     1     1     2     0     0 -3.911618134E+01  7.778577900E+01 -5.249527714E+01  1.611255944E+02  1.250000000E+02  0.00000E+00  9.000E+00
      21     1     1     2   512   502  4.723742882E+01 -6.105039961E+01 -1.950794765E+01  7.961837725E+01  3.371747881E-07  0.00000E+00  9.000E+00
#rwgt            1           1   3.9436302440555085E-002           1      240516           0
</event>
<event>
      5   9999  3.79277E-02  6.57290E+01 -1.00000E+00  1.32620E-01
      21    -1     0     0   502   501  0.000000000E+00  0.000000000E+00  1.318460739E+03  1.318460739E+03  0.000000000E+00  0.00000E+00  9.000E+00
      21    -1     0     0   501   511  0.000000000E+00  0.000000000E+00 -3.699888296E+01  3.699888296E+01  0.000000000E+00  0.00000E+00  9.000E+00
      25     1     1     2     0     0  1.233025253E+01  1.689465091E+02  6.215716479E+02  6.562554926E+02  1.250000000E+02  0.00000E+00  9.000E+00
      25     1     1     2     0     0 -2.334170527E+01 -1.041464459E+02  5.002943905E+02  5.266030712E+02  1.250000000E+02  0.00000E+00  9.000E+00
      21     1     1     2   502   511  1.101145274E+01 -6.480006318E+01  1.595958171E+02  1.726010577E+02  2.697398305E-06  0.00000E+00  9.000E+00
#rwgt            1           1   7.1607052653102882E-002           1      240753           0
</event>
<event>
      5   9999 -4.69050E-02  7.22049E+01 -1.00000E+00  1.30542E-01
      21    -1     0     0   512   501  0.000000000E+00  0.000000000E+00  2.498397337E+02  2.498397337E+02  0.000000000E+00  0.00000E+00  9.000E+00
      21    -1     0     0   501   502  0.000000000E+00  0.000000000E+00 -5.625229297E+02  5.625229297E+02  0.000000000E+00  0.00000E+00  9.000E+00
      25     1     1     2     0     0 -2.192502965E+02  1.799331260E+02 -2.220845152E+02  3.813045426E+02  1.250000000E+02  0.00000E+00  9.000E+00
      25     1     1     2     0     0  1.491957046E+02 -1.624430535E+02 -1.838167633E+02  3.131464615E+02  1.250000000E+02  0.00000E+00  9.000E+00
      21     1     1     2   512   502  7.005459191E+01 -1.749007249E+01  9.321808253E+01  1.179116593E+02  2.336015456E-06  0.00000E+00  9.000E+00
#rwgt            1           1 -0.40783053590137669                1      240910           0
</event>
<event>
      5   9999  3.79277E-02  1.84599E+01 -1.00000E+00  1.69293E-01
      21    -1     0     0   502   501  0.000000000E+00  0.000000000E+00  3.351945665E+02  3.351945665E+02  0.000000000E+00  0.00000E+00  9.000E+00
      21    -1     0     0   511   502  0.000000000E+00  0.000000000E+00 -1.499437462E+02  1.499437462E+02  0.000000000E+00  0.00000E+00  9.000E+00
      25     1     1     2     0     0 -1.438333701E+02  9.871955662E+00 -2.053374811E+01  1.919169838E+02  1.250000000E+02  0.00000E+00  9.000E+00
      25     1     1     2     0     0  1.256027977E+02 -6.971493199E+00  2.094061717E+02  2.744095648E+02  1.250000000E+02  0.00000E+00  9.000E+00
      21     1     1     2   511   501  1.823057241E+01 -2.900462463E+00 -3.621603300E+00  1.881176396E+01  2.563692709E-07  0.00000E+00  9.000E+00
#rwgt            1           1   3.4532317143970481E-002           1      241084           0
</event>
<event>
      5   9999  3.79277E-02  2.85605E+02 -1.00000E+00  1.06291E-01
      21    -1     0     0   502   501  0.000000000E+00  0.000000000E+00  3.591604191E+02  3.591604191E+02  0.000000000E+00  0.00000E+00  9.000E+00
      21    -1     0     0   512   502  0.000000000E+00  0.000000000E+00 -1.140578576E+03  1.140578576E+03  0.000000000E+00  0.00000E+00  9.000E+00
      25     1     1     2     0     0  7.463758233E+01  1.053222884E+02  1.354144511E+02  2.250013927E+02  1.250000000E+02  0.00000E+00  9.000E+00
      25     1     1     2     0     0  1.625578640E+02 -2.644082434E+02 -2.188455238E+01  3.353218036E+02  1.250000000E+02  0.00000E+00  9.000E+00
      21     1     1     2   512   501 -2.371954463E+02  1.590859550E+02 -8.949480552E+02  9.394157984E+02  1.525878906E-05  0.00000E+00  9.000E+00
#rwgt            2          11   1.5326276204557360E-003           1      241245           0
</event>
<event>
      5   9999  3.79277E-02  2.16416E+01 -1.00000E+00  1.63591E-01
      21    -1     0     0   502   511  0.000000000E+00  0.000000000E+00  1.648289007E+02  1.648289007E+02  0.000000000E+00  0.00000E+00  9.000E+00
      21    -1     0     0   501   502  0.000000000E+00  0.000000000E+00 -6.927495974E+02  6.927495974E+02  0.000000000E+00  0.00000E+00  9.000E+00
      25     1     1     2     0     0 -2.712959325E+02  1.005977786E+02 -2.963888379E+02  4.326577623E+02  1.250000000E+02  0.00000E+00  9.000E+00
      25     1     1     2     0     0  2.524070948E+02 -9.003502181E+01 -2.568036506E+02  3.916487733E+02  1.250000000E+02  0.00000E+00  9.000E+00
      21     1     1     2   501   511  1.888883767E+01 -1.056275677E+01  2.527179193E+01  3.327196247E+01  8.920806376E-07  0.00000E+00  9.000E+00
#rwgt            1           1   3.1989665669230005E-002           1      241460           0
</event>
<event>
      5   9999  3.79277E-02  4.21687E+01 -1.00000E+00  1.43432E-01
      21    -1     0     0   502   501  0.000000000E+00  0.000000000E+00  1.857947910E+02  1.857947910E+02  0.000000000E+00  0.00000E+00  9.000E+00
      21    -1     0     0   501   512  0.000000000E+00  0.000000000E+00 -4.006499472E+02  4.006499472E+02  0.000000000E+00  0.00000E+00  9.000E+00
      25     1     1     2     0     0  1.289602519E+02 -6.931827810E+01 -5.750250250E+01  2.009161717E+02  1.250000000E+02  0.00000E+00  9.000E+00
      25     1     1     2     0     0 -1.188722132E+02  1.102624805E+02  1.767837818E+01  2.054895197E+02  1.250000000E+02  0.00000E+00  9.000E+00
      21     1     1     2   502   512 -1.008803875E+01 -4.094420237E+01 -1.750310319E+02  1.800390468E+02  0.000000000E+00  0.00000E+00  9.000E+00
#rwgt            1           1   3.4624688163197047E-002           1      241694           0
</event>
<event>
      5   9999  3.79277E-02  5.21359E+01 -1.00000E+00  1.38047E-01
      21    -1     0     0   502   501  0.000000000E+00  0.000000000E+00  1.308543392E+03  1.308543392E+03  0.000000000E+00  0.00000E+00  9.000E+00
      21    -1     0     0   511   502  0.000000000E+00  0.000000000E+00 -1.282122224E+02  1.282122224E+02  0.000000000E+00  0.00000E+00  9.000E+00
      25     1     1     2     0     0 -8.011559934E+01  3.690924965E+01  1.374410638E+01  1.536056719E+02  1.250000000E+02  0.00000E+00  9.000E+00
      25     1     1     2     0     0  1.236928016E+02 -8.287970660E+00  1.205377784E+03  1.218166327E+03  1.250000000E+02  0.00000E+00  9.000E+00
      21     1     1     2   511   501 -4.357720222E+01 -2.862127899E+01 -3.879072091E+01  6.498361480E+01  1.348699152E-06  0.00000E+00  9.000E+00
#rwgt            1           1   4.2347897388466157E-002           1      241817           0
</event>
<event>
      5   9999  3.79277E-02  4.34366E+01 -1.00000E+00  1.42655E-01
      21    -1     0     0   502   501  0.000000000E+00  0.000000000E+00  3.472052270E+02  3.472052270E+02  0.000000000E+00  0.00000E+00  9.000E+00
      21    -1     0     0   501   512  0.000000000E+00  0.000000000E+00 -1.600781572E+02  1.600781572E+02  0.000000000E+00  0.00000E+00  9.000E+00
      25     1     1     2     0     0 -8.203268998E+01  1.435593126E+02  4.354188176E+01  2.118006939E+02  1.250000000E+02  0.00000E+00  9.000E+00
      25     1     1     2     0     0  1.086618559E+02 -1.092427637E+02  1.535874821E+02  2.509093362E+02  1.250000000E+02  0.00000E+00  9.000E+00
      21     1     1     2   502   512 -2.662916588E+01 -3.431654891E+01 -1.000229411E+01  4.457335406E+01  1.685873940E-07  0.00000E+00  9.000E+00
#rwgt            1           1   4.1257695979688619E-002           1      241931           0
</event>
<event>
      5   9999  3.79277E-02  2.33062E+02 -1.00000E+00  1.09282E-01
      21    -1     0     0   502   501  0.000000000E+00  0.000000000E+00  3.331044674E+02  3.331044674E+02  0.000000000E+00  0.00000E+00  9.000E+00
      21    -1     0     0   501   511  0.000000000E+00  0.000000000E+00 -1.559355918E+03  1.559355918E+03  0.000000000E+00  0.00000E+00  9.000E+00
      25     1     1     2     0     0 -1.485213066E+02 -1.287115270E+01  2.244676543E+02  2.970437222E+02  1.250000000E+02  0.00000E+00  9.000E+00
      25     1     1     2     0     0 -8.265636836E+01  4.244403909E+01 -3.369547760E+01  1.593548145E+02  1.250000000E+02  0.00000E+00  9.000E+00
      21     1     1     2   502   511  2.311776750E+02 -2.957288638E+01 -1.417023628E+03  1.436061849E+03  1.525878906E-05  0.00000E+00  9.000E+00
#rwgt            1           1   4.3998931036007181E-002           1      242165           0
</event>
<event>
      5   9999  3.79277E-02  1.95083E+02 -1.00000E+00  1.12043E-01
      21    -1     0     0   512   501  0.000000000E+00  0.000000000E+00  9.429971038E+02  9.429971038E+02  0.000000000E+00  0.00000E+00  9.000E+00
      21    -1     0     0   501   502  0.000000000E+00  0.000000000E+00 -3.832711493E+02  3.832711493E+02  0.000000000E+00  0.00000E+00  9.000E+00
      25     1     1     2     0     0 -4.955911944E+01  2.617146810E+02 -9.357369685E+01  3.087583477E+02  1.250000000E+02  0.00000E+00  9.000E+00
      25     1     1     2     0     0 -1.298509816E+01 -7.692892242E+01 -1.383849583E+02  2.021436829E+02  1.250000000E+02  0.00000E+00  9.000E+00
      21     1     1     2   512   502  6.254421760E+01 -1.847857585E+02  7.916846096E+02  8.153662225E+02  1.525878906E-05  0.00000E+00  9.000E+00
#rwgt            1           1   8.6770854360865693E-002           1      242252           0
</event>
<event>
      5   9999  3.79277E-02  7.86235E+01 -1.00000E+00  1.28715E-01
      21    -1     0     0   502   501  0.000000000E+00  0.000000000E+00  4.936042752E+02  4.936042752E+02  0.000000000E+00  0.00000E+00  9.000E+00
      21    -1     0     0   501   511  0.000000000E+00  0.000000000E+00 -3.346905136E+02  3.346905136E+02  0.000000000E+00  0.00000E+00  9.000E+00
      25     1     1     2     0     0  1.890501308E+02  2.454034445E+01  2.844585179E+02  3.645323427E+02  1.250000000E+02  0.00000E+00  9.000E+00
      25     1     1     2     0     0 -1.947398776E+02 -1.029577169E+02  6.169759659E+01  2.606827666E+02  1.250000000E+02  0.00000E+00  9.000E+00
      21     1     1     2   502   511  5.689746772E+00  7.841737241E+01 -1.872423528E+02  2.030796794E+02  3.814697266E-06  0.00000E+00  9.000E+00
#rwgt            1           1   4.4320080202416755E-002           1      242339           0
</event>
<event>
      5   9999  3.79277E-02  4.34009E+01 -1.00000E+00  1.42676E-01
      21    -1     0     0   502   512  0.000000000E+00  0.000000000E+00  4.038041439E+02  4.038041439E+02  0.000000000E+00  0.00000E+00  9.000E+00
      21    -1     0     0   501   502  0.000000000E+00  0.000000000E+00 -6.139077075E+02  6.139077075E+02  0.000000000E+00  0.00000E+00  9.000E+00
      25     1     1     2     0     0 -2.800709338E+01 -1.506953372E+02 -1.423534573E+02  2.436862506E+02  1.250000000E+02  0.00000E+00  9.000E+00
      25     1     1     2     0     0  3.610694014E+01  1.933336921E+02 -3.870496923E+02  4.517898759E+02  1.250000000E+02  0.00000E+00  9.000E+00
      21     1     1     2   501   512 -8.099846763E+00 -4.263835496E+01  3.192995860E+02  3.222357250E+02  3.814697266E-06  0.00000E+00  9.000E+00
#rwgt            1           1   4.1134280772560691E-002           1      242449           0
</event>
<event>
      5   9999  3.79277E-02  1.84639E+01 -1.00000E+00  1.69284E-01
      21    -1     0     0   502   511  0.000000000E+00  0.000000000E+00  7.000768228E+02  7.000768228E+02  0.000000000E+00  0.00000E+00  9.000E+00
      21    -1     0     0   501   502  0.000000000E+00  0.000000000E+00 -8.870710666E+01  8.870710666E+01  0.000000000E+00  0.00000E+00  9.000E+00
      25     1     1     2     0     0 -3.642660541E+01  7.318157536E+00  5.359801735E+02  5.516159891E+02  1.250000000E+02  0.00000E+00  9.000E+00
      25     1     1     2     0     0  2.927523741E+01 -2.434091934E+01 -2.674448731E+01  1.333783621E+02  1.250000000E+02  0.00000E+00  9.000E+00
      21     1     1     2   501   511  7.151368004E+00  1.702276181E+01  1.021340300E+02  1.037895783E+02  1.348699152E-06  0.00000E+00  9.000E+00
#rwgt            1           1   3.6625307961228072E-002           1      242613           0
</event>
<event>
      5   9999  3.79277E-02  6.48517E+00 -1.00000E+00  2.20352E-01
      21    -1     0     0   512   501  0.000000000E+00  0.000000000E+00  2.281821718E+03  2.281821718E+03  0.000000000E+00  0.00000E+00  9.000E+00
      21    -1     0     0   501   502  0.000000000E+00  0.000000000E+00 -1.875511281E+01  1.875511281E+01  0.000000000E+00  0.00000E+00  9.000E+00
      25     1     1     2     0     0 -1.600203644E+02 -4.079325329E+00  1.288850535E+03  1.304754330E+03  1.250000000E+02  0.00000E+00  9.000E+00
      25     1     1     2     0     0  1.546303020E+02  7.685527218E+00  9.235399630E+02  9.447331162E+02  1.250000000E+02  0.00000E+00  9.000E+00
      21     1     1     2   512   502  5.390062398E+00 -3.606201889E+00  5.067610716E+01  5.108938541E+01  6.743495762E-07  0.00000E+00  9.000E+00
#rwgt            1           1   7.8633359456944898E-002           1      242785           0
</event>
<event>
      5   9999  3.79277E-02  3.95177E+01 -1.00000E+00  1.45168E-01
      21    -1     0     0   511   501  0.000000000E+00  0.000000000E+00  1.857039176E+02  1.857039176E+02  0.000000000E+00  0.00000E+00  9.000E+00
      21    -1     0     0   501   502  0.000000000E+00  0.000000000E+00 -1.482543860E+02  1.482543860E+02  0.000000000E+00  0.00000E+00  9.000E+00
      25     1     1     2     0     0 -4.058921628E+01  2.733848066E+01 -1.146436165E+01  1.347267924E+02  1.250000000E+02  0.00000E+00  9.000E+00
      25     1     1     2     0     0  7.086917456E+01 -5.273079938E+01  3.269476056E+01  1.565149337E+02  1.250000000E+02  0.00000E+00  9.000E+00
      21     1     1     2   511   502 -3.027995829E+01  2.539231872E+01  1.621913278E+01  4.271657749E+01  6.307962682E-07  0.00000E+00  9.000E+00
#rwgt            1           1   6.7671002129304311E-002           1      243191           0
</event>
<event>
      5   9999  3.79277E-02  2.28554E+02 -1.00000E+00  1.09578E-01
      21    -1     0     0   512   501  0.000000000E+00  0.000000000E+00  5.124627650E+02  5.124627650E+02  0.000000000E+00  0.00000E+00  9.000E+00
      21    -1     0     0   501   502  0.000000000E+00  0.000000000E+00 -3.708051356E+02  3.708051356E+02  0.000000000E+00  0.00000E+00  9.000E+00
      25     1     1     2     0     0 -1.745645175E+02 -1.649337459E+02 -2.022028495E+02  3.379155274E+02  1.250000000E+02  0.00000E+00  9.000E+00
      25     1     1     2     0     0  4.158514998E+01 -2.095219842E+01  1.120484494E+00  1.333963073E+02  1.250000000E+02  0.00000E+00  9.000E+00
      21     1     1     2   512   502  1.329793675E+02  1.858859443E+02  3.427399944E+02  4.119560659E+02  6.607249480E-06  0.00000E+00  9.000E+00
#rwgt            1           1   3.1494597013974814E-002           1      243307           0
</event>
<event>
      5   9999  3.79277E-02  5.49092E+01 -1.00000E+00  1.36794E-01
       2    -1     0     0   502     0  0.000000000E+00  0.000000000E+00  1.085304445E+03  1.085304445E+03  0.000000000E+00  0.00000E+00  9.000E+00
      21    -1     0     0   501   502  0.000000000E+00  0.000000000E+00 -1.075242659E+02  1.075242659E+02  0.000000000E+00  0.00000E+00  9.000E+00
      25     1     1     2     0     0 -7.197181514E+01 -1.013408477E+02  2.289094681E+02  2.889194597E+02  1.250000000E+02  0.00000E+00  9.000E+00
      25     1     1     2     0     0  7.117959012E+01  4.643732112E+01 -1.866241991E+00  1.511669332E+02  1.250000000E+02  0.00000E+00  9.000E+00
       2     1     1     2   501     0  7.922250230E-01  5.490352658E+01  7.507369531E+02  7.527423182E+02  0.000000000E+00  0.00000E+00  9.000E+00
#rwgt            1           1   4.0841273308034470E-002           1      243337           0
</event>
<event>
      5   9999  3.79277E-02  1.10467E+02  7.55638E-03  1.21914E-01
       1    -1     0     0   501     0  0.000000000E+00  0.000000000E+00  3.035256355E+02  3.035256355E+02  0.000000000E+00  0.00000E+00  9.000E+00
      -1    -1     0     0     0   502  0.000000000E+00  0.000000000E+00 -1.738717372E+02  1.738717372E+02  0.000000000E+00  0.00000E+00  9.000E+00
      25     1     1     2     0     0 -9.298823287E+01 -6.397463660E+01 -5.466728664E+01  1.770680033E+02  1.250000000E+02  0.00000E+00  9.000E+00
      25     1     1     2     0     0  1.466819332E+01 -1.392823593E+01  9.639533001E+01  1.591421104E+02  1.250000000E+02  0.00000E+00  9.000E+00
      21     1     1     2   501   502  7.832003955E+01  7.790287253E+01  8.792585494E+01  1.411872590E+02  1.651812370E-06  0.00000E+00  9.000E+00
#rwgt            3           6   1.8044338703493412E-004           1      243936           0
</event>
<event>
      5   9999  3.79277E-02  9.34865E+01 -1.00000E+00  1.25158E-01
      21    -1     0     0   502   501  0.000000000E+00  0.000000000E+00  2.748490976E+02  2.748490976E+02  0.000000000E+00  0.00000E+00  9.000E+00
      21    -1     0     0   511   502  0.000000000E+00  0.000000000E+00 -2.173159505E+02  2.173159505E+02  0.000000000E+00  0.00000E+00  9.000E+00
      25     1     1     2     0     0 -1.160716159E+02 -8.646797503E+01 -1.806299033E+01  1.920952950E+02  1.250000000E+02  0.00000E+00  9.000E+00
      25     1     1     2     0     0  9.078222936E+01 -3.532944628E+00  1.208821471E+02  1.961922230E+02  1.250000000E+02  0.00000E+00  9.000E+00
      21     1     1     2   511   501  2.528938658E+01  9.000091966E+01 -4.528600965E+01  1.038775302E+02  1.168007728E-06  0.00000E+00  9.000E+00
#rwgt            1           1   3.1732698187988150E-002           1      243985           0
</event>
<event>
      5   9999  3.79277E-02  5.99677E+01 -1.00000E+00  1.34716E-01
       1    -1     0     0   502     0  0.000000000E+00  0.000000000E+00  1.508761931E+03  1.508761931E+03  0.000000000E+00  0.00000E+00  9.000E+00
      21    -1     0     0   501   502  0.000000000E+00  0.000000000E+00 -1.503097136E+02  1.503097136E+02  0.000000000E+00  0.00000E+00  9.000E+00
      25     1     1     2     0     0  1.337682221E+02 -3.089400222E-01  2.117436207E+02  2.799185482E+02  1.250000000E+02  0.00000E+00  9.000E+00
      25     1     1     2     0     0 -8.407571075E+01  3.387641869E+01 -6.386652061E+01  1.670935945E+02  1.250000000E+02  0.00000E+00  9.000E+00
       1     1     1     2   501     0 -4.969251140E+01 -3.356747867E+01  1.210575117E+03  1.212059502E+03  2.157918644E-05  0.00000E+00  9.000E+00
#rwgt            1           1   3.9002994752796880E-002           1      244073           0
</event>
<event>
      5   9999  3.79277E-02  3.97313E+01 -1.00000E+00  1.45022E-01
      21    -1     0     0   502   501  0.000000000E+00  0.000000000E+00  8.083833496E+02  8.083833496E+02  0.000000000E+00  0.00000E+00  9.000E+00
      21    -1     0     0   511   502  0.000000000E+00  0.000000000E+00 -2.191186932E+02  2.191186932E+02  0.000000000E+00  0.00000E+00  9.000E+00
      25     1     1     2     0     0  3.378894156E+02  5.954833101E+01  4.058555793E+02  5.459478108E+02  1.250000000E+02  0.00000E+00  9.000E+00
      25     1     1     2     0     0 -3.646774775E+02 -3.020587347E+01  2.035719405E+02  4.369995336E+02  1.250000000E+02  0.00000E+00  9.000E+00
      21     1     1     2   511   501  2.678806197E+01 -2.934245753E+01 -2.016286352E+01  4.455469834E+01  5.840038640E-07  0.00000E+00  9.000E+00
#rwgt            1           1   6.0746351526166628E-002           1      244191           0
</event>
<event>
      5   9999  3.79277E-02  5.12417E+01 -1.00000E+00  1.38470E-01
      21    -1     0     0   502   501  0.000000000E+00  0.000000000E+00  6.011074499E+02  6.011074499E+02  0.000000000E+00  0.00000E+00  9.000E+00
      21    -1     0     0   512   502  0.000000000E+00  0.000000000E+00 -1.309064148E+02  1.309064148E+02  0.000000000E+00  0.00000E+00  9.000E+00
      25     1     1     2     0     0 -1.649616872E+02  7.136429798E+01  4.346025027E+02  4.866308217E+02  1.250000000E+02  0.00000E+00  9.000E+00
      25     1     1     2     0     0  1.369341869E+02 -2.846707744E+01  4.590401912E+01  1.931153154E+02  1.250000000E+02  0.00000E+00  9.000E+00
      21     1     1     2   512   501  2.802750025E+01 -4.289722054E+01 -1.030548670E+01  5.226772768E+01  8.920806376E-07  0.00000E+00  9.000E+00
#rwgt            1           1   5.3576981155106736E-002           1      244353           0
</event>
<event>
      5   9999  3.79277E-02  1.30432E+02 -1.00000E+00  1.18851E-01
      21    -1     0     0   502   511  0.000000000E+00  0.000000000E+00  7.731692486E+02  7.731692486E+02  0.000000000E+00  0.00000E+00  9.000E+00
      21    -1     0     0   501   502  0.000000000E+00  0.000000000E+00 -7.651356900E+02  7.651356900E+02  0.000000000E+00  0.00000E+00  9.000E+00
      25     1     1     2     0     0 -2.434632760E+02 -9.920704777E+00 -4.655480633E+02  5.401229364E+02  1.250000000E+02  0.00000E+00  9.000E+00
      25     1     1     2     0     0  3.654669149E+02 -3.620518223E+01 -1.075621042E+02  4.025810320E+02  1.250000000E+02  0.00000E+00  9.000E+00
      21     1     1     2   501   511 -1.220036389E+02  4.612588700E+01  5.811437261E+02  5.956009702E+02  0.000000000E+00  0.00000E+00  9.000E+00
#rwgt            1           1   3.3795256727159315E-002           1      244456           0
</event>
<event>
      5   9999  3.79277E-02  7.40253E+01 -1.00000E+00  1.30003E-01
      21    -1     0     0   512   501  0.000000000E+00  0.000000000E+00  4.142268930E+02  4.142268930E+02  0.000000000E+00  0.00000E+00  9.000E+00
      21    -1     0     0   501   502  0.000000000E+00  0.000000000E+00 -2.090493825E+02  2.090493825E+02  0.000000000E+00  0.00000E+00  9.000E+00
      25     1     1     2     0     0 -1.793897903E+02  2.624066202E+01  8.170723699E+01  2.348836771E+02  1.250000000E+02  0.00000E+00  9.000E+00
      25     1     1     2     0     0  2.529906952E+02 -1.832549326E+01  5.608313040E+01  2.882888015E+02  1.250000000E+02  0.00000E+00  9.000E+00
      21     1     1     2   512   502 -7.360090490E+01 -7.915168767E+00  6.738714309E+01  1.001037969E+02  0.000000000E+00  0.00000E+00  9.000E+00
#rwgt            1           1   2.7462619313693152E-002           1      244562           0
</event>
<event>
      5   9999  3.79277E-02  3.71200E+01 -1.00000E+00  1.46882E-01
      21    -1     0     0   502   501  0.000000000E+00  0.000000000E+00  1.199292471E+02  1.199292471E+02  0.000000000E+00  0.00000E+00  9.000E+00
      21    -1     0     0   501   511  0.000000000E+00  0.000000000E+00 -5.745513195E+02  5.745513195E+02  0.000000000E+00  0.00000E+00  9.000E+00
      25     1     1     2     0     0 -1.362846783E+02  8.386979770E+01 -7.363856952E+01  2.159983690E+02  1.250000000E+02  0.00000E+00  9.000E+00
      25     1     1     2     0     0  1.322364577E+02 -1.207684415E+02 -2.081243479E+02  3.016823518E+02  1.250000000E+02  0.00000E+00  9.000E+00
      21     1     1     2   502   511  4.048220583E+00  3.689864385E+01 -1.728591549E+02  1.767998457E+02  2.697398305E-06  0.00000E+00  9.000E+00
#rwgt            1           1   3.3671880701665560E-002           1      244725           0
</event>
<event>
      5   9999  3.79277E-02  5.88001E+01 -1.00000E+00  1.35174E-01
      21    -1     0     0   512   501  0.000000000E+00  0.000000000E+00  1.454819265E+03  1.454819265E+03  0.000000000E+00  0.00000E+00  9.000E+00
      21    -1     0     0   501   502  0.000000000E+00  0.000000000E+00 -1.384273422E+02  1.384273422E+02  0.000000000E+00  0.00000E+00  9.000E+00
      25     1     1     2     0     0 -3.408492388E+02 -5.005674656E+01  4.095412827E+02  5.495752393E+02  1.250000000E+02  0.00000E+00  9.000E+00
      25     1     1     2     0     0  2.857762284E+02  2.945551845E+01  2.993299779E+02  4.333118000E+02  1.250000000E+02  0.00000E+00  9.000E+00
      21     1     1     2   512   502  5.507301038E+01  2.060122811E+01  6.075206624E+02  6.103595681E+02  0.000000000E+00  0.00000E+00  9.000E+00
#rwgt            1           1   3.2099711577504617E-002           1      244859           0
</event>
<event>
      5   9999  3.79277E-02  8.06053E+00 -1.00000E+00  2.07243E-01
      21    -1     0     0   502   501  0.000000000E+00  0.000000000E+00  6.393246906E+02  6.393246906E+02  0.000000000E+00  0.00000E+00  9.000E+00
      21    -1     0     0   511   502  0.000000000E+00  0.000000000E+00 -1.448622799E+02  1.448622799E+02  0.000000000E+00  0.00000E+00  9.000E+00
      25     1     1     2     0     0  7.833722888E+01  1.566768921E+02  4.319965610E+02  4.826286343E+02  1.250000000E+02  0.00000E+00  9.000E+00
      25     1     1     2     0     0 -8.225781218E+01 -1.496340871E+02  1.201276317E+02  2.433358904E+02  1.250000000E+02  0.00000E+00  9.000E+00
      21     1     1     2   511   501  3.920583303E+00 -7.042805075E+00 -5.766178203E+01  5.822244571E+01  0.000000000E+00  0.00000E+00  9.000E+00
#rwgt            1           1   3.3504611225747126E-002           1      245038           0
</event>
<event>
      5   9999  3.79277E-02  1.20323E+02 -1.00000E+00  1.20319E-01
      21    -1     0     0   512   501  0.000000000E+00  0.000000000E+00  9.344638978E+01  9.344638978E+01  0.000000000E+00  0.00000E+00  9.000E+00
      21    -1     0     0   501   502  0.000000000E+00  0.000000000E+00 -1.031703032E+03  1.031703032E+03  0.000000000E+00  0.00000E+00  9.000E+00
      25     1     1     2     0     0 -1.307902738E+02  8.541725380E+01 -5.216257983E+02  5.586776141E+02  1.250000000E+02  0.00000E+00  9.000E+00
      25     1     1     2     0     0  1.027562568E+02 -2.024289034E+02 -3.223723139E+02  4.136244892E+02  1.250000000E+02  0.00000E+00  9.000E+00
      21     1     1     2   512   502  2.803401706E+01  1.170116496E+02 -9.425852958E+01  1.528473181E+02  1.907348633E-06  0.00000E+00  9.000E+00
#rwgt            1           1   4.2447807586325811E-002           1      245226           0
</event>
<event>
      5   9999  3.79277E-02  5.69232E+01 -1.00000E+00  1.35937E-01
      21    -1     0     0   502   511  0.000000000E+00  0.000000000E+00  2.276489194E+02  2.276489194E+02  0.000000000E+00  0.00000E+00  9.000E+00
      21    -1     0     0   501   502  0.000000000E+00  0.000000000E+00 -2.183324507E+02  2.183324507E+02  0.000000000E+00  0.00000E+00  9.000E+00
      25     1     1     2     0     0 -1.032912925E+02  2.357301159E+01 -4.796562758E+01  1.707351148E+02  1.250000000E+02  0.00000E+00  9.000E+00
      25     1     1     2     0     0  1.525170113E+02 -5.215759804E+01  1.536642931E+01  2.045555692E+02  1.250000000E+02  0.00000E+00  9.000E+00
      21     1     1     2   501   511 -4.922571874E+01  2.858458645E+01  4.191566695E+01  7.069068612E+01  0.000000000E+00  0.00000E+00  9.000E+00
#rwgt            1           1  0.10048688544133796                1      245409           0
</event>
<event>
      5   9999  3.79277E-02  2.24432E+02 -1.00000E+00  1.09856E-01
      21    -1     0     0   502   501  0.000000000E+00  0.000000000E+00  2.217428514E+02  2.217428514E+02  0.000000000E+00  0.00000E+00  9.000E+00
      21    -1     0     0   512   502  0.000000000E+00  0.000000000E+00 -1.159405430E+03  1.159405430E+03  0.000000000E+00  0.00000E+00  9.000E+00
      25     1     1     2     0     0  4.469031229E+01 -2.956193830E+02 -5.080960438E+01  3.280162489E+02  1.250000000E+02  0.00000E+00  9.000E+00
      25     1     1     2     0     0 -1.124996180E+02  8.167632025E+01 -5.997802457E+01  1.963403900E+02  1.250000000E+02  0.00000E+00  9.000E+00
      21     1     1     2   512   501  6.780930569E+01  2.139430628E+02 -8.268749497E+02  8.567916425E+02  0.000000000E+00  0.00000E+00  9.000E+00
#rwgt            2          11   1.2976612118763087E-003           1      245618           0
</event>
<event>
      5   9999  3.79277E-02  7.43295E+01 -1.00000E+00  1.29914E-01
       2    -1     0     0   502     0  0.000000000E+00  0.000000000E+00  8.551863705E+02  8.551863705E+02  0.000000000E+00  0.00000E+00  9.000E+00
      21    -1     0     0   501   502  0.000000000E+00  0.000000000E+00 -1.437551100E+02  1.437551100E+02  0.000000000E+00  0.00000E+00  9.000E+00
      25     1     1     2     0     0 -6.609754494E+01 -9.260973170E+01 -5.103477198E+01  1.765644239E+02  1.250000000E+02  0.00000E+00  9.000E+00
      25     1     1     2     0     0  1.048816640E+02  1.560184819E+02  4.823630178E+02  5.325795819E+02  1.250000000E+02  0.00000E+00  9.000E+00
       2     1     1     2   501     0 -3.878411902E+01 -6.340875020E+01  2.801030146E+02  2.897974746E+02  3.814697266E-06  0.00000E+00  9.000E+00
#rwgt            1           1   2.6915870431170698E-002           1      245668           0
</event>
<event>
      5   9999  3.79277E-02  4.78903E+01 -1.00000E+00  1.40152E-01
      21    -1     0     0   502   501  0.000000000E+00  0.000000000E+00  1.001208379E+02  1.001208379E+02  0.000000000E+00  0.00000E+00  9.000E+00
      21    -1     0     0   511   502  0.000000000E+00  0.000000000E+00 -7.760241658E+02  7.760241658E+02  0.000000000E+00  0.00000E+00  9.000E+00
      25     1     1     2     0     0  2.930707410E+01 -6.009988825E+01  3.086028467E+01  1.450801790E+02  1.250000000E+02  0.00000E+00  9.000E+00
      25     1     1     2     0     0  1.660088355E+01  4.646389222E+01 -5.846559722E+02  5.999017324E+02  1.250000000E+02  0.00000E+00  9.000E+00
      21     1     1     2   511   501 -4.590795765E+01  1.363599603E+01 -1.221076404E+02  1.311630924E+02  1.348699152E-06  0.00000E+00  9.000E+00
#rwgt            1           1   4.1996414401381278E-002           1      245782           0
</event>
<event>
      5   9999  3.79277E-02  2.59762E+01 -1.00000E+00  1.57515E-01
       2    -1     0     0   502     0  0.000000000E+00  0.000000000E+00  1.154730605E+03  1.154730605E+03  0.000000000E+00  0.00000E+00  9.000E+00
      21    -1     0     0   501   502  0.000000000E+00  0.000000000E+00 -3.249781456E+02  3.249781456E+02  0.000000000E+00  0.00000E+00  9.000E+00
      25     1     1     2     0     0  1.127074760E+02 -4.553555175E+01 -1.782481079E+02  2.493468460E+02  1.250000000E+02  0.00000E+00  9.000E+00
      25     1     1     2     0     0 -1.339862437E+02  3.063658592E+01 -3.329323621E+01  1.887441482E+02  1.250000000E+02  0.00000E+00  9.000E+00
       2     1     1     2   501     0  2.127876768E+01  1.489896583E+01  1.041293804E+03  1.041617757E+03  0.000000000E+00  0.00000E+00  9.000E+00
#rwgt            1           1   4.7919581801962256E-002           1      245920           0
</event>
<event>
      5   9999  3.79277E-02  4.26513E+01 -1.00000E+00  1.43132E-01
      21    -1     0     0   511   501  0.000000000E+00  0.000000000E+00  6.667450851E+01  6.667450851E+01  0.000000000E+00  0.00000E+00  9.000E+00
      21    -1     0     0   501   502  0.000000000E+00  0.000000000E+00 -9.041755872E+02  9.041755872E+02  0.000000000E+00  0.00000E+00  9.000E+00
      25     1     1     2     0     0  1.611662272E+02 -4.015940203E+01 -6.110620104E+02  6.454526403E+02  1.250000000E+02  0.00000E+00  9.000E+00
      25     1     1     2     0     0 -1.428635255E+02  1.634759857E+00 -1.969447121E+02  2.735413661E+02  1.250000000E+02  0.00000E+00  9.000E+00
      21     1     1     2   511   502 -1.830270166E+01  3.852464218E+01 -2.949435620E+01  5.185608923E+01  8.259061849E-07  0.00000E+00  9.000E+00
#rwgt            1           1  0.27164109350123694                1      246089           0
</event>
<event>
      5   9999  3.79277E-02  1.22174E+01 -1.00000E+00  1.86212E-01
      21    -1     0     0   502   512  0.000000000E+00  0.000000000E+00  1.291287399E+02  1.291287399E+02  0.000000000E+00  0.00000E+00  9.000E+00
      21    -1     0     0   501   502  0.000000000E+00  0.000000000E+00 -5.217330276E+02  5.217330276E+02  0.000000000E+00  0.00000E+00  9.000E+00
      25     1     1     2     0     0 -1.114225220E+02  5.495864945E+01 -7.280803762E+01  1.906867638E+02  1.250000000E+02  0.00000E+00  9.000E+00
      25     1     1     2     0     0  1.205058382E+02 -4.678813135E+01 -3.684615088E+02  4.099995973E+02  1.250000000E+02  0.00000E+00  9.000E+00
      21     1     1     2   501   512 -9.083316209E+00 -8.170518100E+00  4.866525871E+01  5.017540638E+01  6.743495762E-07  0.00000E+00  9.000E+00
#rwgt            1           1   3.4269434866199038E-002           1      246273           0
</event>
<event>
      5   9999  3.79277E-02  7.42695E+01 -1.00000E+00  1.29932E-01
      21    -1     0     0   502   511  0.000000000E+00  0.000000000E+00  4.231061411E+02  4.231061411E+02  0.000000000E+00  0.00000E+00  9.000E+00
      21    -1     0     0   501   502  0.000000000E+00  0.000000000E+00 -2.003813505E+02  2.003813505E+02  0.000000000E+00  0.00000E+00  9.000E+00
      25     1     1     2     0     0  3.127358216E+01  2.415622798E+02  1.147241306E+02  2.968450743E+02  1.250000000E+02  0.00000E+00  9.000E+00
      25     1     1     2     0     0 -3.346924454E+01 -1.673252904E+02  2.147395159E+01  2.126124966E+02  1.250000000E+02  0.00000E+00  9.000E+00
      21     1     1     2   501   511  2.195662378E+00 -7.423698946E+01  8.652670842E+01  1.140299207E+02  1.651812370E-06  0.00000E+00  9.000E+00
#rwgt            1           1   3.8351375834703508E-002           1      246507           0
</event>
<event>
      5   9999  3.79277E-02  2.59737E+01 -1.00000E+00  1.57518E-01
      21    -1     0     0   502   512  0.000000000E+00  0.000000000E+00  3.130474838E+03  3.130474838E+03  0.000000000E+00  0.00000E+00  9.000E+00
      21    -1     0     0   501   502  0.000000000E+00  0.000000000E+00 -3.120053130E+01  3.120053130E+01  0.000000000E+00  0.00000E+00  9.000E+00
      25     1     1     2     0     0 -1.790459637E+02  1.313519383E+02  6.773366105E+02  7.236854791E+02  1.250000000E+02  0.00000E+00  9.000E+00
      25     1     1     2     0     0  1.736432934E+02 -1.059463487E+02  1.833487971E+03  1.848967215E+03  1.250000000E+02  0.00000E+00  9.000E+00
      21     1     1     2   501   512  5.402670240E+00 -2.540558953E+01  5.884497248E+02  5.890226748E+02  7.629394531E-06  0.00000E+00  9.000E+00
#rwgt            1           1   9.5730626417115050E-002           1      246626           0
</event>
<event>
      5   9999  3.79277E-02  6.24801E+01 -1.00000E+00  1.33770E-01
       2    -1     0     0   502     0  0.000000000E+00  0.000000000E+00  7.607707196E+02  7.607707196E+02  0.000000000E+00  0.00000E+00  9.000E+00
      21    -1     0     0   501   502  0.000000000E+00  0.000000000E+00 -1.533167014E+02  1.533167014E+02  0.000000000E+00  0.00000E+00  9.000E+00
      25     1     1     2     0     0 -1.790028468E+02  2.506417214E+01  7.365383631E+01  2.317760115E+02  1.250000000E+02  0.00000E+00  9.000E+00
      25     1     1     2     0     0  2.412200949E+02 -3.078960457E+01  1.901856603E+02  3.330626357E+02  1.250000000E+02  0.00000E+00  9.000E+00
       2     1     1     2   501     0 -6.221724814E+01  5.725432430E+00  3.436145216E+02  3.492487738E+02  3.814697266E-06  0.00000E+00  9.000E+00
#rwgt            1           1   3.7738366233822110E-002           1      246770           0
</event>
<event>
      5   9999  3.79277E-02  1.74653E+02 -1.00000E+00  1.13833E-01
      21    -1     0     0   502   511  0.000000000E+00  0.000000000E+00  5.625108069E+02  5.625108069E+02  0.000000000E+00  0.00000E+00  9.000E+00
      21    -1     0     0   501   502  0.000000000E+00  0.000000000E+00 -2.742279680E+02  2.742279680E+02  0.000000000E+00  0.00000E+00  9.000E+00
      25     1     1     2     0     0 -4.933566088E+01  3.122495528E+02  7.439131513E+01  3.479839916E+02  1.250000000E+02  0.00000E+00  9.000E+00
      25     1     1     2     0     0 -9.381908015E+01 -2.121974528E+02  1.103215987E+02  2.857020020E+02  1.250000000E+02  0.00000E+00  9.000E+00
      21     1     1     2   501   511  1.431547410E+02 -1.000521000E+02  1.035699251E+02  2.030527812E+02  2.336015456E-06  0.00000E+00  9.000E+00
#rwgt            1           1   3.3689368933623114E-002           1      246877           0
</event>
<event>
      5   9999  3.79277E-02  6.08310E+00 -1.00000E+00  2.24548E-01
      21    -1     0     0   502   501  0.000000000E+00  0.000000000E+00  2.123910245E+02  2.123910245E+02  0.000000000E+00  0.00000E+00  9.000E+00
      21    -1     0     0   501   512  0.000000000E+00  0.000000000E+00 -2.580337678E+02  2.580337678E+02  0.000000000E+00  0.00000E+00  9.000E+00
      25     1     1     2     0     0  2.286525895E+01  1.191805147E+02  1.298880380E+02  2.173078866E+02  1.250000000E+02  0.00000E+00  9.000E+00
      25     1     1     2     0     0 -2.870057750E+01 -1.208989854E+02 -1.704569127E+02  2.451955279E+02  1.250000000E+02  0.00000E+00  9.000E+00
      21     1     1     2   502   512  5.835318549E+00  1.718470683E+00 -5.073868530E+00  7.921377779E+00  1.192092896E-07  0.00000E+00  9.000E+00
#rwgt            1           1   3.7394420919925453E-002           1      247001           0
</event>
<event>
      5   9999 -3.79277E-02  9.10152E+01 -1.00000E+00  1.25695E-01
      21    -1     0     0   502   511  0.000000000E+00  0.000000000E+00  6.803605535E+01  6.803605535E+01  0.000000000E+00  0.00000E+00  9.000E+00
      21    -1     0     0   501   502  0.000000000E+00  0.000000000E+00 -1.174299029E+03  1.174299029E+03  0.000000000E+00  0.00000E+00  9.000E+00
      25     1     1     2     0     0  2.353711033E+02  3.003085881E+01 -5.358203982E+02  5.991910446E+02  1.250000000E+02  0.00000E+00  9.000E+00
      25     1     1     2     0     0 -1.443837663E+02 -2.777806218E+01 -4.673272855E+02  5.056066500E+02  1.250000000E+02  0.00000E+00  9.000E+00
      21     1     1     2   501   511 -9.098733695E+01 -2.252796633E+00 -1.031152898E+02  1.375373897E+02  0.000000000E+00  0.00000E+00  9.000E+00
#rwgt            1           1  -4.3078212140360048E-002           1      247508           0
</event>
<event>
      5   9999  3.79277E-02  2.27481E+01 -1.00000E+00  1.61884E-01
      21    -1     0     0   502   501  0.000000000E+00  0.000000000E+00  2.264306772E+02  2.264306772E+02  0.000000000E+00  0.00000E+00  9.000E+00
      21    -1     0     0   512   502  0.000000000E+00  0.000000000E+00 -2.508214922E+02  2.508214922E+02  0.000000000E+00  0.00000E+00  9.000E+00
      25     1     1     2     0     0  1.065212509E+02 -8.966482051E+01 -1.232353105E+02  2.240502147E+02  1.250000000E+02  0.00000E+00  9.000E+00
      25     1     1     2     0     0 -1.006551666E+02  1.116435574E+02  1.135784249E+02  2.260991045E+02  1.250000000E+02  0.00000E+00  9.000E+00
      21     1     1     2   512   501 -5.866084291E+00 -2.197873691E+01 -1.473392930E+01  2.710285028E+01  2.920019320E-07  0.00000E+00  9.000E+00
#rwgt            1           1   5.1421821430440474E-002           1      247609           0
</event>
<event>
      5   9999  3.79277E-02  1.73617E+02 -1.00000E+00  1.13931E-01
      21    -1     0     0   502   501  0.000000000E+00  0.000000000E+00  6.810195264E+02  6.810195264E+02  0.000000000E+00  0.00000E+00  9.000E+00
      21    -1     0     0   501   511  0.000000000E+00  0.000000000E+00 -1.642864008E+02  1.642864008E+02  0.000000000E+00  0.00000E+00  9.000E+00
      25     1     1     2     0     0 -5.043265561E+01  1.089591862E+02  1.627678018E+02  2.377686151E+02  1.250000000E+02  0.00000E+00  9.000E+00
      25     1     1     2     0     0  1.268976695E+02 -2.648302826E+02  2.474615420E+02  4.038567962E+02  1.250000000E+02  0.00000E+00  9.000E+00
      21     1     1     2   502   511 -7.646501390E+01  1.558710964E+02  1.065037818E+02  2.036805159E+02  2.336015456E-06  0.00000E+00  9.000E+00
#rwgt            1           1   3.7383169735757275E-002           1      247793           0
</event>
<event>
      5   9999  3.79277E-02  6.54585E+01 -1.00000E+00  1.32713E-01
      21    -1     0     0   502   501  0.000000000E+00  0.000000000E+00  3.464301102E+02  3.464301102E+02  0.000000000E+00  0.00000E+00  9.000E+00
      21    -1     0     0   512   502  0.000000000E+00  0.000000000E+00 -2.443518677E+02  2.443518677E+02  0.000000000E+00  0.00000E+00  9.000E+00
      25     1     1     2     0     0  2.828343028E+01  1.081016837E+02  2.630850229E+02  3.119689980E+02  1.250000000E+02  0.00000E+00  9.000E+00
      25     1     1     2     0     0  2.023424117E+01 -6.416022028E+01 -1.592452823E+02  2.133307721E+02  1.250000000E+02  0.00000E+00  9.000E+00
      21     1     1     2   512   501 -4.851767146E+01 -4.394146343E+01 -1.761498161E+00  6.548220772E+01  6.443783137E-07  0.00000E+00  9.000E+00
#rwgt            1           1   4.7404011277495356E-002           1      247873           0
</event>
<event>
      5   9999  3.79277E-02  1.56424E+02 -1.00000E+00  1.15676E-01
      21    -1     0     0   502   501  0.000000000E+00  0.000000000E+00  6.626162851E+01  6.626162851E+01  0.000000000E+00  0.00000E+00  9.000E+00
       2    -1     0     0   501     0  0.000000000E+00  0.000000000E+00 -1.797537853E+03  1.797537853E+03  0.000000000E+00  0.00000E+00  9.000E+00
      25     1     1     2     0     0  1.221871032E+02  4.194702798E+01 -8.938739902E+02  9.117702297E+02  1.250000000E+02  0.00000E+00  9.000E+00
      25     1     1     2     0     0 -1.390182715E+02  1.135693239E+02 -2.023108708E+02  2.979576473E+02  1.250000000E+02  0.00000E+00  9.000E+00
       2     1     1     2   502     0  1.683116832E+01 -1.555163518E+02 -6.350913636E+02  6.540716046E+02  1.078959322E-05  0.00000E+00  9.000E+00
#rwgt            1           1   3.5883453279170453E-002           1      247991           0
</event>
<event>
      5   9999  3.79277E-02  1.40834E+01 -1.00000E+00  1.80003E-01
      21    -1     0     0   502   501  0.000000000E+00  0.000000000E+00  2.091877581E+03  2.091877581E+03  0.000000000E+00  0.00000E+00  9.000E+00
      21    -1     0     0   501   511  0.000000000E+00  0.000000000E+00 -1.691274513E+02  1.691274513E+02  0.000000000E+00  0.00000E+00  9.000E+00
      25     1     1     2     0     0 -7.251336310E+01  9.148459828E+01  5.228615102E+02  5.501243299E+02  1.250000000E+02  0.00000E+00  9.000E+00
      25     1     1     2     0     0  5.905890556E+01 -9.564626849E+01  1.550512746E+03  1.559599609E+03  1.250000000E+02  0.00000E+00  9.000E+00
      21     1     1     2   502   511  1.345445754E+01  4.161670218E+00 -1.506241265E+02  1.512810940E+02  4.264961200E-06  0.00000E+00  9.000E+00
#rwgt            1           1   9.8500434733484077E-002           1      248263           0
</event>
<event>
      5   9999  3.79277E-02  1.24260E+01 -1.00000E+00  1.85449E-01
      21    -1     0     0   502   512  0.000000000E+00  0.000000000E+00  5.973251931E+02  5.973251931E+02  0.000000000E+00  0.00000E+00  9.000E+00
      21    -1     0     0   501   502  0.000000000E+00  0.000000000E+00 -6.670865699E+01  6.670865699E+01  0.000000000E+00  0.00000E+00  9.000E+00
      25     1     1     2     0     0  2.820725814E+01 -1.159480340E+02  1.248274413E+02  2.131818147E+02  1.250000000E+02  0.00000E+00  9.000E+00
      25     1     1     2     0     0 -3.301729133E+01  1.274053469E+02  3.568664070E+02  4.003759439E+02  1.250000000E+02  0.00000E+00  9.000E+00
      21     1     1     2   501   512  4.810033191E+00 -1.145731292E+01  4.892268777E+01  5.047609154E+01  0.000000000E+00  0.00000E+00  9.000E+00
#rwgt            1           1   7.8059639457419047E-002           1      248529           0
</event>
<event>
      5   9999  3.79277E-02  1.77690E+02 -1.00000E+00  1.13551E-01
      21    -1     0     0   502   501  0.000000000E+00  0.000000000E+00  1.565466074E+03  1.565466074E+03  0.000000000E+00  0.00000E+00  9.000E+00
      21    -1     0     0   511   502  0.000000000E+00  0.000000000E+00 -8.288548031E+01  8.288548031E+01  0.000000000E+00  0.00000E+00  9.000E+00
      25     1     1     2     0     0 -5.287844612E+01  3.593474206E+01  3.735869466E+02  3.990985373E+02  1.250000000E+02  0.00000E+00  9.000E+00
      25     1     1     2     0     0  5.770575779E+00 -2.072664420E+02  1.024090770E+03  1.052321045E+03  1.250000000E+02  0.00000E+00  9.000E+00
      21     1     1     2   511   501  4.710787034E+01  1.713316999E+02  8.490287685E+01  1.969319714E+02  2.861022949E-06  0.00000E+00  9.000E+00
#rwgt            1           1   5.7204882281293910E-002           1      248820           0
</event>
<event>
      5   9999  3.79277E-02  3.59423E+01 -1.00000E+00  1.47781E-01
      21    -1     0     0   502   501  0.000000000E+00  0.000000000E+00  7.075395362E+02  7.075395362E+02  0.000000000E+00  0.00000E+00  9.000E+00
      21    -1     0     0   501   512  0.000000000E+00  0.000000000E+00 -1.057746771E+02  1.057746771E+02  0.000000000E+00  0.00000E+00  9.000E+00
      25     1     1     2     0     0 -4.138183337E+01 -1.618317207E+02  5.497101330E+01  2.157516495E+02  1.250000000E+02  0.00000E+00  9.000E+00
      25     1     1     2     0     0  1.769988557E+01  1.347944911E+02  5.225035405E+02  5.541820915E+02  1.250000000E+02  0.00000E+00  9.000E+00
      21     1     1     2   502   512  2.368194780E+01  2.703722960E+01  2.429030537E+01  4.338047223E+01  4.768371582E-07  0.00000E+00  9.000E+00
#rwgt            1           1   3.8750746614791463E-002           1      248902           0
</event>
<event>
      5   9999  3.79277E-02  3.17343E+01 -1.00000E+00  1.51364E-01
      21    -1     0     0   511   501  0.000000000E+00  0.000000000E+00  2.266934412E+02  2.266934412E+02  0.000000000E+00  0.00000E+00  9.000E+00
      21    -1     0     0   501   502  0.000000000E+00  0.000000000E+00 -3.116766994E+02  3.116766994E+02  0.000000000E+00  0.00000E+00  9.000E+00
      25     1     1     2     0     0  1.469168558E+02 -5.914782199E+01  5.159423664E+01  2.082546341E+02  1.250000000E+02  0.00000E+00  9.000E+00
      25     1     1     2     0     0 -1.743979384E+02  7.501775300E+01 -1.701384451E+02  2.839267417E+02  1.250000000E+02  0.00000E+00  9.000E+00
      21     1     1     2   511   502  2.748108257E+01 -1.586993100E+01  3.356095028E+01  4.618876479E+01  8.259061849E-07  0.00000E+00  9.000E+00
#rwgt            1           1   1.9775582034542032E-002           1      249057           0
</event>
<event>
      5   9999  3.79277E-02  1.51219E+02 -1.00000E+00  1.16254E-01
      21    -1     0     0   502   501  0.000000000E+00  0.000000000E+00  7.108851018E+02  7.108851018E+02  0.000000000E+00  0.00000E+00  9.000E+00
       4    -1     0     0   501     0  0.000000000E+00  0.000000000E+00 -2.801895575E+02  2.801895575E+02  0.000000000E+00  0.00000E+00  9.000E+00
      25     1     1     2     0     0 -8.540333787E+01  5.283390461E+01  3.799545758E+02  4.124022688E+02  1.250000000E+02  0.00000E+00  9.000E+00
      25     1     1     2     0     0  2.122184844E+02 -1.352065000E+02  2.161999436E+02  3.545206600E+02  1.250000000E+02  0.00000E+00  9.000E+00
       4     1     1     2   502     0 -1.268151465E+02  8.237259543E+01 -1.654589751E+02  2.241517305E+02  3.814697266E-06  0.00000E+00  9.000E+00
#rwgt            1           1   3.3432101106852137E-002           1      249178           0
</event>
<event>
      5   9999  3.79277E-02  1.12056E+01 -1.00000E+00  1.90211E-01
      21    -1     0     0   502   511  0.000000000E+00  0.000000000E+00  2.081876153E+02  2.081876153E+02  0.000000000E+00  0.00000E+00  9.000E+00
      21    -1     0     0   501   502  0.000000000E+00  0.000000000E+00 -3.142804877E+02  3.142804877E+02  0.000000000E+00  0.00000E+00  9.000E+00
      25     1     1     2     0     0  5.769202047E+01 -4.088865033E+01  4.637685417E+01  1.509174064E+02  1.250000000E+02  0.00000E+00  9.000E+00
      25     1     1     2     0     0 -6.859512783E+01  3.830239151E+01 -2.408300322E+02  2.824826883E+02  1.250000000E+02  0.00000E+00  9.000E+00
      21     1     1     2   501   511  1.090310736E+01  2.586258823E+00  8.836030568E+01  8.906800831E+01  9.536743164E-07  0.00000E+00  9.000E+00
#rwgt            1           1   3.4363918780850641E-002           1      249270           0
</event>
<event>
      5   9999  3.79277E-02  1.93770E+02 -1.00000E+00  1.12151E-01
      21    -1     0     0   502   501  0.000000000E+00  0.000000000E+00  4.996896263E+02  4.996896263E+02  0.000000000E+00  0.00000E+00  9.000E+00
      21    -1     0     0   512   502  0.000000000E+00  0.000000000E+00 -4.641300613E+02  4.641300613E+02  0.000000000E+00  0.00000E+00  9.000E+00
      25     1     1     2     0     0 -1.377368919E+02  2.844729750E+02  2.658485534E+01  3.409223950E+02  1.250000000E+02  0.00000E+00  9.000E+00
      25     1     1     2     0     0 -5.492503894E+01 -3.051669124E+02  1.662123944E+02  3.733566182E+02  1.250000000E+02  0.00000E+00  9.000E+00
      21     1     1     2   512   501  1.926619308E+02  2.069393738E+01 -1.572376848E+02  2.495406743E+02  4.672030912E-06  0.00000E+00  9.000E+00
#rwgt            1           1   3.5642777976064854E-002           1      249524           0
</event>
<event>
      5   9999  3.79277E-02  2.04919E+01 -1.00000E+00  1.65503E-01
      21    -1     0     0   502   501  0.000000000E+00  0.000000000E+00  2.671167949E+01  2.671167949E+01  0.000000000E+00  0.00000E+00  9.000E+00
      21    -1     0     0   511   502  0.000000000E+00  0.000000000E+00 -2.500363282E+03  2.500363282E+03  0.000000000E+00  0.00000E+00  9.000E+00
      25     1     1     2     0     0 -4.105325281E+01  1.199498577E+02 -3.376519863E+02  3.817161272E+02  1.250000000E+02  0.00000E+00  9.000E+00
      25     1     1     2     0     0  5.858698026E+01 -1.093439411E+02 -1.756436092E+03  1.765242555E+03  1.250000000E+02  0.00000E+00  9.000E+00
      21     1     1     2   511   501 -1.753372745E+01 -1.060591662E+01 -3.795635241E+02  3.801162795E+02  5.394796609E-06  0.00000E+00  9.000E+00
#rwgt            2          11   1.1323104941354492E-003           1      249647           0
</event>
<event>
      5   9999  3.79277E-02  2.14647E+01 -1.00000E+00  1.63876E-01
      21    -1     0     0   502   501  0.000000000E+00  0.000000000E+00  1.437932604E+03  1.437932604E+03  0.000000000E+00  0.00000E+00  9.000E+00
      21    -1     0     0   512   502  0.000000000E+00  0.000000000E+00 -3.056862884E+01  3.056862884E+01  0.000000000E+00  0.00000E+00  9.000E+00
      25     1     1     2     0     0  1.167693349E+02 -2.479668975E+01  4.038943398E+02  4.393240161E+02  1.250000000E+02  0.00000E+00  9.000E+00
      25     1     1     2     0     0 -1.242585905E+02  4.680888683E+00  9.856035877E+02  1.001249989E+03  1.250000000E+02  0.00000E+00  9.000E+00
      21     1     1     2   512   501  7.489255596E+00  2.011580106E+01  1.786604771E+01  2.792722798E+01  7.152557373E-07  0.00000E+00  9.000E+00
#rwgt            1           1   5.8094309272676982E-002           1      249682           0
</event>
<event>
      5   9999  3.79277E-02  7.23008E+01 -1.00000E+00  1.30513E-01
      21    -1     0     0   502   501  0.000000000E+00  0.000000000E+00  5.200114573E+02  5.200114573E+02  0.000000000E+00  0.00000E+00  9.000E+00
      21    -1     0     0   501   511  0.000000000E+00  0.000000000E+00 -5.682387427E+02  5.682387427E+02  0.000000000E+00  0.00000E+00  9.000E+00
      25     1     1     2     0     0  1.851026296E+02  2.407046769E+01  9.518493550E+01  2.439826691E+02  1.250000000E+02  0.00000E+00  9.000E+00
      25     1     1     2     0     0 -1.257883911E+02 -6.541323475E+01  3.219435839E+02  3.733286512E+02  1.250000000E+02  0.00000E+00  9.000E+00
      21     1     1     2   502   511 -5.931423848E+01  4.134276706E+01 -4.653558048E+02  4.709388796E+02  5.394796609E-06  0.00000E+00  9.000E+00
#rwgt            1           1   4.1194163954651190E-002           1      249827           0
</event>
<event>
      5   9999  3.79277E-02  9.62263E+01 -1.00000E+00  1.24584E-01
      21    -1     0     0   502   501  0.000000000E+00  0.000000000E+00  1.703750869E+02  1.703750869E+02  0.000000000E+00  0.00000E+00  9.000E+00
      21    -1     0     0   501   512  0.000000000E+00  0.000000000E+00 -4.844464413E+02  4.844464413E+02  0.000000000E+00  0.00000E+00  9.000E+00
      25     1     1     2     0     0 -5.294404236E+01  7.922234471E+01  8.044073797E+01  1.765643335E+02  1.250000000E+02  0.00000E+00  9.000E+00
      25     1     1     2     0     0  1.133697705E+02 -4.334188679E+00 -2.037152908E+02  2.645683461E+02  1.250000000E+02  0.00000E+00  9.000E+00
      21     1     1     2   502   512 -6.042572816E+01 -7.488815603E+01 -1.907968016E+02  2.136888486E+02  2.697398305E-06  0.00000E+00  9.000E+00
#rwgt            2          11   1.7603175213363248E-003           1      250076           0
</event>
<event>
      5   9999  3.79277E-02  1.54992E+01 -1.00000E+00  1.76054E-01
      21    -1     0     0   511   501  0.000000000E+00  0.000000000E+00  1.457007250E+02  1.457007250E+02  0.000000000E+00  0.00000E+00  9.000E+00
      21    -1     0     0   501   502  0.000000000E+00  0.000000000E+00 -3.327717234E+02  3.327717234E+02  0.000000000E+00  0.00000E+00  9.000E+00
      25     1     1     2     0     0 -9.786339089E+01 -1.575737036E+01 -2.323971100E+02  2.818846479E+02  1.250000000E+02  0.00000E+00  9.000E+00
      25     1     1     2     0     0  8.713677898E+01  4.569598385E+00  4.048476159E+00  1.524961955E+02  1.250000000E+02  0.00000E+00  9.000E+00
      21     1     1     2   511   502  1.072661191E+01  1.118777197E+01  4.127763545E+01  4.409160501E+01  4.768371582E-07  0.00000E+00  9.000E+00
#rwgt            1           1   4.9856655318541464E-002           1      250216           0
</event>
<event>
      5   9999  3.79277E-02  7.44675E+01 -1.00000E+00  1.29874E-01
      21    -1     0     0   502   501  0.000000000E+00  0.000000000E+00  1.340329203E+02  1.340329203E+02  0.000000000E+00  0.00000E+00  9.000E+00
      21    -1     0     0   512   502  0.000000000E+00  0.000000000E+00 -7.741525393E+02  7.741525393E+02  0.000000000E+00  0.00000E+00  9.000E+00
      25     1     1     2     0     0  8.949658670E+01 -2.694262059E+02 -3.677213109E+02  4.810863560E+02  1.250000000E+02  0.00000E+00  9.000E+00
      25     1     1     2     0     0 -6.789701980E+01  1.981600634E+02 -1.581102302E+02  2.906910059E+02  1.250000000E+02  0.00000E+00  9.000E+00
      21     1     1     2   512   501 -2.159956690E+01  7.126614249E+01 -1.142880780E+02  1.364080977E+02  1.907348633E-06  0.00000E+00  9.000E+00
#rwgt            1           1   4.0868823361018977E-002           1      250362           0
</event>
<event>
      5   9999  3.79277E-02  1.45123E+02 -1.00000E+00  1.16965E-01
      21    -1     0     0   502   501  0.000000000E+00  0.000000000E+00  1.087998340E+02  1.087998340E+02  0.000000000E+00  0.00000E+00  9.000E+00
       2    -1     0     0   501     0  0.000000000E+00  0.000000000E+00 -3.365895813E+03  3.365895813E+03  0.000000000E+00  0.00000E+00  9.000E+00
      25     1     1     2     0     0 -7.379731480E+01 -1.858837599E+01  4.525614463E+01  1.531818854E+02  1.250000000E+02  0.00000E+00  9.000E+00
      25     1     1     2     0     0 -6.676966035E+01  5.466686584E+01 -7.603981331E+02  7.754205147E+02  1.250000000E+02  0.00000E+00  9.000E+00
       2     1     1     2   502     0  1.405669752E+02 -3.607848985E+01 -2.541953991E+03  2.546093247E+03  4.315837288E-05  0.00000E+00  9.000E+00
#rwgt            1           1   3.7879613536257045E-002           1      250491           0
</event>
<event>
      5   9999  3.79277E-02  4.03106E+01 -1.00000E+00  1.44632E-01
      21    -1     0     0   502   501  0.000000000E+00  0.000000000E+00  1.634732629E+02  1.634732629E+02  0.000000000E+00  0.00000E+00  9.000E+00
       1    -1     0     0   501     0  0.000000000E+00  0.000000000E+00 -6.267575603E+02  6.267575603E+02  0.000000000E+00  0.00000E+00  9.000E+00
      25     1     1     2     0     0 -1.659555924E+02 -1.854617630E+01 -1.607921233E+01  2.092098477E+02  1.250000000E+02  0.00000E+00  9.000E+00
      25     1     1     2     0     0  1.616857385E+02  5.862996097E+01 -1.062372501E+02  2.376785721E+02  1.250000000E+02  0.00000E+00  9.000E+00
       1     1     1     2   502     0  4.269853957E+00 -4.008378467E+01 -3.409678350E+02  3.433424033E+02  5.394796609E-06  0.00000E+00  9.000E+00
#rwgt            1           1   4.0811412275663837E-002           1      250577           0
</event>
<event>
      5   9999 -3.79277E-02  1.46864E+02 -1.00000E+00  1.16758E-01
      21    -1     0     0   502   501  0.000000000E+00  0.000000000E+00  1.238404705E+03  1.238404705E+03  0.000000000E+00  0.00000E+00  9.000E+00
      21    -1     0     0   501   511  0.000000000E+00  0.000000000E+00 -1.736011114E+02  1.736011114E+02  0.000000000E+00  0.00000E+00  9.000E+00
      25     1     1     2     0     0 -3.011134177E+01 -2.184943449E+02  4.419872815E+02  5.095333440E+02  1.250000000E+02  0.00000E+00  9.000E+00
      25     1     1     2     0     0 -3.810417365E+01  8.843426729E+01  7.129190043E+02  7.301719348E+02  1.250000000E+02  0.00000E+00  9.000E+00
      21     1     1     2   502   511  6.821551542E+01  1.300600776E+02 -9.010269176E+01  1.723005380E+02  3.568322551E-06  0.00000E+00  9.000E+00
#rwgt            1           1  -9.3233580046291856E-002           1      250742           0
</event>
<event>
      5   9999  3.79277E-02  5.05940E+01 -1.00000E+00  1.38784E-01
      21    -1     0     0   502   512  0.000000000E+00  0.000000000E+00  8.307040545E+02  8.307040545E+02  0.000000000E+00  0.00000E+00  9.000E+00
      21    -1     0     0   501   502  0.000000000E+00  0.000000000E+00 -6.680768047E+02  6.680768047E+02  0.000000000E+00  0.00000E+00  9.000E+00
      25     1     1     2     0     0 -6.546413017E+02  1.576478912E+02  1.338014562E+02  6.978079400E+02  1.250000000E+02  0.00000E+00  9.000E+00
      25     1     1     2     0     0  6.501086843E+02 -2.080384419E+02 -6.231835587E+01  6.967279758E+02  1.250000000E+02  0.00000E+00  9.000E+00
      21     1     1     2   501   512  4.532617369E+00  5.039055070E+01  9.114414958E+01  1.042449434E+02  1.907348633E-06  0.00000E+00  9.000E+00
#rwgt            1           1   1.8517374989775699E-002           1      250812           0
</event>
<event>
      5   9999  3.79277E-02  4.41534E+01 -1.00000E+00  1.42229E-01
      21    -1     0     0   502   501  0.000000000E+00  0.000000000E+00  2.806063847E+02  2.806063847E+02  0.000000000E+00  0.00000E+00  9.000E+00
      21    -1     0     0   511   502  0.000000000E+00  0.000000000E+00 -4.149204554E+02  4.149204554E+02  0.000000000E+00  0.00000E+00  9.000E+00
      25     1     1     2     0     0 -1.103526587E+02 -2.400337199E+02 -1.659690459E+01  2.927359787E+02  1.250000000E+02  0.00000E+00  9.000E+00
      25     1     1     2     0     0  6.646763518E+01  2.448946483E+02 -6.297681272E+00  2.829416832E+02  1.250000000E+02  0.00000E+00  9.000E+00
      21     1     1     2   511   501  4.388502351E+01 -4.860928384E+00 -1.114194849E+02  1.198491782E+02  1.348699152E-06  0.00000E+00  9.000E+00
#rwgt            1           1   7.7018950823354720E-002           1      250973           0
</event>
<event>
      5   9999  3.79277E-02  5.31402E+01 -1.00000E+00  1.37583E-01
      21    -1     0     0   502   512  0.000000000E+00  0.000000000E+00  1.260944401E+02  1.260944401E+02  0.000000000E+00  0.00000E+00  9.000E+00
      21    -1     0     0   501   502  0.000000000E+00  0.000000000E+00 -9.987548255E+02  9.987548255E+02  0.000000000E+00  0.00000E+00  9.000E+00
      25     1     1     2     0     0  1.567099987E+02 -8.663659911E+01 -5.700669069E+02  6.104631048E+02  1.250000000E+02  0.00000E+00  9.000E+00
      25     1     1     2     0     0 -2.073173278E+02  1.028470207E+02 -3.536190532E+02  4.407146684E+02  1.250000000E+02  0.00000E+00  9.000E+00
      21     1     1     2   501   512  5.060732916E+01 -1.621042162E+01  5.102557471E+01  7.367149251E+01  1.348699152E-06  0.00000E+00  9.000E+00
#rwgt            1           1   4.0748475305828223E-002           1      251110           0
</event>
<event>
      5   9999  3.79277E-02  2.94194E+01 -1.00000E+00  1.53632E-01
      21    -1     0     0   502   501  0.000000000E+00  0.000000000E+00  1.004569745E+02  1.004569745E+02  0.000000000E+00  0.00000E+00  9.000E+00
      21    -1     0     0   511   502  0.000000000E+00  0.000000000E+00 -3.376704634E+02  3.376704634E+02  0.000000000E+00  0.00000E+00  9.000E+00
      25     1     1     2     0     0 -6.969129968E+01  5.531502646E+01 -4.574155881E+01  1.601059637E+02  1.250000000E+02  0.00000E+00  9.000E+00
      25     1     1     2     0     0  8.972327975E+01 -7.686079207E+01 -1.594338940E+02  2.345250836E+02  1.250000000E+02  0.00000E+00  9.000E+00
      21     1     1     2   511   501 -2.003198007E+01  2.154576561E+01 -3.203803612E+01  4.349639065E+01  6.743495762E-07  0.00000E+00  9.000E+00
#rwgt            1           1   2.0551460043561190E-002           1      251291           0
</event>
<event>
      5   9999  3.79277E-02  2.02983E+01 -1.00000E+00  1.65840E-01
      21    -1     0     0   512   501  0.000000000E+00  0.000000000E+00  8.072228863E+01  8.072228863E+01  0.000000000E+00  0.00000E+00  9.000E+00
      21    -1     0     0   501   502  0.000000000E+00  0.000000000E+00 -9.737439865E+02  9.737439865E+02  0.000000000E+00  0.00000E+00  9.000E+00
      25     1     1     2     0     0  3.474243218E+01 -1.283448273E+02 -1.029332153E+02  2.095225002E+02  1.250000000E+02  0.00000E+00  9.000E+00
      25     1     1     2     0     0 -3.494003618E+01  1.486421516E+02 -7.988305780E+02  8.228429910E+02  1.250000000E+02  0.00000E+00  9.000E+00
      21     1     1     2   512   502  1.976039978E-01 -2.029732432E+01  8.742095408E+00  2.210078401E+01  1.192092896E-07  0.00000E+00  9.000E+00
#rwgt            1           1   3.1512244709811572E-002           1      251503           0
</event>
<event>
      5   9999 -3.79277E-02  3.72018E+01 -1.00000E+00  1.46821E-01
      21    -1     0     0   502   511  0.000000000E+00  0.000000000E+00  4.756208840E+02  4.756208840E+02  0.000000000E+00  0.00000E+00  9.000E+00
      21    -1     0     0   501   502  0.000000000E+00  0.000000000E+00 -2.290681260E+02  2.290681260E+02  0.000000000E+00  0.00000E+00  9.000E+00
      25     1     1     2     0     0  1.292915769E+02  2.074568374E+02  1.628301036E+02  3.192072898E+02  1.250000000E+02  0.00000E+00  9.000E+00
      25     1     1     2     0     0 -1.658332059E+02 -2.144343216E+02  5.157396884E+00  2.985537292E+02  1.250000000E+02  0.00000E+00  9.000E+00
      21     1     1     2   501   511  3.654162894E+01  6.977484262E+00  7.856525747E+01  8.692799096E+01  1.348699152E-06  0.00000E+00  9.000E+00
#rwgt            1           1 -0.15386102993711631                1      251659           0
</event>
<event>
      5   9999  3.79277E-02  1.01416E+02 -1.00000E+00  1.23554E-01
      21    -1     0     0   512   501  0.000000000E+00  0.000000000E+00  1.260856424E+03  1.260856424E+03  0.000000000E+00  0.00000E+00  9.000E+00
      21    -1     0     0   501   502  0.000000000E+00  0.000000000E+00 -7.259129452E+01  7.259129452E+01  0.000000000E+00  0.00000E+00  9.000E+00
      25     1     1     2     0     0  2.106982596E+02  2.312394710E+01  2.763790267E+02  3.700524827E+02  1.250000000E+02  0.00000E+00  9.000E+00
      25     1     1     2     0     0 -1.382201222E+02 -9.406082156E+01  6.418282825E+02  6.749227990E+02  1.250000000E+02  0.00000E+00  9.000E+00
      21     1     1     2   512   502 -7.247813747E+01  7.093687446E+01  2.700578207E+02  2.884724373E+02  3.814697266E-06  0.00000E+00  9.000E+00
#rwgt            2          11   2.5288377402687256E-003           1      251844           0
</event>
<event>
      5   9999  3.79277E-02  5.64985E+01 -1.00000E+00  1.36114E-01
      21    -1     0     0   502   501  0.000000000E+00  0.000000000E+00  3.770063936E+02  3.770063936E+02  0.000000000E+00  0.00000E+00  9.000E+00
      21    -1     0     0   511   502  0.000000000E+00  0.000000000E+00 -2.461227192E+02  2.461227192E+02  0.000000000E+00  0.00000E+00  9.000E+00
      25     1     1     2     0     0 -3.893028787E+00 -1.484979702E+02  1.142900120E+02  2.252865058E+02  1.250000000E+02  0.00000E+00  9.000E+00
      25     1     1     2     0     0 -5.204020434E+01  1.405256312E+02  1.544432373E+02  2.488641184E+02  1.250000000E+02  0.00000E+00  9.000E+00
      21     1     1     2   511   501  5.593323313E+01  7.972339029E+00 -1.378495749E+02  1.489784886E+02  0.000000000E+00  0.00000E+00  9.000E+00
#rwgt            1           1   3.5263604590647493E-002           1      251879           0
</event>
<event>
      5   9999  3.79277E-02  1.46074E+02 -1.00000E+00  1.16852E-01
       2    -1     0     0   502     0  0.000000000E+00  0.000000000E+00  9.285225547E+02  9.285225547E+02  0.000000000E+00  0.00000E+00  9.000E+00
      21    -1     0     0   501   502  0.000000000E+00  0.000000000E+00 -1.374958354E+02  1.374958354E+02  0.000000000E+00  0.00000E+00  9.000E+00
      25     1     1     2     0     0  4.245255456E+01 -1.733668179E+02  4.021843642E+02  4.574227101E+02  1.250000000E+02  0.00000E+00  9.000E+00
      25     1     1     2     0     0 -1.720642111E+01  2.949106293E+01 -5.542125539E+01  1.409336698E+02  1.250000000E+02  0.00000E+00  9.000E+00
       2     1     1     2   501     0 -2.524613346E+01  1.438757550E+02  4.442636105E+02  4.676620102E+02  5.394796609E-06  0.00000E+00  9.000E+00
#rwgt            1           1   4.5469673499883817E-002           1      252022           0
</event>
<event>
      5   9999  3.79277E-02  3.46126E+01 -1.00000E+00  1.48847E-01
      21    -1     0     0   502   501  0.000000000E+00  0.000000000E+00  6.297601613E+02  6.297601613E+02  0.000000000E+00  0.00000E+00  9.000E+00
      21    -1     0     0   511   502  0.000000000E+00  0.000000000E+00 -1.262824250E+02  1.262824250E+02  0.000000000E+00  0.00000E+00  9.000E+00
      25     1     1     2     0     0 -3.409741263E+01  2.366864818E+01  5.504945585E+02  5.660318872E+02  1.250000000E+02  0.00000E+00  9.000E+00
      25     1     1     2     0     0  6.738391273E+01 -3.315749496E+01 -2.239692742E+01  1.475351942E+02  1.250000000E+02  0.00000E+00  9.000E+00
      21     1     1     2   511   501 -3.328650011E+01  9.488846786E+00 -2.461989472E+01  4.247550493E+01  6.743495762E-07  0.00000E+00  9.000E+00
#rwgt            1           1   4.0174318146792301E-002           1      252181           0
</event>
<event>
      5   9999  3.79277E-02  1.20147E+01 -1.00000E+00  1.86972E-01
      21    -1     0     0   502   512  0.000000000E+00  0.000000000E+00  4.465401791E+02  4.465401791E+02  0.000000000E+00  0.00000E+00  9.000E+00
      21    -1     0     0   501   502  0.000000000E+00  0.000000000E+00 -2.712598318E+02  2.712598318E+02  0.000000000E+00  0.00000E+00  9.000E+00
      25     1     1     2     0     0 -2.257008571E+02  1.298763719E+02  2.171620847E+02  3.613767008E+02  1.250000000E+02  0.00000E+00  9.000E+00
      25     1     1     2     0     0  2.183369847E+02 -1.393699032E+02 -9.427680366E+01  3.026683408E+02  1.250000000E+02  0.00000E+00  9.000E+00
      21     1     1     2   501   512  7.363872437E+00  9.493531305E+00  5.239506634E+01  5.375496936E+01  1.168007728E-06  0.00000E+00  9.000E+00
#rwgt            1           1   3.8992867288294139E-002           1      252295           0
</event>
<event>
      5   9999  3.79277E-02  4.51916E+01 -1.00000E+00  1.41628E-01
      21    -1     0     0   502   501  0.000000000E+00  0.000000000E+00  3.036397703E+02  3.036397703E+02  0.000000000E+00  0.00000E+00  9.000E+00
      21    -1     0     0   501   511  0.000000000E+00  0.000000000E+00 -2.272280181E+02  2.272280181E+02  0.000000000E+00  0.00000E+00  9.000E+00
      25     1     1     2     0     0 -1.531622473E+01  1.209075865E+02  2.054940828E+02  2.696405928E+02  1.250000000E+02  0.00000E+00  9.000E+00
      25     1     1     2     0     0  1.915000935E+01 -7.587890457E+01 -2.746244381E+01  1.500117223E+02  1.250000000E+02  0.00000E+00  9.000E+00
      21     1     1     2   502   511 -3.833784615E+00 -4.502868195E+01 -1.016198868E+02  1.112154733E+02  1.907348633E-06  0.00000E+00  9.000E+00
#rwgt            1           1   3.9014252886437041E-002           1      252505           0
</event>
<event>
      5   9999  3.79277E-02  5.38919E+01 -1.00000E+00  1.37243E-01
      21    -1     0     0   502   501  0.000000000E+00  0.000000000E+00  7.366427381E+01  7.366427381E+01  0.000000000E+00  0.00000E+00  9.000E+00
      -2    -1     0     0     0   502  0.000000000E+00  0.000000000E+00 -1.215040014E+03  1.215040014E+03  0.000000000E+00  0.00000E+00  9.000E+00
      25     1     1     2     0     0  8.871165792E+01  1.252489764E+02 -2.989084646E+02  3.585084860E+02  1.250000000E+02  0.00000E+00  9.000E+00
      25     1     1     2     0     0 -7.342672672E+01 -7.357005980E+01 -1.112410248E+02  1.969863028E+02  1.250000000E+02  0.00000E+00  9.000E+00
      -2     1     1     2     0   501 -1.528493120E+01 -5.167891655E+01 -7.312262506E+02  7.332094988E+02  1.078959322E-05  0.00000E+00  9.000E+00
#rwgt            1           1   3.9312524039118779E-002           1      252595           0
</event>
<event>
      5   9999  3.79277E-02  4.07428E+01 -1.00000E+00  1.44346E-01
      21    -1     0     0   511   501  0.000000000E+00  0.000000000E+00  2.785013039E+02  2.785013039E+02  0.000000000E+00  0.00000E+00  9.000E+00
      21    -1     0     0   501   502  0.000000000E+00  0.000000000E+00 -2.583124286E+02  2.583124286E+02  0.000000000E+00  0.00000E+00  9.000E+00
      25     1     1     2     0     0 -2.454998031E+01  7.904859550E+01 -1.685883608E+02  2.256067760E+02  1.250000000E+02  0.00000E+00  9.000E+00
      25     1     1     2     0     0  1.112099316E+01 -1.175146559E+02  6.998845076E+01  1.856253056E+02  1.250000000E+02  0.00000E+00  9.000E+00
      21     1     1     2   511   502  1.342898715E+01  3.846606045E+01  1.187887853E+02  1.255816508E+02  1.907348633E-06  0.00000E+00  9.000E+00
#rwgt            1           1   3.7401694420866362E-002           1      252781           0
</event>
<event>
      5   9999  3.79277E-02  1.99876E+01 -1.00000E+00  1.66391E-01
      21    -1     0     0   512   501  0.000000000E+00  0.000000000E+00  6.688978126E+02  6.688978126E+02  0.000000000E+00  0.00000E+00  9.000E+00
      21    -1     0     0   501   502  0.000000000E+00  0.000000000E+00 -1.654131896E+02  1.654131896E+02  0.000000000E+00  0.00000E+00  9.000E+00
      25     1     1     2     0     0 -1.422258265E+02 -1.181847568E+01 -4.586612241E+01  1.951834093E+02  1.250000000E+02  0.00000E+00  9.000E+00
      25     1     1     2     0     0  1.388151233E+02  3.151287853E+01  1.563746002E+02  2.456434724E+02  1.250000000E+02  0.00000E+00  9.000E+00
      21     1     1     2   512   502  3.410703205E+00 -1.969440286E+01  3.929761452E+02  3.934841205E+02  5.394796609E-06  0.00000E+00  9.000E+00
#rwgt            1           1   3.3131440070346123E-002           1      252988           0
</event>
<event>
      5   9999  3.79277E-02  1.28665E+01 -1.00000E+00  1.83900E-01
      21    -1     0     0   502   501  0.000000000E+00  0.000000000E+00  3.837199348E+02  3.837199348E+02  0.000000000E+00  0.00000E+00  9.000E+00
      21    -1     0     0   501   511  0.000000000E+00  0.000000000E+00 -1.281216709E+02  1.281216709E+02  0.000000000E+00  0.00000E+00  9.000E+00
      25     1     1     2     0     0 -1.491148226E+02 -6.513006030E+01  1.719471447E+02  2.677087516E+02  1.250000000E+02  0.00000E+00  9.000E+00
      25     1     1     2     0     0  1.591747478E+02  7.315159156E+01  8.459037685E+01  2.312321075E+02  1.250000000E+02  0.00000E+00  9.000E+00
      21     1     1     2   502   511 -1.005992520E+01 -8.021531260E+00 -9.392576616E-01  1.290074664E+01  1.852184965E-07  0.00000E+00  9.000E+00
#rwgt            1           1   6.5659047268426973E-002           1      253199           0
</event>
<event>
      5   9999  3.79277E-02  1.60259E+01 -1.00000E+00  1.74719E-01
      21    -1     0     0   502   501  0.000000000E+00  0.000000000E+00  2.651688771E+02  2.651688771E+02  0.000000000E+00  0.00000E+00  9.000E+00
      21    -1     0     0   501   512  0.000000000E+00  0.000000000E+00 -2.841161850E+02  2.841161850E+02  0.000000000E+00  0.00000E+00  9.000E+00
      25     1     1     2     0     0  2.659118484E+01 -2.067206175E+02  6.313770748E+00  2.431159569E+02  1.250000000E+02  0.00000E+00  9.000E+00
      25     1     1     2     0     0 -1.056645163E+01  2.069174576E+02  3.438731990E+01  2.444053435E+02  1.250000000E+02  0.00000E+00  9.000E+00
      21     1     1     2   502   512 -1.602473321E+01 -1.968400786E-01 -5.964839849E+01  6.176376173E+01  0.000000000E+00  0.00000E+00  9.000E+00
#rwgt            1           1   4.0430145309567206E-002           1      253450           0
</event>
<event>
      5   9999  3.79277E-02  1.47096E+01 -1.00000E+00  1.78187E-01
      21    -1     0     0   511   501  0.000000000E+00  0.000000000E+00  2.072722890E+02  2.072722890E+02  0.000000000E+00  0.00000E+00  9.000E+00
      21    -1     0     0   501   502  0.000000000E+00  0.000000000E+00 -7.276881073E+02  7.276881073E+02  0.000000000E+00  0.00000E+00  9.000E+00
      25     1     1     2     0     0 -1.448181139E+02 -2.708935833E+02 -1.829247295E+02  3.787374767E+02  1.250000000E+02  0.00000E+00  9.000E+00
      25     1     1     2     0     0  1.548368367E+02  2.816637856E+02 -3.788597302E+02  5.123169227E+02  1.250000000E+02  0.00000E+00  9.000E+00
      21     1     1     2   511   502 -1.001872286E+01 -1.077020226E+01  4.136864147E+01  4.390599687E+01  6.743495762E-07  0.00000E+00  9.000E+00
#rwgt            1           1   4.3150048519478824E-002           1      253624           0
</event>
<event>
      5   9999  3.79277E-02  2.50515E+01 -1.00000E+00  1.58684E-01
      21    -1     0     0   512   501  0.000000000E+00  0.000000000E+00  8.663683855E+01  8.663683855E+01  0.000000000E+00  0.00000E+00  9.000E+00
      21    -1     0     0   501   502  0.000000000E+00  0.000000000E+00 -1.506869491E+03  1.506869491E+03  0.000000000E+00  0.00000E+00  9.000E+00
      25     1     1     2     0     0  3.015451143E+02 -1.046434386E+02 -9.149647462E+02  9.770696966E+02  1.250000000E+02  0.00000E+00  9.000E+00
      25     1     1     2     0     0 -2.794337780E+02  1.164190077E+02 -4.776817324E+02  5.791730822E+02  1.250000000E+02  0.00000E+00  9.000E+00
      21     1     1     2   512   502 -2.211133632E+01 -1.177556910E+01 -2.758617331E+01  3.726355028E+01  8.259061849E-07  0.00000E+00  9.000E+00
#rwgt            1           1   2.6077617587752986E-002           1      253894           0
</event>
<event>
      5   9999  3.79277E-02  2.76367E+02 -1.00000E+00  1.06763E-01
      21    -1     0     0   502   511  0.000000000E+00  0.000000000E+00  3.770723418E+02  3.770723418E+02  0.000000000E+00  0.00000E+00  9.000E+00
      21    -1     0     0   501   502  0.000000000E+00  0.000000000E+00 -3.892494133E+02  3.892494133E+02  0.000000000E+00  0.00000E+00  9.000E+00
      25     1     1     2     0     0 -1.786377439E+02 -8.238100883E+00  8.283344458E+01  2.333788538E+02  1.250000000E+02  0.00000E+00  9.000E+00
      25     1     1     2     0     0 -6.370771756E+00 -1.970677662E+02 -1.059222181E+02  2.563606980E+02  1.250000000E+02  0.00000E+00  9.000E+00
      21     1     1     2   501   511  1.850085157E+02  2.053058670E+02  1.091170208E+01  2.765822033E+02  2.317693483E-06  0.00000E+00  9.000E+00
#rwgt            2          11   1.2882157324721232E-003           1      254433           0
</event>
<event>
      5   9999  3.79277E-02  4.36876E+01 -1.00000E+00  1.42504E-01
      21    -1     0     0   502   501  0.000000000E+00  0.000000000E+00  2.025986512E+02  2.025986512E+02  0.000000000E+00  0.00000E+00  9.000E+00
      21    -1     0     0   512   502  0.000000000E+00  0.000000000E+00 -3.807187177E+02  3.807187177E+02  0.000000000E+00  0.00000E+00  9.000E+00
      25     1     1     2     0     0  2.064004675E+02  4.541855945E+01 -1.799824928E+01  2.461969445E+02  1.250000000E+02  0.00000E+00  9.000E+00
      25     1     1     2     0     0 -2.010137581E+02 -8.877275593E+01 -1.324077537E+02  2.853838579E+02  1.250000000E+02  0.00000E+00  9.000E+00
      21     1     1     2   512   501 -5.386709437E+00  4.335419648E+01 -2.771406347E+01  5.173656642E+01  1.118282261E-06  0.00000E+00  9.000E+00
#rwgt            1           1   3.2983705104163687E-002           1      254468           0
</event>
<event>
      5   9999  3.79277E-02  9.91745E+01 -1.00000E+00  1.23990E-01
       2    -1     0     0   502     0  0.000000000E+00  0.000000000E+00  1.040298894E+03  1.040298894E+03  0.000000000E+00  0.00000E+00  9.000E+00
      21    -1     0     0   501   502  0.000000000E+00  0.000000000E+00 -1.987152168E+02  1.987152168E+02  0.000000000E+00  0.00000E+00  9.000E+00
      25     1     1     2     0     0  1.217119906E+02 -2.312027063E+02  2.927708196E+01  2.911196448E+02  1.250000000E+02  0.00000E+00  9.000E+00
      25     1     1     2     0     0 -1.489375587E+02  3.265669908E+02  5.600008309E+02  6.767971088E+02  1.250000000E+02  0.00000E+00  9.000E+00
       2     1     1     2   501     0  2.722556815E+01 -9.536428448E+01  2.523057639E+02  2.710973567E+02  2.697398305E-06  0.00000E+00  9.000E+00
#rwgt            1           1   3.3519820306746294E-002           1      254613           0
</event>
<event>
      5   9999  3.79277E-02  2.28667E+01 -1.00000E+00  1.61708E-01
       1    -1     0     0   502     0  0.000000000E+00  0.000000000E+00  8.191959981E+02  8.191959981E+02  0.000000000E+00  0.00000E+00  9.000E+00
      21    -1     0     0   501   502  0.000000000E+00  0.000000000E+00 -3.915494157E+02  3.915494157E+02  0.000000000E+00  0.00000E+00  9.000E+00
      25     1     1     2     0     0 -4.609956345E+01  2.526519119E+02 -1.997137125E+02  3.485236367E+02  1.250000000E+02  0.00000E+00  9.000E+00
      25     1     1     2     0     0  6.397712600E+01 -2.669094527E+02  7.684213921E+01  3.112289237E+02  1.250000000E+02  0.00000E+00  9.000E+00
       1     1     1     2   501     0 -1.787756255E+01  1.425754083E+01  5.505181557E+02  5.509928534E+02  7.629394531E-06  0.00000E+00  9.000E+00
#rwgt            1           1   3.0301458228207213E-002           1      254766           0
</event>
<event>
      5   9999 -3.79277E-02  2.57656E+01 -1.00000E+00  1.57776E-01
      21    -1     0     0   511   501  0.000000000E+00  0.000000000E+00  3.349772650E+02  3.349772650E+02  0.000000000E+00  0.00000E+00  9.000E+00
      21    -1     0     0   501   502  0.000000000E+00  0.000000000E+00 -2.402097624E+02  2.402097624E+02  0.000000000E+00  0.00000E+00  9.000E+00
      25     1     1     2     0     0  1.047172424E+02 -1.768287904E+02  1.835181503E+02  3.025525301E+02  1.250000000E+02  0.00000E+00  9.000E+00
      25     1     1     2     0     0 -1.120302487E+02  1.521228326E+02 -9.574656945E+01  2.459360453E+02  1.250000000E+02  0.00000E+00  9.000E+00
      21     1     1     2   511   502  7.313006304E+00  2.470595786E+01  6.995921732E+00  2.669845194E+01  5.527507362E-07  0.00000E+00  9.000E+00
#rwgt            1           1  -1.6450717879601215E-002           1      254992           0
</event>
<event>
      5   9999  3.79277E-02  9.62876E+01 -1.00000E+00  1.24571E-01
      21    -1     0     0   512   501  0.000000000E+00  0.000000000E+00  2.453251706E+02  2.453251706E+02  0.000000000E+00  0.00000E+00  9.000E+00
      21    -1     0     0   501   502  0.000000000E+00  0.000000000E+00 -3.964202569E+02  3.964202569E+02  0.000000000E+00  0.00000E+00  9.000E+00
      25     1     1     2     0     0  8.454511453E+01 -3.639026713E+01 -3.165907963E+02  3.526001421E+02  1.250000000E+02  0.00000E+00  9.000E+00
      25     1     1     2     0     0 -4.111229195E+01 -4.954516171E+01  1.041236626E+02  1.749619408E+02  1.250000000E+02  0.00000E+00  9.000E+00
      21     1     1     2   512   502 -4.343282259E+01  8.593542884E+01  6.137204732E+01  1.141833447E+02  2.023048729E-06  0.00000E+00  9.000E+00
#rwgt            1           1   4.1293985497892260E-002           1      255106           0
</event>
<event>
      5   9999 -3.79277E-02  7.56856E+01 -1.00000E+00  1.29526E-01
      21    -1     0     0   502   501  0.000000000E+00  0.000000000E+00  1.695057878E+02  1.695057878E+02  0.000000000E+00  0.00000E+00  9.000E+00
      21    -1     0     0   501   511  0.000000000E+00  0.000000000E+00 -3.321372857E+02  3.321372857E+02  0.000000000E+00  0.00000E+00  9.000E+00
      25     1     1     2     0     0 -1.145874367E+02  1.104800203E+01 -5.673705028E+01  1.791547707E+02  1.250000000E+02  0.00000E+00  9.000E+00
      25     1     1     2     0     0  1.888652757E+02 -2.557768675E+01 -6.803293097E+01  2.378608630E+02  1.250000000E+02  0.00000E+00  9.000E+00
      21     1     1     2   502   511 -7.427783905E+01  1.452968471E+01 -3.786151667E+01  8.462743973E+01  6.743495762E-07  0.00000E+00  9.000E+00
#rwgt            1           1 -0.11960552952544197                1      255227           0
</event>
<event>
      5   9999  3.79277E-02  1.03264E+02 -1.00000E+00  1.23204E-01
      21    -1     0     0   512   501  0.000000000E+00  0.000000000E+00  6.961692364E+01  6.961692364E+01  0.000000000E+00  0.00000E+00  9.000E+00
      21    -1     0     0   501   502  0.000000000E+00  0.000000000E+00 -9.758988463E+02  9.758988463E+02  0.000000000E+00  0.00000E+00  9.000E+00
      25     1     1     2     0     0  3.540070356E+01 -2.283890821E+01 -6.085167867E+01  1.452678641E+02  1.250000000E+02  0.00000E+00  9.000E+00
      25     1     1     2     0     0 -6.983724305E+01 -7.451392202E+01 -7.195432559E+02  7.374259707E+02  1.250000000E+02  0.00000E+00  9.000E+00
      21     1     1     2   512   502  3.443653949E+01  9.735283023E+01 -1.258869881E+02  1.628219352E+02  2.697398305E-06  0.00000E+00  9.000E+00
#rwgt            1           1   4.9431584695698430E-002           1      255375           0
</event>
<event>
      5   9999  3.79277E-02  6.62684E+01 -1.00000E+00  1.32437E-01
      21    -1     0     0   502   501  0.000000000E+00  0.000000000E+00  5.113054994E+01  5.113054994E+01  0.000000000E+00  0.00000E+00  9.000E+00
       2    -1     0     0   501     0  0.000000000E+00  0.000000000E+00 -9.464784962E+02  9.464784962E+02  0.000000000E+00  0.00000E+00  9.000E+00
      25     1     1     2     0     0 -8.842866722E+01  2.681844484E+01 -3.618760234E+02  3.938503706E+02  1.250000000E+02  0.00000E+00  9.000E+00
      25     1     1     2     0     0  1.509967909E+02 -4.865264501E+01 -3.045272879E+02  3.654161734E+02  1.250000000E+02  0.00000E+00  9.000E+00
       2     1     1     2   502     0 -6.256812370E+01  2.183420017E+01 -2.289446350E+02  2.383425021E+02  2.697398305E-06  0.00000E+00  9.000E+00
#rwgt            1           1   3.8377099591411508E-002           1      255478           0
</event>
<event>
      5   9999  3.79277E-02  1.62674E+02 -1.00000E+00  1.15014E-01
      21    -1     0     0   502   511  0.000000000E+00  0.000000000E+00  6.062641352E+02  6.062641352E+02  0.000000000E+00  0.00000E+00  9.000E+00
      21    -1     0     0   501   502  0.000000000E+00  0.000000000E+00 -6.332523862E+02  6.332523862E+02  0.000000000E+00  0.00000E+00  9.000E+00
      25     1     1     2     0     0 -2.553930944E+01 -2.075981886E+02 -4.518893024E+02  5.133986812E+02  1.250000000E+02  0.00000E+00  9.000E+00
      25     1     1     2     0     0  1.181221267E+02  7.383994900E+01 -7.407884130E+01  2.012904608E+02  1.250000000E+02  0.00000E+00  9.000E+00
      21     1     1     2   501   511 -9.258281730E+01  1.337582396E+02  4.989798927E+02  5.248273793E+02  7.629394531E-06  0.00000E+00  9.000E+00
#rwgt            1           1   4.1914492727346188E-002           1      255551           0
</event>
<event>
      5   9999  3.79277E-02  6.79818E+01 -1.00000E+00  1.31867E-01
      21    -1     0     0   512   501  0.000000000E+00  0.000000000E+00  5.228050087E+02  5.228050087E+02  0.000000000E+00  0.00000E+00  9.000E+00
      21    -1     0     0   501   502  0.000000000E+00  0.000000000E+00 -2.797208715E+02  2.797208715E+02  0.000000000E+00  0.00000E+00  9.000E+00
      25     1     1     2     0     0 -1.108394056E+02 -4.523404329E+01  3.956989964E+02  4.318960388E+02  1.250000000E+02  0.00000E+00  9.000E+00
      25     1     1     2     0     0  1.217290435E+02  1.123380388E+02 -1.996495510E+02  2.879630848E+02  1.250000000E+02  0.00000E+00  9.000E+00
      21     1     1     2   512   502 -1.088963789E+01 -6.710399548E+01  4.703469177E+01  8.266675664E+01  1.348699152E-06  0.00000E+00  9.000E+00
#rwgt            1           1   2.8298101614146476E-002           1      255748           0
</event>
<event>
      5   9999  3.79277E-02  1.76782E+01 -1.00000E+00  1.70916E-01
      21    -1     0     0   502   511  0.000000000E+00  0.000000000E+00  2.111711354E+02  2.111711354E+02  0.000000000E+00  0.00000E+00  9.000E+00
      21    -1     0     0   501   502  0.000000000E+00  0.000000000E+00 -4.914833900E+02  4.914833900E+02  0.000000000E+00  0.00000E+00  9.000E+00
      25     1     1     2     0     0  3.251131439E+01 -1.849664072E+02 -6.889216808E+01  2.358827849E+02  1.250000000E+02  0.00000E+00  9.000E+00
      25     1     1     2     0     0 -3.147122154E+01  2.026139684E+02 -2.955458343E+02  3.808086109E+02  1.250000000E+02  0.00000E+00  9.000E+00
      21     1     1     2   501   511 -1.040092853E+00 -1.764756113E+01  8.412574780E+01  8.596312960E+01  1.348699152E-06  0.00000E+00  9.000E+00
#rwgt            1           1   3.9184341978267680E-002           1      255952           0
</event>
<event>
      5   9999  3.79277E-02  4.51585E+01 -1.00000E+00  1.41647E-01
      21    -1     0     0   502   501  0.000000000E+00  0.000000000E+00  1.048313843E+02  1.048313843E+02  0.000000000E+00  0.00000E+00  9.000E+00
      21    -1     0     0   501   512  0.000000000E+00  0.000000000E+00 -9.949267758E+02  9.949267758E+02  0.000000000E+00  0.00000E+00  9.000E+00
      25     1     1     2     0     0 -4.220277118E+01  3.838428104E+01  4.757150311E+01  1.454045214E+02  1.250000000E+02  0.00000E+00  9.000E+00
      25     1     1     2     0     0  1.873807285E+01  1.994039680E-01 -7.862923976E+02  7.963867714E+02  1.250000000E+02  0.00000E+00  9.000E+00
      21     1     1     2   502   512  2.346469834E+01 -3.858368500E+01 -1.513744970E+02  1.579668672E+02  1.907348633E-06  0.00000E+00  9.000E+00
#rwgt            1           1   4.6972160445906089E-002           1      256351           0
</event>
<event>
      5   9999  3.79277E-02  5.03255E+01 -1.00000E+00  1.38915E-01
      21    -1     0     0   511   501  0.000000000E+00  0.000000000E+00  1.373633449E+02  1.373633449E+02  0.000000000E+00  0.00000E+00  9.000E+00
      21    -1     0     0   501   502  0.000000000E+00  0.000000000E+00 -3.542518657E+02  3.542518657E+02  0.000000000E+00  0.00000E+00  9.000E+00
      25     1     1     2     0     0  7.328087171E+01 -3.418281943E+00  4.760638633E+01  1.525553632E+02  1.250000000E+02  0.00000E+00  9.000E+00
      25     1     1     2     0     0 -3.772994325E+01 -3.220176351E+01 -2.543614428E+02  2.877242531E+02  1.250000000E+02  0.00000E+00  9.000E+00
      21     1     1     2   511   502 -3.555092846E+01  3.562004545E+01 -1.013346428E+01  5.133559439E+01  1.105501472E-06  0.00000E+00  9.000E+00
#rwgt            1           1   2.7613910613340134E-002           1      256590           0
</event>
<event>
      5   9999  3.79277E-02  2.08650E+01 -1.00000E+00  1.64866E-01
      21    -1     0     0   502   512  0.000000000E+00  0.000000000E+00  2.580769603E+02  2.580769603E+02  0.000000000E+00  0.00000E+00  9.000E+00
      21    -1     0     0   501   502  0.000000000E+00  0.000000000E+00 -1.827915861E+02  1.827915861E+02  0.000000000E+00  0.00000E+00  9.000E+00
      25     1     1     2     0     0 -8.803913856E+01  1.167605982E+02 -2.276441529E+01  1.937192449E+02  1.250000000E+02  0.00000E+00  9.000E+00
      25     1     1     2     0     0  7.927349037E+01 -1.356949563E+02  7.099891408E+01  2.129865095E+02  1.250000000E+02  0.00000E+00  9.000E+00
      21     1     1     2   501   512  8.765648194E+00  1.893435807E+01  2.705087537E+01  3.416279207E+01  4.768371582E-07  0.00000E+00  9.000E+00
#rwgt            1           1   3.7014837284235644E-002           1      256776           0
</event>
<event>
      5   9999  3.79277E-02  1.17818E+02 -1.00000E+00  1.20708E-01
      21    -1     0     0   511   501  0.000000000E+00  0.000000000E+00  5.901539099E+02  5.901539099E+02  0.000000000E+00  0.00000E+00  9.000E+00
      21    -1     0     0   501   502  0.000000000E+00  0.000000000E+00 -9.303287690E+01  9.303287690E+01  0.000000000E+00  0.00000E+00  9.000E+00
      25     1     1     2     0     0 -3.431332257E+01 -5.878833087E+00  2.378476851E+02  2.709400046E+02  1.250000000E+02  0.00000E+00  9.000E+00
      25     1     1     2     0     0  1.061499073E+02  9.926300062E+01  1.064032219E+02  2.192432251E+02  1.250000000E+02  0.00000E+00  9.000E+00
      21     1     1     2   511   502 -7.183658472E+01 -9.338416754E+01  1.528701261E+02  1.930035572E+02  4.264961200E-06  0.00000E+00  9.000E+00
#rwgt            1           1   2.9447049454822787E-002           1      256980           0
</event>
<event>
      5   9999  3.79277E-02  5.95977E+01 -1.00000E+00  1.34860E-01
      21    -1     0     0   502   501  0.000000000E+00  0.000000000E+00  3.813964071E+01  3.813964071E+01  0.000000000E+00  0.00000E+00  9.000E+00
      21    -1     0     0   512   502  0.000000000E+00  0.000000000E+00 -1.698224426E+03  1.698224426E+03  0.000000000E+00  0.00000E+00  9.000E+00
      25     1     1     2     0     0 -1.137200682E+02 -2.614958279E+01 -1.132458914E+03  1.145296576E+03  1.250000000E+02  0.00000E+00  9.000E+00
      25     1     1     2     0     0  1.469088151E+02 -2.335190638E+01 -3.137341765E+02  3.690279732E+02  1.250000000E+02  0.00000E+00  9.000E+00
      21     1     1     2   512   501 -3.318874687E+01  4.950148917E+01 -2.138916945E+02  2.220395175E+02  3.814697266E-06  0.00000E+00  9.000E+00
#rwgt            1           1   4.6146012611868327E-002           1      257068           0
</event>
<event>
      5   9999  3.79277E-02  5.56557E+01 -1.00000E+00  1.36471E-01
      21    -1     0     0   502   501  0.000000000E+00  0.000000000E+00  4.262322858E+02  4.262322858E+02  0.000000000E+00  0.00000E+00  9.000E+00
      21    -1     0     0   511   502  0.000000000E+00  0.000000000E+00 -1.073357056E+02  1.073357056E+02  0.000000000E+00  0.00000E+00  9.000E+00
      25     1     1     2     0     0  5.523612819E+01 -7.340198476E+00  1.625167348E+00  1.368669045E+02  1.250000000E+02  0.00000E+00  9.000E+00
      25     1     1     2     0     0 -1.007375827E+02  3.938969442E+01  2.920751952E+02  3.356076999E+02  1.250000000E+02  0.00000E+00  9.000E+00
      21     1     1     2   511   501  4.550145446E+01 -3.204949594E+01  2.519621767E+01  6.109338698E+01  9.536743164E-07  0.00000E+00  9.000E+00
#rwgt            1           1   3.7303946660896731E-002           1      257164           0
</event>
<event>
      5   9999  3.79277E-02  1.27878E+02 -1.00000E+00  1.19208E-01
      21    -1     0     0   502   512  0.000000000E+00  0.000000000E+00  1.015701642E+03  1.015701642E+03  0.000000000E+00  0.00000E+00  9.000E+00
      21    -1     0     0   501   502  0.000000000E+00  0.000000000E+00 -1.140275160E+02  1.140275160E+02  0.000000000E+00  0.00000E+00  9.000E+00
      25     1     1     2     0     0 -1.025227874E+02  1.092464909E+02  1.621867524E+02  2.537228022E+02  1.250000000E+02  0.00000E+00  9.000E+00
      25     1     1     2     0     0  1.722555785E+02 -2.164389899E+02  3.363448348E+02  4.530680617E+02  1.250000000E+02  0.00000E+00  9.000E+00
      21     1     1     2   501   512 -6.973279119E+01  1.071924990E+02  4.031425389E+02  4.229382942E+02  5.394796609E-06  0.00000E+00  9.000E+00
#rwgt            2          11   1.4306366577455242E-003           1      257237           0
</event>
<event>
      5   9999  3.79277E-02  1.07398E+02 -1.00000E+00  1.22450E-01
      21    -1     0     0   502   501  0.000000000E+00  0.000000000E+00  1.523888738E+02  1.523888738E+02  0.000000000E+00  0.00000E+00  9.000E+00
      21    -1     0     0   511   502  0.000000000E+00  0.000000000E+00 -6.771644401E+02  6.771644401E+02  0.000000000E+00  0.00000E+00  9.000E+00
      25     1     1     2     0     0  6.246738525E+01  3.417329828E+01 -1.120402978E+02  1.823403874E+02  1.250000000E+02  0.00000E+00  9.000E+00
      25     1     1     2     0     0 -1.590814460E+02  1.273230348E+01  1.778845880E+01  2.034955707E+02  1.250000000E+02  0.00000E+00  9.000E+00
      21     1     1     2   511   501  9.661406077E+01 -4.690560176E+01 -4.305237272E+02  4.437173558E+02  5.394796609E-06  0.00000E+00  9.000E+00
#rwgt            1           1  0.16872525814550038                1      257302           0
</event>
<event>
      5   9999  3.79277E-02  2.03068E+01 -1.00000E+00  1.65825E-01
      21    -1     0     0   502   512  0.000000000E+00  0.000000000E+00  1.091956294E+02  1.091956294E+02  0.000000000E+00  0.00000E+00  9.000E+00
      21    -1     0     0   501   502  0.000000000E+00  0.000000000E+00 -3.186545703E+02  3.186545703E+02  0.000000000E+00  0.00000E+00  9.000E+00
      25     1     1     2     0     0  3.000261440E+01 -1.033710808E+02 -3.050626543E+01  1.677538955E+02  1.250000000E+02  0.00000E+00  9.000E+00
      25     1     1     2     0     0 -1.237388555E+01  9.329177253E+01 -1.814976547E+02  2.396306878E+02  1.250000000E+02  0.00000E+00  9.000E+00
      21     1     1     2   501   512 -1.762872885E+01  1.007930826E+01  2.544979185E+00  2.046561640E+01  4.906081448E-07  0.00000E+00  9.000E+00
#rwgt            1           1   4.8051780879578537E-002           1      257378           0
</event>
<event>
      5   9999  3.79277E-02  6.62875E+01 -1.00000E+00  1.32431E-01
      21    -1     0     0   502   501  0.000000000E+00  0.000000000E+00  5.417217078E+02  5.417217078E+02  0.000000000E+00  0.00000E+00  9.000E+00
      21    -1     0     0   501   511  0.000000000E+00  0.000000000E+00 -3.694997006E+02  3.694997006E+02  0.000000000E+00  0.00000E+00  9.000E+00
      25     1     1     2     0     0 -1.657805139E+02 -8.941921676E+01  1.005430231E+02  2.474123574E+02  1.250000000E+02  0.00000E+00  9.000E+00
      25     1     1     2     0     0  2.227368932E+02  5.550758101E+01  3.163256911E+02  4.103410264E+02  1.250000000E+02  0.00000E+00  9.000E+00
      21     1     1     2   502   511 -5.695637928E+01  3.391163574E+01 -2.446467070E+02  2.534680245E+02  4.672030912E-06  0.00000E+00  9.000E+00
#rwgt            1           1   2.6609531864626539E-002           1      257568           0
</event>
<event>
      5   9999  3.79277E-02  4.04324E+01 -1.00000E+00  1.44551E-01
      21    -1     0     0   502   501  0.000000000E+00  0.000000000E+00  7.015099724E+02  7.015099724E+02  0.000000000E+00  0.00000E+00  9.000E+00
      21    -1     0     0   512   502  0.000000000E+00  0.000000000E+00 -1.294883914E+02  1.294883914E+02  0.000000000E+00  0.00000E+00  9.000E+00
      25     1     1     2     0     0  2.014615753E+02 -3.097604207E+01  4.433748262E+02  5.037385413E+02  1.250000000E+02  0.00000E+00  9.000E+00
      25     1     1     2     0     0 -2.204961886E+02 -4.695496765E+00  1.335468315E+02  2.865316267E+02  1.250000000E+02  0.00000E+00  9.000E+00
      21     1     1     2   512   501  1.903461333E+01  3.567153884E+01 -4.900076617E+00  4.072819587E+01  6.222907608E-07  0.00000E+00  9.000E+00
#rwgt            1           1   3.7197584014549888E-002           1      257616           0
</event>
<event>
      5   9999  3.79277E-02  3.08771E+01 -1.00000E+00  1.52176E-01
      21    -1     0     0   502   501  0.000000000E+00  0.000000000E+00  2.657185692E+02  2.657185692E+02  0.000000000E+00  0.00000E+00  9.000E+00
      21    -1     0     0   511   502  0.000000000E+00  0.000000000E+00 -1.597875965E+02  1.597875965E+02  0.000000000E+00  0.00000E+00  9.000E+00
      25     1     1     2     0     0 -4.540669774E+01  4.089880545E+01  1.836838747E+02  2.304327371E+02  1.250000000E+02  0.00000E+00  9.000E+00
      25     1     1     2     0     0  7.342024207E+01 -2.791269413E+01 -6.913465193E+01  1.630161051E+02  1.250000000E+02  0.00000E+00  9.000E+00
      21     1     1     2   511   501 -2.801354433E+01 -1.298611132E+01 -8.618250168E+00  3.205732349E+01  4.768371582E-07  0.00000E+00  9.000E+00
#rwgt            1           1   4.1193171239168241E-002           1      257714           0
</event>
<event>
      5   9999  3.79277E-02  1.15278E+02 -1.00000E+00  1.21113E-01
      21    -1     0     0   502   501  0.000000000E+00  0.000000000E+00  5.677814425E+02  5.677814425E+02  0.000000000E+00  0.00000E+00  9.000E+00
      -1    -1     0     0     0   502  0.000000000E+00  0.000000000E+00 -1.955471223E+02  1.955471223E+02  0.000000000E+00  0.00000E+00  9.000E+00
      25     1     1     2     0     0 -7.542757209E+01 -1.441999433E+02  2.440894869E+02  3.188849634E+02  1.250000000E+02  0.00000E+00  9.000E+00
      25     1     1     2     0     0 -3.984689135E+01  1.450729501E+02  2.219376810E+02  2.958297988E+02  1.250000000E+02  0.00000E+00  9.000E+00
      -1     1     1     2     0   501  1.152744634E+02 -8.730068310E-01 -9.379284766E+01  1.486138026E+02  0.000000000E+00  0.00000E+00  9.000E+00
#rwgt            1           1   4.0941324090198419E-002           1      258091           0
</event>
<event>
      5   9999  3.79277E-02  7.39114E+01 -1.00000E+00  1.30036E-01
      21    -1     0     0   511   501  0.000000000E+00  0.000000000E+00  2.014494546E+02  2.014494546E+02  0.000000000E+00  0.00000E+00  9.000E+00
      21    -1     0     0   501   502  0.000000000E+00  0.000000000E+00 -3.333386922E+02  3.333386922E+02  0.000000000E+00  0.00000E+00  9.000E+00
      25     1     1     2     0     0  1.189284516E+02 -5.917804346E+01 -2.308872637E+02  2.942447042E+02  1.250000000E+02  0.00000E+00  9.000E+00
      25     1     1     2     0     0 -5.927367667E+01  1.554094514E+01  9.073694746E+01  1.661718489E+02  1.250000000E+02  0.00000E+00  9.000E+00
      21     1     1     2   511   502 -5.965477490E+01  4.363709833E+01  8.261078663E+00  7.437159363E+01  9.902267293E-07  0.00000E+00  9.000E+00
#rwgt            1           1   4.1432104725033322E-002           1      258226           0
</event>
<event>
      5   9999  3.79277E-02  6.36263E+01 -1.00000E+00  1.33355E-01
      21    -1     0     0   502   501  0.000000000E+00  0.000000000E+00  3.117257147E+02  3.117257147E+02  0.000000000E+00  0.00000E+00  9.000E+00
      21    -1     0     0   501   512  0.000000000E+00  0.000000000E+00 -2.076296888E+02  2.076296888E+02  0.000000000E+00  0.00000E+00  9.000E+00
      25     1     1     2     0     0  1.733092974E+01  3.796969000E+01  2.079609152E+02  2.462007326E+02  1.250000000E+02  0.00000E+00  9.000E+00
      25     1     1     2     0     0 -4.096273820E+01  2.110519389E+01  1.921496287E+01  1.346015970E+02  1.250000000E+02  0.00000E+00  9.000E+00
      21     1     1     2   502   512  2.363180846E+01 -5.907488389E+01 -1.230798522E+02  1.385530739E+02  2.336015456E-06  0.00000E+00  9.000E+00
#rwgt            1           1  0.10557263279622255                1      258379           0
</event>
<event>
      5   9999  3.79277E-02  7.74484E+01 -1.00000E+00  1.29035E-01
      -2    -1     0     0     0   501  0.000000000E+00  0.000000000E+00  1.607829033E+02  1.607829033E+02  0.000000000E+00  0.00000E+00  9.000E+00
      21    -1     0     0   501   502  0.000000000E+00  0.000000000E+00 -6.982941623E+02  6.982941623E+02  0.000000000E+00  0.00000E+00  9.000E+00
      25     1     1     2     0     0 -6.657629866E+00 -6.769427416E+01  3.898778789E+01  1.475529952E+02  1.250000000E+02  0.00000E+00  9.000E+00
      25     1     1     2     0     0  4.660178584E+01  1.340472245E+02 -6.011909531E+02  6.302348347E+02  1.250000000E+02  0.00000E+00  9.000E+00
      -2     1     1     2     0   502 -3.994415598E+01 -6.635295031E+01  2.469190623E+01  8.128923573E+01  4.768371582E-07  0.00000E+00  9.000E+00
#rwgt            1           1   3.8682384081525398E-002           1      258460           0
</event>
<event>
      5   9999  3.79277E-02  2.94357E+01 -1.00000E+00  1.53615E-01
      21    -1     0     0   511   501  0.000000000E+00  0.000000000E+00  1.289648529E+03  1.289648529E+03  0.000000000E+00  0.00000E+00  9.000E+00
      21    -1     0     0   501   502  0.000000000E+00  0.000000000E+00 -5.168507519E+01  5.168507519E+01  0.000000000E+00  0.00000E+00  9.000E+00
      25     1     1     2     0     0 -1.544797211E+01  1.951851676E+02  4.324666366E+02  4.909055727E+02  1.250000000E+02  0.00000E+00  9.000E+00
      25     1     1     2     0     0  3.602687285E+01 -1.741383801E+02  5.225680214E+02  5.659721265E+02  1.250000000E+02  0.00000E+00  9.000E+00
      21     1     1     2   511   502 -2.057890074E+01 -2.104678751E+01  2.829287959E+02  2.844559052E+02  5.394796609E-06  0.00000E+00  9.000E+00
#rwgt            1           1   4.4694637182900496E-002           1      258587           0
</event>
<event>
      5   9999  3.79277E-02  5.94648E+01 -1.00000E+00  1.34912E-01
      21    -1     0     0   502   501  0.000000000E+00  0.000000000E+00  8.309022028E+01  8.309022028E+01  0.000000000E+00  0.00000E+00  9.000E+00
      21    -1     0     0   501   512  0.000000000E+00  0.000000000E+00 -9.352164986E+02  9.352164986E+02  0.000000000E+00  0.00000E+00  9.000E+00
      25     1     1     2     0     0  8.399949128E-01 -1.667388407E+02 -1.696267056E+02  2.687020019E+02  1.250000000E+02  0.00000E+00  9.000E+00
      25     1     1     2     0     0 -4.247388137E+01  2.091967883E+02 -5.884844840E+02  6.383622129E+02  1.250000000E+02  0.00000E+00  9.000E+00
      21     1     1     2   502   512  4.163388646E+01 -4.245794768E+01 -9.401508874E+01  1.112425042E+02  1.348699152E-06  0.00000E+00  9.000E+00
#rwgt            1           1   4.1331257717717826E-002           1      258729           0
</event>
<event>
      5   9999  3.79277E-02  2.04453E+01 -1.00000E+00  1.65584E-01
      21    -1     0     0   502   501  0.000000000E+00  0.000000000E+00  4.951391852E+01  4.951391852E+01  0.000000000E+00  0.00000E+00  9.000E+00
      21    -1     0     0   501   511  0.000000000E+00  0.000000000E+00 -1.113372185E+03  1.113372185E+03  0.000000000E+00  0.00000E+00  9.000E+00
      25     1     1     2     0     0  1.433115871E+02 -8.933075211E+01 -6.399712129E+02  6.735772767E+02  1.250000000E+02  0.00000E+00  9.000E+00
      25     1     1     2     0     0 -1.229592489E+02  8.738355700E+01 -2.673657024E+02  3.314578130E+02  1.250000000E+02  0.00000E+00  9.000E+00
      21     1     1     2   502   511 -2.035233818E+01  1.947195112E+00 -1.565213512E+02  1.578510140E+02  0.000000000E+00  0.00000E+00  9.000E+00
#rwgt            1           1   3.9857308177229170E-002           1      258902           0
</event>
<event>
      5   9999  3.79277E-02  1.07889E+01 -1.00000E+00  1.92021E-01
      21    -1     0     0   502   512  0.000000000E+00  0.000000000E+00  1.525357114E+02  1.525357114E+02  0.000000000E+00  0.00000E+00  9.000E+00
      21    -1     0     0   501   502  0.000000000E+00  0.000000000E+00 -3.246815549E+02  3.246815549E+02  0.000000000E+00  0.00000E+00  9.000E+00
      25     1     1     2     0     0 -8.435597151E+01  2.672756811E+01 -1.648272180E+02  2.249962325E+02  1.250000000E+02  0.00000E+00  9.000E+00
      25     1     1     2     0     0  7.373666213E+01 -2.482191697E+01 -8.752926660E+01  1.712880481E+02  1.250000000E+02  0.00000E+00  9.000E+00
      21     1     1     2   501   512  1.061930938E+01 -1.905651140E+00  8.021064107E+01  8.093298573E+01  1.907348633E-06  0.00000E+00  9.000E+00
#rwgt            1           1   2.6392462700984262E-002           1      259291           0
</event>
<event>
      5   9999  3.79277E-02  1.47773E+02 -1.00000E+00  1.16652E-01
      21    -1     0     0   511   501  0.000000000E+00  0.000000000E+00  3.714888821E+02  3.714888821E+02  0.000000000E+00  0.00000E+00  9.000E+00
      21    -1     0     0   501   502  0.000000000E+00  0.000000000E+00 -4.573085153E+02  4.573085153E+02  0.000000000E+00  0.00000E+00  9.000E+00
      25     1     1     2     0     0  1.586046614E+02 -1.607754804E+02 -1.208834499E+02  2.850298268E+02  1.250000000E+02  0.00000E+00  9.000E+00
      25     1     1     2     0     0 -1.855223087E+02  1.547490495E+01 -1.767341077E+02  2.855134752E+02  1.250000000E+02  0.00000E+00  9.000E+00
      21     1     1     2   511   502  2.691764730E+01  1.453005755E+02  2.117979245E+02  2.582540954E+02  6.031565972E-06  0.00000E+00  9.000E+00
#rwgt            1           1   3.8997358490856421E-002           1      259447           0
</event>
<event>
      5   9999  3.79277E-02  1.65257E+01 -1.00000E+00  1.73510E-01
      21    -1     0     0   502   512  0.000000000E+00  0.000000000E+00  1.616425423E+02  1.616425423E+02  0.000000000E+00  0.00000E+00  9.000E+00
      21    -1     0     0   501   502  0.000000000E+00  0.000000000E+00 -2.750849520E+02  2.750849520E+02  0.000000000E+00  0.00000E+00  9.000E+00
      25     1     1     2     0     0  1.059016814E+02  1.852514510E+01 -5.897458117E+01  1.751038216E+02  1.250000000E+02  0.00000E+00  9.000E+00
      25     1     1     2     0     0 -1.215280219E+02 -1.314787045E+01 -1.080655626E+02  2.055361098E+02  1.250000000E+02  0.00000E+00  9.000E+00
      21     1     1     2   501   512  1.562634057E+01 -5.377274654E+00  5.359773408E+01  5.608756280E+01  6.743495762E-07  0.00000E+00  9.000E+00
#rwgt            1           1   4.3892002380696363E-002           1      259518           0
</event>
<event>
      5   9999  3.79277E-02  3.90430E+01 -1.00000E+00  1.45495E-01
      21    -1     0     0   511   501  0.000000000E+00  0.000000000E+00  2.249942701E+02  2.249942701E+02  0.000000000E+00  0.00000E+00  9.000E+00
      21    -1     0     0   501   502  0.000000000E+00  0.000000000E+00 -1.037608871E+03  1.037608871E+03  0.000000000E+00  0.00000E+00  9.000E+00
      25     1     1     2     0     0  5.638186465E+01  9.488280953E+01 -9.278978759E+02  9.427624994E+02  1.250000000E+02  0.00000E+00  9.000E+00
      25     1     1     2     0     0 -4.979073554E+01 -5.640017195E+01 -4.672535689E+01  1.531938501E+02  1.250000000E+02  0.00000E+00  9.000E+00
      21     1     1     2   511   502 -6.591129118E+00 -3.848263759E+01  1.620086318E+02  1.666467916E+02  3.303624740E-06  0.00000E+00  9.000E+00
#rwgt            1           1   3.3967540174719105E-002           1      259699           0
</event>
<event>
      5   9999  3.79277E-02  1.31879E+02 -1.00000E+00  1.18654E-01
      21    -1     0     0   512   501  0.000000000E+00  0.000000000E+00  3.460242946E+03  3.460242946E+03  0.000000000E+00  0.00000E+00  9.000E+00
      21    -1     0     0   501   502  0.000000000E+00  0.000000000E+00 -8.238817792E+02  8.238817792E+02  0.000000000E+00  0.00000E+00  9.000E+00
      25     1     1     2     0     0 -1.256143037E+02 -3.364834156E+01 -4.681649645E+02  5.017116683E+02  1.250000000E+02  0.00000E+00  9.000E+00
      25     1     1     2     0     0  7.201800299E+01 -8.684890671E+01 -3.166805853E+02  3.586654687E+02  1.250000000E+02  0.00000E+00  9.000E+00
      21     1     1     2   512   502  5.359630070E+01  1.204972483E+02  3.421206717E+03  3.423747589E+03  0.000000000E+00  0.00000E+00  9.000E+00
#rwgt            1           1   2.9494178350007706E-002           1      259904           0
</event>
<event>
      5   9999  3.79277E-02  1.65147E+01 -1.00000E+00  1.73536E-01
      21    -1     0     0   502   511  0.000000000E+00  0.000000000E+00  4.885062770E+02  4.885062770E+02  0.000000000E+00  0.00000E+00  9.000E+00
      21    -1     0     0   501   502  0.000000000E+00  0.000000000E+00 -1.205702294E+02  1.205702294E+02  0.000000000E+00  0.00000E+00  9.000E+00
      25     1     1     2     0     0 -8.947441224E+01  1.473884138E+02  7.166501449E+01  2.246995533E+02  1.250000000E+02  0.00000E+00  9.000E+00
      25     1     1     2     0     0  8.945835823E+01 -1.639031024E+02  2.547403836E+02  3.396832170E+02  1.250000000E+02  0.00000E+00  9.000E+00
      21     1     1     2   501   511  1.605400265E-02  1.651468862E+01  4.153064947E+01  4.469373606E+01  4.768371582E-07  0.00000E+00  9.000E+00
#rwgt            1           1   4.4757567331907840E-002           1      259989           0
</event>
<event>
      5   9999  3.79277E-02  3.50406E+01 -1.00000E+00  1.48498E-01
      21    -1     0     0   502   501  0.000000000E+00  0.000000000E+00  1.190247128E+03  1.190247128E+03  0.000000000E+00  0.00000E+00  9.000E+00
      21    -1     0     0   512   502  0.000000000E+00  0.000000000E+00 -1.571008529E+02  1.571008529E+02  0.000000000E+00  0.00000E+00  9.000E+00
      25     1     1     2     0     0 -1.526157494E+02  1.162823560E+02  1.011356041E+03  1.036956699E+03  1.250000000E+02  0.00000E+00  9.000E+00
      25     1     1     2     0     0  1.223031915E+02 -9.870420186E+01  1.002626206E+02  2.244508481E+02  1.250000000E+02  0.00000E+00  9.000E+00
      21     1     1     2   512   501  3.031255792E+01 -1.757815412E+01 -7.847238685E+01  8.594043384E+01  4.046097457E-06  0.00000E+00  9.000E+00
#rwgt            1           1   4.2011506587567103E-002           1      260189           0
</event>
<event>
      5   9999  3.79277E-02  2.74109E+02 -1.00000E+00  1.06881E-01
      21    -1     0     0   502   511  0.000000000E+00  0.000000000E+00  9.881299135E+02  9.881299135E+02  0.000000000E+00  0.00000E+00  9.000E+00
      21    -1     0     0   501   502  0.000000000E+00  0.000000000E+00 -2.286496041E+02  2.286496041E+02  0.000000000E+00  0.00000E+00  9.000E+00
      25     1     1     2     0     0 -1.010603115E+01  1.212216160E+02 -5.280365317E+01  1.822362144E+02  1.250000000E+02  0.00000E+00  9.000E+00
      25     1     1     2     0     0  2.840988764E+02 -1.291867845E+02  2.869761241E+02  4.420200139E+02  1.250000000E+02  0.00000E+00  9.000E+00
      21     1     1     2   501   511 -2.739928452E+02  7.965168474E+00  5.253078385E+02  5.925232892E+02  1.078959322E-05  0.00000E+00  9.000E+00
#rwgt            1           1   3.3953609886970264E-002           1      260356           0
</event>
<event>
      5   9999  3.79277E-02  5.27911E+01 -1.00000E+00  1.37743E-01
      21    -1     0     0   512   501  0.000000000E+00  0.000000000E+00  1.322304843E+03  1.322304843E+03  0.000000000E+00  0.00000E+00  9.000E+00
      21    -1     0     0   501   502  0.000000000E+00  0.000000000E+00 -3.480115301E+01  3.480115301E+01  0.000000000E+00  0.00000E+00  9.000E+00
      25     1     1     2     0     0 -8.066469148E+00  3.594790207E+01  8.273535264E+02  8.375536862E+02  1.250000000E+02  0.00000E+00  9.000E+00
      25     1     1     2     0     0 -2.314876207E+01 -7.852148044E+01  1.775200566E+02  2.320341754E+02  1.250000000E+02  0.00000E+00  9.000E+00
      21     1     1     2   512   502  3.121523122E+01  4.257357837E+01  2.826301074E+02  2.875181348E+02  3.814697266E-06  0.00000E+00  9.000E+00
#rwgt            1           1   2.9347303783460479E-002           1      260411           0
</event>
<event>
      5   9999  3.79277E-02  6.81790E+01  7.55638E-03  1.31803E-01
       1    -1     0     0   501     0  0.000000000E+00  0.000000000E+00  1.407837308E+03  1.407837308E+03  0.000000000E+00  0.00000E+00  9.000E+00
      -1    -1     0     0     0   502  0.000000000E+00  0.000000000E+00 -3.927099105E+01  3.927099105E+01  0.000000000E+00  0.00000E+00  9.000E+00
      25     1     1     2     0     0 -5.484189198E+01 -1.877570955E+01  7.734417076E+02  7.856190142E+02  1.250000000E+02  0.00000E+00  9.000E+00
      25     1     1     2     0     0  5.442461038E+01 -4.940205170E+01  5.710670490E+02  5.891902709E+02  1.250000000E+02  0.00000E+00  9.000E+00
      21     1     1     2   501   502  4.172816051E-01  6.817776125E+01  2.405756085E+01  7.229901443E+01  1.784161275E-06  0.00000E+00  9.000E+00
#rwgt            3           6   1.4460174293917903E-003           1      260530           0
</event>
<event>
      5   9999  3.79277E-02  2.28616E+01 -1.00000E+00  1.61716E-01
      21    -1     0     0   502   501  0.000000000E+00  0.000000000E+00  3.647838219E+02  3.647838219E+02  0.000000000E+00  0.00000E+00  9.000E+00
      21    -1     0     0   511   502  0.000000000E+00  0.000000000E+00 -4.952938876E+02  4.952938876E+02  0.000000000E+00  0.00000E+00  9.000E+00
      25     1     1     2     0     0 -9.060928257E+01 -1.109925735E+02  5.604249102E+01  1.982300539E+02  1.250000000E+02  0.00000E+00  9.000E+00
      25     1     1     2     0     0  7.024031236E+01  1.006118998E+02  2.049925556E+02  2.696356871E+02  1.250000000E+02  0.00000E+00  9.000E+00
      21     1     1     2   511   501  2.036897021E+01  1.038067374E+01 -3.915451123E+02  3.922119686E+02  5.394796609E-06  0.00000E+00  9.000E+00
#rwgt            1           1  0.11365999412718029                1      260699           0
</event>
<event>
      5   9999  3.79277E-02  6.61811E+01 -1.00000E+00  1.32467E-01
      21    -1     0     0   502   501  0.000000000E+00  0.000000000E+00  1.860935042E+02  1.860935042E+02  0.000000000E+00  0.00000E+00  9.000E+00
      -1    -1     0     0     0   502  0.000000000E+00  0.000000000E+00 -7.595068955E+02  7.595068955E+02  0.000000000E+00  0.00000E+00  9.000E+00
      25     1     1     2     0     0 -2.123312586E+01  1.788391628E+02  3.611057936E+01  2.221784547E+02  1.250000000E+02  0.00000E+00  9.000E+00
      25     1     1     2     0     0  6.869261365E+01 -1.327139823E+02 -1.186585255E+02  2.281151506E+02  1.250000000E+02  0.00000E+00  9.000E+00
      -1     1     1     2     0   501 -4.745948779E+01 -4.612518055E+01 -4.908654452E+02  4.953067944E+02  5.394796609E-06  0.00000E+00  9.000E+00
#rwgt            1           1   4.2666346140467590E-002           1      260829           0
</event>
<event>
      5   9999  3.79277E-02  1.86360E+01 -1.00000E+00  1.68941E-01
      -1    -1     0     0     0   501  0.000000000E+00  0.000000000E+00  2.151040905E+02  2.151040905E+02  0.000000000E+00  0.00000E+00  9.000E+00
      21    -1     0     0   501   502  0.000000000E+00  0.000000000E+00 -6.489195726E+02  6.489195726E+02  0.000000000E+00  0.00000E+00  9.000E+00
      25     1     1     2     0     0 -5.554518560E-02  1.331891742E+02 -2.847969250E+02  3.383395450E+02  1.250000000E+02  0.00000E+00  9.000E+00
      25     1     1     2     0     0 -8.973082923E+00 -1.494921163E+02 -3.085634311E+02  3.650545166E+02  1.250000000E+02  0.00000E+00  9.000E+00
      -1     1     1     2     0   502  9.028628109E+00  1.630294211E+01  1.595448740E+02  1.606296014E+02  3.814697266E-06  0.00000E+00  9.000E+00
#rwgt            1           1   4.9203922334580388E-002           1      260965           0
</event>
<event>
      5   9999  3.79277E-02  4.67706E+01 -1.00000E+00  1.40750E-01
      21    -1     0     0   502   501  0.000000000E+00  0.000000000E+00  2.292775924E+02  2.292775924E+02  0.000000000E+00  0.00000E+00  9.000E+00
      21    -1     0     0   511   502  0.000000000E+00  0.000000000E+00 -4.235655736E+02  4.235655736E+02  0.000000000E+00  0.00000E+00  9.000E+00
      25     1     1     2     0     0 -3.833078455E+01 -2.098062321E+02  6.417499351E+01  2.554042557E+02  1.250000000E+02  0.00000E+00  9.000E+00
      25     1     1     2     0     0  8.313220738E+01  1.963776889E+02 -1.788439286E+02  3.050988552E+02  1.250000000E+02  0.00000E+00  9.000E+00
      21     1     1     2   511   501 -4.480142283E+01  1.342854313E+01 -7.961904614E+01  9.234005505E+01  9.536743164E-07  0.00000E+00  9.000E+00
#rwgt            1           1   9.0339524173293842E-002           1      261223           0
</event>
<event>
      5   9999  3.79277E-02  1.11103E+02 -1.00000E+00  1.21806E-01
      21    -1     0     0   502   501  0.000000000E+00  0.000000000E+00  2.826973217E+02  2.826973217E+02  0.000000000E+00  0.00000E+00  9.000E+00
      21    -1     0     0   512   502  0.000000000E+00  0.000000000E+00 -5.304450420E+02  5.304450420E+02  0.000000000E+00  0.00000E+00  9.000E+00
      25     1     1     2     0     0 -1.032426055E+01  1.810528739E+02  1.412727094E+01  2.207063961E+02  1.250000000E+02  0.00000E+00  9.000E+00
      25     1     1     2     0     0  8.340918504E+01 -9.737169955E+01  1.060441380E+02  2.081074223E+02  1.250000000E+02  0.00000E+00  9.000E+00
      21     1     1     2   512   501 -7.308492450E+01 -8.368117432E+01 -3.679191292E+02  3.843285453E+02  0.000000000E+00  0.00000E+00  9.000E+00
#rwgt            1           1   3.2310138419068164E-002           1      261499           0
</event>
<event>
      5   9999  3.79277E-02  5.64095E+01 -1.00000E+00  1.36151E-01
      21    -1     0     0   502   501  0.000000000E+00  0.000000000E+00  1.790662391E+02  1.790662391E+02  0.000000000E+00  0.00000E+00  9.000E+00
      21    -1     0     0   501   511  0.000000000E+00  0.000000000E+00 -3.027617987E+02  3.027617987E+02  0.000000000E+00  0.00000E+00  9.000E+00
      25     1     1     2     0     0 -6.759151622E+01  6.105640866E+01 -1.090872900E+02  1.892657786E+02  1.250000000E+02  0.00000E+00  9.000E+00
      25     1     1     2     0     0  9.852154845E+01 -1.082301448E+02  5.762486782E+01  2.009126306E+02  1.250000000E+02  0.00000E+00  9.000E+00
      21     1     1     2   502   511 -3.093003222E+01  4.717373617E+01 -7.223313743E+01  9.164962859E+01  9.536743164E-07  0.00000E+00  9.000E+00
#rwgt            1           1   3.6103674845174460E-002           1      261610           0
</event>
<event>
      5   9999  3.79277E-02  7.63318E+01 -1.00000E+00  1.29344E-01
       2    -1     0     0   502     0  0.000000000E+00  0.000000000E+00  1.803079085E+03  1.803079085E+03  0.000000000E+00  0.00000E+00  9.000E+00
      21    -1     0     0   501   502  0.000000000E+00  0.000000000E+00 -2.177814907E+02  2.177814907E+02  0.000000000E+00  0.00000E+00  9.000E+00
      25     1     1     2     0     0 -1.356960517E+02 -9.782826860E+01  1.646579107E+01  2.094753228E+02  1.250000000E+02  0.00000E+00  9.000E+00
      25     1     1     2     0     0  7.258270334E+01  1.407613374E+02 -3.582354351E+01  2.049154196E+02  1.250000000E+02  0.00000E+00  9.000E+00
       2     1     1     2   501     0  6.311334836E+01 -4.293306881E+01  1.604655346E+03  1.606469833E+03  2.157918644E-05  0.00000E+00  9.000E+00
#rwgt            1           1   9.6405023472570777E-003           1      261869           0
</event>
<event>
      5   9999  3.79277E-02  2.16252E+01 -1.00000E+00  1.63617E-01
      21    -1     0     0   502   511  0.000000000E+00  0.000000000E+00  1.009564569E+03  1.009564569E+03  0.000000000E+00  0.00000E+00  9.000E+00
      21    -1     0     0   501   502  0.000000000E+00  0.000000000E+00 -2.861475095E+01  2.861475095E+01  0.000000000E+00  0.00000E+00  9.000E+00
      25     1     1     2     0     0 -5.645700325E+01 -2.406254650E+01  2.477610527E+02  2.842128403E+02  1.250000000E+02  0.00000E+00  9.000E+00
      25     1     1     2     0     0  7.299233109E+01  1.012580448E+01  5.258526498E+02  5.455056568E+02  1.250000000E+02  0.00000E+00  9.000E+00
      21     1     1     2   501   511 -1.653532784E+01  1.393674203E+01  2.073361159E+02  2.084608232E+02  0.000000000E+00  0.00000E+00  9.000E+00
#rwgt            1           1  0.11203799295765224                1      262031           0
</event>
<event>
      5   9999  3.79277E-02  8.01586E+01 -1.00000E+00  1.28308E-01
      21    -1     0     0   512   501  0.000000000E+00  0.000000000E+00  1.215152532E+02  1.215152532E+02  0.000000000E+00  0.00000E+00  9.000E+00
      21    -1     0     0   501   502  0.000000000E+00  0.000000000E+00 -9.786109881E+02  9.786109881E+02  0.000000000E+00  0.00000E+00  9.000E+00
      25     1     1     2     0     0  1.764501823E+01 -4.541659782E+00  3.300077406E+01  1.305604244E+02  1.250000000E+02  0.00000E+00  9.000E+00
      25     1     1     2     0     0 -5.871305582E+01 -6.429739281E+01 -8.747950086E+02  8.879598441E+02  1.250000000E+02  0.00000E+00  9.000E+00
      21     1     1     2   512   502  4.106803759E+01  6.883905259E+01 -1.530150040E+01  8.160597275E+01  1.651812370E-06  0.00000E+00  9.000E+00
#rwgt            1           1   4.3302104678078164E-002           1      262215           0
</event>
<event>
      5   9999  3.79277E-02  2.44642E+01 -1.00000E+00  1.59459E-01
      21    -1     0     0   502   511  0.000000000E+00  0.000000000E+00  5.020452476E+02  5.020452476E+02  0.000000000E+00  0.00000E+00  9.000E+00
      21    -1     0     0   501   502  0.000000000E+00  0.000000000E+00 -1.063693899E+02  1.063693899E+02  0.000000000E+00  0.00000E+00  9.000E+00
      25     1     1     2     0     0 -9.550297301E+01  1.017433972E+02  3.539160856E+02  4.004424208E+02  1.250000000E+02  0.00000E+00  9.000E+00
      25     1     1     2     0     0  7.393666141E+01 -9.019385299E+01  1.484592720E+01  1.716011730E+02  1.250000000E+02  0.00000E+00  9.000E+00
      21     1     1     2   501   511  2.156631160E+01 -1.154954420E+01  2.691384497E+01  3.637104368E+01  3.371747881E-07  0.00000E+00  9.000E+00
#rwgt            2          11   1.0990432007375490E-002           1      262365           0
</event>
<event>
      5   9999  3.79277E-02  9.92602E+01 -1.00000E+00  1.23973E-01
      21    -1     0     0   512   501  0.000000000E+00  0.000000000E+00  2.947989635E+02  2.947989635E+02  0.000000000E+00  0.00000E+00  9.000E+00
      21    -1     0     0   501   502  0.000000000E+00  0.000000000E+00 -1.199050769E+03  1.199050769E+03  0.000000000E+00  0.00000E+00  9.000E+00
      25     1     1     2     0     0 -1.335069691E+01 -2.047924201E+02  8.725048861E+01  2.556478520E+02  1.250000000E+02  0.00000E+00  9.000E+00
      25     1     1     2     0     0  8.466152551E+01  1.357463638E+02 -1.083804946E+03  1.102657159E+03  1.250000000E+02  0.00000E+00  9.000E+00
      21     1     1     2   512   502 -7.131082860E+01  6.904605638E+01  9.230265153E+01  1.355447220E+02  1.907348633E-06  0.00000E+00  9.000E+00
#rwgt            1           1  0.16604538095506169                1      262475           0
</event>
<event>
      5   9999  3.79277E-02  1.74501E+02 -1.00000E+00  1.13848E-01
      21    -1     0     0   502   501  0.000000000E+00  0.000000000E+00  7.710114225E+02  7.710114225E+02  0.000000000E+00  0.00000E+00  9.000E+00
      21    -1     0     0   501   511  0.000000000E+00  0.000000000E+00 -6.467850512E+02  6.467850512E+02  0.000000000E+00  0.00000E+00  9.000E+00
      25     1     1     2     0     0 -4.186786526E+02  2.013551975E+02  4.486128339E+02  6.578101583E+02  1.250000000E+02  0.00000E+00  9.000E+00
      25     1     1     2     0     0  4.803651310E+02 -3.812087789E+01 -3.064026134E+02  5.845608795E+02  1.250000000E+02  0.00000E+00  9.000E+00
      21     1     1     2   502   511 -6.168647837E+01 -1.632343196E+02 -1.798384913E+01  1.754254358E+02  2.443063442E-06  0.00000E+00  9.000E+00
#rwgt            1           1   4.3426814629961424E-002           1      262578           0
</event>
<event>
      5   9999  3.79277E-02  2.59654E+01 -1.00000E+00  1.57528E-01
      21    -1     0     0   502   501  0.000000000E+00  0.000000000E+00  4.106415464E+02  4.106415464E+02  0.000000000E+00  0.00000E+00  9.000E+00
      21    -1     0     0   501   512  0.000000000E+00  0.000000000E+00 -2.357708730E+02  2.357708730E+02  0.000000000E+00  0.00000E+00  9.000E+00
      25     1     1     2     0     0  1.121303184E+02  3.176310561E+00  2.694160892E+02  3.174796472E+02  1.250000000E+02  0.00000E+00  9.000E+00
      25     1     1     2     0     0 -1.148423362E+02  2.264705459E+01  5.288740898E+01  1.792309384E+02  1.250000000E+02  0.00000E+00  9.000E+00
      21     1     1     2   502   512  2.712017718E+00 -2.582336515E+01 -1.474328247E+02  1.497018338E+02  3.303624740E-06  0.00000E+00  9.000E+00
#rwgt            1           1   4.7609856126397510E-002           1      262672           0
</event>
<event>
      5   9999  3.79277E-02  2.82267E+02 -1.00000E+00  1.06459E-01
      21    -1     0     0   511   501  0.000000000E+00  0.000000000E+00  2.806590248E+03  2.806590248E+03  0.000000000E+00  0.00000E+00  9.000E+00
      21    -1     0     0   501   502  0.000000000E+00  0.000000000E+00 -8.874716080E+01  8.874716080E+01  0.000000000E+00  0.00000E+00  9.000E+00
      25     1     1     2     0     0  1.440763786E+02 -1.489215319E+02  2.058470218E+02  3.177005224E+02  1.250000000E+02  0.00000E+00  9.000E+00
      25     1     1     2     0     0 -1.234830574E+02 -1.325932751E+02  5.050073011E+02  5.508960121E+02  1.250000000E+02  0.00000E+00  9.000E+00
      21     1     1     2   511   502 -2.059332128E+01  2.815148070E+02  2.006988764E+03  2.026740874E+03  2.157918644E-05  0.00000E+00  9.000E+00
#rwgt            1           1   4.3097920352900103E-002           1      262801           0
</event>
<event>
      5   9999  3.79277E-02  3.18895E+01 -1.00000E+00  1.51220E-01
      21    -1     0     0   502   501  0.000000000E+00  0.000000000E+00  1.719769082E+02  1.719769082E+02  0.000000000E+00  0.00000E+00  9.000E+00
      21    -1     0     0   512   502  0.000000000E+00  0.000000000E+00 -3.786912325E+02  3.786912325E+02  0.000000000E+00  0.00000E+00  9.000E+00
      25     1     1     2     0     0  4.441517974E+01  1.439083808E+02 -3.074757523E+00  1.957467353E+02  1.250000000E+02  0.00000E+00  9.000E+00
      25     1     1     2     0     0 -2.570238832E+01 -1.697303126E+02 -7.949316353E+01  2.267446908E+02  1.250000000E+02  0.00000E+00  9.000E+00
      21     1     1     2   512   501 -1.871279142E+01  2.582193177E+01 -1.241464032E+02  1.281767145E+02  2.697398305E-06  0.00000E+00  9.000E+00
#rwgt            1           1   6.6959982458468750E-002           1      262863           0
</event>
<event>
      5   9999  3.79277E-02  4.17421E+01 -1.00000E+00  1.43701E-01
      21    -1     0     0   502   501  0.000000000E+00  0.000000000E+00  2.410772524E+02  2.410772524E+02  0.000000000E+00  0.00000E+00  9.000E+00
       5    -1     0     0   501     0  0.000000000E+00  0.000000000E+00 -6.726882379E+02  6.726882379E+02  0.000000000E+00  0.00000E+00  9.000E+00
      25     1     1     2     0     0 -6.524669730E+01  1.217380320E+02  1.095454235E+02  2.161075652E+02  1.250000000E+02  0.00000E+00  9.000E+00
      25     1     1     2     0     0  5.908542264E+01 -1.630229204E+02 -7.039737589E+01  2.250518835E+02  1.250000000E+02  0.00000E+00  9.000E+00
       5     1     1     2   502     0  6.161274662E+00  4.128488838E+01 -4.707590330E+02  4.726060415E+02  7.629394531E-06  0.00000E+00  9.000E+00
#rwgt            1           1   3.7214804926156288E-002           1      263047           0
</event>
<event>
      5   9999  3.79277E-02  6.36927E+01 -1.00000E+00  1.33332E-01
      21    -1     0     0   502   501  0.000000000E+00  0.000000000E+00  3.033935881E+01  3.033935881E+01  0.000000000E+00  0.00000E+00  9.000E+00
       2    -1     0     0   501     0  0.000000000E+00  0.000000000E+00 -2.471248003E+03  2.471248003E+03  0.000000000E+00  0.00000E+00  9.000E+00
      25     1     1     2     0     0  1.303903046E+02  5.599957321E+01 -3.968353521E+02  4.395917202E+02  1.250000000E+02  0.00000E+00  9.000E+00
      25     1     1     2     0     0 -1.601006073E+02  3.391826184E-01 -1.698463752E+03  1.710566116E+03  1.250000000E+02  0.00000E+00  9.000E+00
       2     1     1     2   502     0  2.971030275E+01 -5.633875583E+01 -3.456095401E+02  3.514295259E+02  6.607249480E-06  0.00000E+00  9.000E+00
#rwgt            1           1  0.12141974277645071                1      263156           0
</event>
<event>
      5   9999  3.79277E-02  3.91167E+01 -1.00000E+00  1.45444E-01
      21    -1     0     0   502   511  0.000000000E+00  0.000000000E+00  1.409165422E+03  1.409165422E+03  0.000000000E+00  0.00000E+00  9.000E+00
      21    -1     0     0   501   502  0.000000000E+00  0.000000000E+00 -3.226936020E+01  3.226936020E+01  0.000000000E+00  0.00000E+00  9.000E+00
      25     1     1     2     0     0 -7.068160040E+01 -5.135487256E+01  2.165550476E+02  2.648665706E+02  1.250000000E+02  0.00000E+00  9.000E+00
      25     1     1     2     0     0  9.043691234E+01  1.759324597E+01  9.532725702E+02  9.658374349E+02  1.250000000E+02  0.00000E+00  9.000E+00
      21     1     1     2   501   511 -1.975531193E+01  3.376162659E+01  2.070684437E+02  2.107307764E+02  3.814697266E-06  0.00000E+00  9.000E+00
#rwgt            1           1   5.2878243907144934E-002           1      263464           0
</event>
<event>
      5   9999  3.79277E-02  1.96764E+01 -1.00000E+00  1.66956E-01
      21    -1     0     0   512   501  0.000000000E+00  0.000000000E+00  6.078189978E+02  6.078189978E+02  0.000000000E+00  0.00000E+00  9.000E+00
      21    -1     0     0   501   502  0.000000000E+00  0.000000000E+00 -7.018776984E+01  7.018776984E+01  0.000000000E+00  0.00000E+00  9.000E+00
      25     1     1     2     0     0  6.647438719E+01 -1.462242617E+02  2.860881366E+02  3.511008412E+02  1.250000000E+02  0.00000E+00  9.000E+00
      25     1     1     2     0     0 -6.281492965E+01  1.268912013E+02  2.229451379E+02  2.921927905E+02  1.250000000E+02  0.00000E+00  9.000E+00
      21     1     1     2   512   502 -3.659457543E+00  1.933306036E+01  2.859795354E+01  3.471313582E+01  3.371747881E-07  0.00000E+00  9.000E+00
#rwgt            1           1   3.4984277666624569E-002           1      263532           0
</event>
<event>
      5   9999 -3.79277E-02  2.11850E+01 -1.00000E+00  1.64333E-01
      21    -1     0     0   511   501  0.000000000E+00  0.000000000E+00  3.781992495E+02  3.781992495E+02  0.000000000E+00  0.00000E+00  9.000E+00
      21    -1     0     0   501   502  0.000000000E+00  0.000000000E+00 -1.630353489E+02  1.630353489E+02  0.000000000E+00  0.00000E+00  9.000E+00
      25     1     1     2     0     0 -1.207078942E+02 -1.260891252E+02  1.280775639E+02  2.499954511E+02  1.250000000E+02  0.00000E+00  9.000E+00
      25     1     1     2     0     0  9.957491307E+01  1.246057224E+02  1.069752272E+00  2.026521496E+02  1.250000000E+02  0.00000E+00  9.000E+00
      21     1     1     2   511   502  2.113298109E+01  1.483402810E+00  8.601658440E+01  8.858699773E+01  1.348699152E-06  0.00000E+00  9.000E+00
#rwgt            1           1 -0.13900953324664517                1      263733           0
</event>
<event>
      5   9999  3.79277E-02  1.31068E+01 -1.00000E+00  1.83088E-01
      21    -1     0     0   502   501  0.000000000E+00  0.000000000E+00  2.370370414E+02  2.370370414E+02  0.000000000E+00  0.00000E+00  9.000E+00
      21    -1     0     0   512   502  0.000000000E+00  0.000000000E+00 -2.171392965E+02  2.171392965E+02  0.000000000E+00  0.00000E+00  9.000E+00
      25     1     1     2     0     0  5.777647833E+01  1.086621902E+02 -2.471194029E+01  1.771476023E+02  1.250000000E+02  0.00000E+00  9.000E+00
      25     1     1     2     0     0 -7.080301103E+01 -1.072141848E+02  1.100142985E+02  2.103237829E+02  1.250000000E+02  0.00000E+00  9.000E+00
      21     1     1     2   512   501  1.302653270E+01 -1.448005335E+00 -6.540461326E+01  6.670495266E+01  0.000000000E+00  0.00000E+00  9.000E+00
#rwgt            1           1   4.3994321967497731E-002           1      263915           0
</event>
<event>
      5   9999  3.79277E-02  9.57044E+01 -1.00000E+00  1.24692E-01
       2    -1     0     0   502     0  0.000000000E+00  0.000000000E+00  1.698947538E+03  1.698947538E+03  0.000000000E+00  0.00000E+00  9.000E+00
      21    -1     0     0   501   502  0.000000000E+00  0.000000000E+00 -1.037097911E+02  1.037097911E+02  0.000000000E+00  0.00000E+00  9.000E+00
      25     1     1     2     0     0 -9.186400289E+00  1.021622752E+02  3.813403142E+02  4.142064167E+02  1.250000000E+02  0.00000E+00  9.000E+00
      25     1     1     2     0     0  2.847606923E+01 -1.959025146E+02  7.543929944E+01  2.459771730E+02  1.250000000E+02  0.00000E+00  9.000E+00
       2     1     1     2   501     0 -1.928966894E+01  9.374023940E+01  1.138458133E+03  1.142473739E+03  0.000000000E+00  0.00000E+00  9.000E+00
#rwgt            1           1   4.8528761140615627E-002           1      264180           0
</event>
<event>
      5   9999  3.79277E-02  6.50200E+00 -1.00000E+00  2.20186E-01
       2    -1     0     0   502     0  0.000000000E+00  0.000000000E+00  8.983311890E+02  8.983311890E+02  0.000000000E+00  0.00000E+00  9.000E+00
      21    -1     0     0   501   502  0.000000000E+00  0.000000000E+00 -1.632007186E+02  1.632007186E+02  0.000000000E+00  0.00000E+00  9.000E+00
      25     1     1     2     0     0  1.176916339E+02  1.253497094E+01 -7.797026774E+01  1.889783290E+02  1.250000000E+02  0.00000E+00  9.000E+00
      25     1     1     2     0     0 -1.220842058E+02 -7.741092313E+00  2.277063087E+02  2.871230413E+02  1.250000000E+02  0.00000E+00  9.000E+00
       2     1     1     2   501     0  4.392571919E+00 -4.793878626E+00  5.853944295E+02  5.854305373E+02  7.629394531E-06  0.00000E+00  9.000E+00
#rwgt            1           1   4.3472304586608786E-002           1      264357           0
</event>
<event>
      5   9999 -3.79277E-02  3.42667E+01 -1.00000E+00  1.49134E-01
       2    -1     0     0   502     0  0.000000000E+00  0.000000000E+00  5.989263458E+02  5.989263458E+02  0.000000000E+00  0.00000E+00  9.000E+00
      21    -1     0     0   501   502  0.000000000E+00  0.000000000E+00 -3.300439568E+02  3.300439568E+02  0.000000000E+00  0.00000E+00  9.000E+00
      25     1     1     2     0     0  2.704239001E+02  1.866918284E+02 -3.089121634E+00  3.515927576E+02  1.250000000E+02  0.00000E+00  9.000E+00
      25     1     1     2     0     0 -2.885140554E+02 -2.157942892E+02  8.950176658E+01  3.917181405E+02  1.250000000E+02  0.00000E+00  9.000E+00
       2     1     1     2   501     0  1.809015524E+01  2.910246081E+01  1.824697440E+02  1.856594044E+02  0.000000000E+00  0.00000E+00  9.000E+00
#rwgt            1           1  -7.9651355570214299E-002           1      264799           0
</event>
<event>
      5   9999  3.79277E-02  2.19127E+01 -1.00000E+00  1.63161E-01
      21    -1     0     0   502   501  0.000000000E+00  0.000000000E+00  1.420152349E+02  1.420152349E+02  0.000000000E+00  0.00000E+00  9.000E+00
      21    -1     0     0   501   511  0.000000000E+00  0.000000000E+00 -1.061413070E+03  1.061413070E+03  0.000000000E+00  0.00000E+00  9.000E+00
      25     1     1     2     0     0 -1.600084272E+02 -4.736172395E+01 -9.239404559E+02  9.471730548E+02  1.250000000E+02  0.00000E+00  9.000E+00
      25     1     1     2     0     0  1.648037304E+02  2.598013541E+01  4.218766481E+01  2.126970523E+02  1.250000000E+02  0.00000E+00  9.000E+00
      21     1     1     2   502   511 -4.795303121E+00  2.138158854E+01 -3.764504402E+01  4.355819785E+01  6.743495762E-07  0.00000E+00  9.000E+00
#rwgt            1           1   4.3357501117027984E-002           1      265021           0
</event>
<event>
      5   9999  3.79277E-02  1.55923E+02 -1.00000E+00  1.15731E-01
      21    -1     0     0   512   501  0.000000000E+00  0.000000000E+00  9.341001994E+02  9.341001994E+02  0.000000000E+00  0.00000E+00  9.000E+00
      21    -1     0     0   501   502  0.000000000E+00  0.000000000E+00 -3.005591670E+02  3.005591670E+02  0.000000000E+00  0.00000E+00  9.000E+00
      25     1     1     2     0     0  4.702574799E+01 -2.647760356E+02 -3.855777810E+01  2.990476087E+02  1.250000000E+02  0.00000E+00  9.000E+00
      25     1     1     2     0     0  9.524498922E+01  2.009703018E+02  9.908027140E+00  2.553112594E+02  1.250000000E+02  0.00000E+00  9.000E+00
      21     1     1     2   512   502 -1.422707372E+02  6.380573380E+01  6.621907833E+02  6.803004982E+02  7.629394531E-06  0.00000E+00  9.000E+00
#rwgt            1           1   2.6847824984912363E-002           1      265201           0
</event>
<event>
      5   9999  3.79277E-02  1.65306E+01 -1.00000E+00  1.73498E-01
      21    -1     0     0   502   501  0.000000000E+00  0.000000000E+00  2.320633063E+02  2.320633063E+02  0.000000000E+00  0.00000E+00  9.000E+00
      21    -1     0     0   501   511  0.000000000E+00  0.000000000E+00 -1.939974920E+02  1.939974920E+02  0.000000000E+00  0.00000E+00  9.000E+00
      25     1     1     2     0     0  1.219840110E+02  9.590500324E+01  2.480301965E+01  2.007935715E+02  1.250000000E+02  0.00000E+00  9.000E+00
      25     1     1     2     0     0 -1.166260589E+02 -8.026680809E+01  4.073367870E+01  1.932061869E+02  1.250000000E+02  0.00000E+00  9.000E+00
      21     1     1     2   502   511 -5.357952134E+00 -1.563819514E+01 -2.747088412E+01  3.206103979E+01  3.371747881E-07  0.00000E+00  9.000E+00
#rwgt            1           1   4.0975760330992594E-002           1      265317           0
</event>
<event>
      5   9999  3.79277E-02  4.28487E+02 -1.00000E+00  1.00794E-01
      21    -1     0     0   512   501  0.000000000E+00  0.000000000E+00  3.833609681E+02  3.833609681E+02  0.000000000E+00  0.00000E+00  9.000E+00
      21    -1     0     0   501   502  0.000000000E+00  0.000000000E+00 -1.355730801E+03  1.355730801E+03  0.000000000E+00  0.00000E+00  9.000E+00
      25     1     1     2     0     0  3.210525615E+02 -3.962943791E+02 -7.762017219E+02  9.371435830E+02  1.250000000E+02  0.00000E+00  9.000E+00
      25     1     1     2     0     0 -1.931333658E+02 -1.265251538E+01 -2.828160746E+02  3.647883156E+02  1.250000000E+02  0.00000E+00  9.000E+00
      21     1     1     2   512   502 -1.279191957E+02  4.089468945E+02  8.664796331E+01  4.371598708E+02  6.325959759E-06  0.00000E+00  9.000E+00
#rwgt            1           1   3.0049054186417026E-002           1      265549           0
</event>
<event>
      5   9999  3.79277E-02  7.73408E+01 -1.00000E+00  1.29064E-01
      21    -1     0     0   502   501  0.000000000E+00  0.000000000E+00  5.637097810E+02  5.637097810E+02  0.000000000E+00  0.00000E+00  9.000E+00
      21    -1     0     0   511   502  0.000000000E+00  0.000000000E+00 -2.674672645E+02  2.674672645E+02  0.000000000E+00  0.00000E+00  9.000E+00
      25     1     1     2     0     0  7.723406709E+01 -1.565446061E+02 -2.029091853E+01  2.156572192E+02  1.250000000E+02  0.00000E+00  9.000E+00
      25     1     1     2     0     0 -7.891534207E+01  7.922206288E+01  4.394099126E+02  4.703294991E+02  1.250000000E+02  0.00000E+00  9.000E+00
      21     1     1     2   511   501  1.681274981E+00  7.732254325E+01 -1.228764776E+02  1.451903272E+02  0.000000000E+00  0.00000E+00  9.000E+00
#rwgt            1           1   3.2917676118763409E-002           1      265732           0
</event>
<event>
      5   9999  3.79277E-02  1.26495E+02 -1.00000E+00  1.19405E-01
      21    -1     0     0   512   501  0.000000000E+00  0.000000000E+00  8.718423597E+02  8.718423597E+02  0.000000000E+00  0.00000E+00  9.000E+00
      21    -1     0     0   501   502  0.000000000E+00  0.000000000E+00 -1.741032036E+02  1.741032036E+02  0.000000000E+00  0.00000E+00  9.000E+00
      25     1     1     2     0     0  1.555367573E+02 -2.680065568E+02  1.274505323E+02  3.576140875E+02  1.250000000E+02  0.00000E+00  9.000E+00
      25     1     1     2     0     0 -1.495142736E+02  1.416552346E+02  2.665052407E+02  3.592642020E+02  1.250000000E+02  0.00000E+00  9.000E+00
      21     1     1     2   512   502 -6.022483751E+00  1.263513222E+02  3.037833831E+02  3.290672739E+02  5.394796609E-06  0.00000E+00  9.000E+00
#rwgt            1           1   3.0092782071753119E-002           1      265907           0
</event>
<event>
      5   9999  3.79277E-02  2.57189E+01 -1.00000E+00  1.57834E-01
      21    -1     0     0   502   501  0.000000000E+00  0.000000000E+00  9.183780735E+01  9.183780735E+01  0.000000000E+00  0.00000E+00  9.000E+00
      21    -1     0     0   501   511  0.000000000E+00  0.000000000E+00 -8.443223439E+02  8.443223439E+02  0.000000000E+00  0.00000E+00  9.000E+00
      25     1     1     2     0     0  2.230915557E+02  1.031080620E+02 -3.778481509E+02  4.677556411E+02  1.250000000E+02  0.00000E+00  9.000E+00
      25     1     1     2     0     0 -1.973731717E+02 -1.032734548E+02 -3.394803769E+02  4.248452679E+02  1.250000000E+02  0.00000E+00  9.000E+00
      21     1     1     2   502   511 -2.571838402E+01  1.653927913E-01 -3.515600882E+01  4.355924227E+01  0.000000000E+00  0.00000E+00  9.000E+00
#rwgt            1           1   4.3003340971875789E-002           1      266009           0
</event>
<event>
      5   9999  3.79277E-02  2.15352E+01 -1.00000E+00  1.63762E-01
      21    -1     0     0   502   501  0.000000000E+00  0.000000000E+00  4.137977461E+01  4.137977461E+01  0.000000000E+00  0.00000E+00  9.000E+00
      21    -1     0     0   512   502  0.000000000E+00  0.000000000E+00 -9.530937111E+02  9.530937111E+02  0.000000000E+00  0.00000E+00  9.000E+00
      25     1     1     2     0     0  8.782338886E+01  4.611969423E+01 -6.256482855E+02  6.456785199E+02  1.250000000E+02  0.00000E+00  9.000E+00
      25     1     1     2     0     0 -1.083655545E+02 -5.258371850E+01 -2.259101471E+02  2.849009221E+02  1.250000000E+02  0.00000E+00  9.000E+00
      21     1     1     2   512   501  2.054216565E+01  6.464024267E+00 -6.015550385E+01  6.389404372E+01  9.536743164E-07  0.00000E+00  9.000E+00
#rwgt            1           1   5.3700497139555242E-002           1      266153           0
</event>
<event>
      5   9999  3.79277E-02  4.14934E+01 -1.00000E+00  1.43860E-01
      21    -1     0     0   502   511  0.000000000E+00  0.000000000E+00  3.091574669E+02  3.091574669E+02  0.000000000E+00  0.00000E+00  9.000E+00
      21    -1     0     0   501   502  0.000000000E+00  0.000000000E+00 -5.027659094E+02  5.027659094E+02  0.000000000E+00  0.00000E+00  9.000E+00
      25     1     1     2     0     0 -5.976761167E+01 -1.942799564E+02 -1.658034522E+02  2.905729747E+02  1.250000000E+02  0.00000E+00  9.000E+00
      25     1     1     2     0     0  8.210883514E+01  1.593146816E+02 -2.286445089E+02  3.162694105E+02  1.250000000E+02  0.00000E+00  9.000E+00
      21     1     1     2   501   511 -2.234122347E+01  3.496527475E+01  2.008395185E+02  2.050809911E+02  5.394796609E-06  0.00000E+00  9.000E+00
#rwgt            1           1   3.8799899591310992E-002           1      266356           0
</event>
<event>
      5   9999  3.79277E-02  1.57259E+01 -1.00000E+00  1.75472E-01
      21    -1     0     0   502   512  0.000000000E+00  0.000000000E+00  7.755699639E+02  7.755699639E+02  0.000000000E+00  0.00000E+00  9.000E+00
      21    -1     0     0   501   502  0.000000000E+00  0.000000000E+00 -1.081934964E+02  1.081934964E+02  0.000000000E+00  0.00000E+00  9.000E+00
      25     1     1     2     0     0 -1.986684061E+02  7.456655433E+01  2.746407328E+02  3.688927198E+02  1.250000000E+02  0.00000E+00  9.000E+00
      25     1     1     2     0     0  1.974073857E+02 -9.024183989E+01  1.974244867E+02  3.189274111E+02  1.250000000E+02  0.00000E+00  9.000E+00
      21     1     1     2   501   512  1.261020430E+00  1.567528556E+01  1.953112479E+02  1.959433293E+02  4.672030912E-06  0.00000E+00  9.000E+00
#rwgt            1           1   3.7378731660243802E-002           1      266508           0
</event>
<event>
      5   9999  3.79277E-02  1.55583E+01 -1.00000E+00  1.75901E-01
      21    -1     0     0   502   501  0.000000000E+00  0.000000000E+00  1.352238966E+02  1.352238966E+02  0.000000000E+00  0.00000E+00  9.000E+00
      21    -1     0     0   511   502  0.000000000E+00  0.000000000E+00 -6.646846597E+02  6.646846597E+02  0.000000000E+00  0.00000E+00  9.000E+00
      25     1     1     2     0     0  1.891453254E+02 -1.405859113E+00 -1.120140602E+02  2.528835310E+02  1.250000000E+02  0.00000E+00  9.000E+00
      25     1     1     2     0     0 -1.887482800E+02 -1.414737951E+01 -1.346146264E+02  2.637653487E+02  1.250000000E+02  0.00000E+00  9.000E+00
      21     1     1     2   511   501 -3.970454188E-01  1.555323863E+01 -2.828320766E+02  2.832596766E+02  5.394796609E-06  0.00000E+00  9.000E+00
#rwgt            1           1  0.12270896644330097                1      266712           0
</event>
<event>
      5   9999 -3.79277E-02  9.45920E+01 -1.00000E+00  1.24924E-01
      21    -1     0     0   502   501  0.000000000E+00  0.000000000E+00  1.404601005E+02  1.404601005E+02  0.000000000E+00  0.00000E+00  9.000E+00
      21    -1     0     0   501   512  0.000000000E+00  0.000000000E+00 -4.840793070E+02  4.840793070E+02  0.000000000E+00  0.00000E+00  9.000E+00
      25     1     1     2     0     0 -6.364554620E+01  1.296184725E+02 -7.115633364E+01  2.038134632E+02  1.250000000E+02  0.00000E+00  9.000E+00
      25     1     1     2     0     0  1.102569728E+02 -4.730795789E+01 -5.211060915E+01  1.809286006E+02  1.250000000E+02  0.00000E+00  9.000E+00
      21     1     1     2   502   512 -4.661142657E+01 -8.231051463E+01 -2.203522637E+02  2.397973436E+02  2.697398305E-06  0.00000E+00  9.000E+00
#rwgt            1           1  -8.7800461396971095E-003           1      266911           0
</event>
<event>
      5   9999  3.79277E-02  2.44478E+01 -1.00000E+00  1.59481E-01
      21    -1     0     0   502   511  0.000000000E+00  0.000000000E+00  1.367000773E+02  1.367000773E+02  0.000000000E+00  0.00000E+00  9.000E+00
      21    -1     0     0   501   502  0.000000000E+00  0.000000000E+00 -5.201173146E+02  5.201173146E+02  0.000000000E+00  0.00000E+00  9.000E+00
      25     1     1     2     0     0  1.309782249E+02  1.138569484E+02 -3.712091215E+02  4.284155833E+02  1.250000000E+02  0.00000E+00  9.000E+00
      25     1     1     2     0     0 -1.144660587E+02 -9.582798680E+01 -3.152730985E+01  1.972421175E+02  1.250000000E+02  0.00000E+00  9.000E+00
      21     1     1     2   501   511 -1.651216621E+01 -1.802896161E+01  1.931919404E+01  3.115969108E+01  4.768371582E-07  0.00000E+00  9.000E+00
#rwgt            1           1   4.2216867279787955E-002           1      266982           0
</event>
<event>
      5   9999  3.79277E-02  2.08388E+02 -1.00000E+00  1.11002E-01
      21    -1     0     0   512   501  0.000000000E+00  0.000000000E+00  9.672623864E+02  9.672623864E+02  0.000000000E+00  0.00000E+00  9.000E+00
      21    -1     0     0   501   502  0.000000000E+00  0.000000000E+00 -2.528616828E+02  2.528616828E+02  0.000000000E+00  0.00000E+00  9.000E+00
      25     1     1     2     0     0  5.729035782E+01  1.832127867E+02 -8.445673772E+01  2.441455526E+02  1.250000000E+02  0.00000E+00  9.000E+00
      25     1     1     2     0     0 -2.642479711E+02 -1.588360883E+02  3.601570114E+02  4.902998736E+02  1.250000000E+02  0.00000E+00  9.000E+00
      21     1     1     2   512   502  2.069576133E+02 -2.437669834E+01  4.387004299E+02  4.856786431E+02  0.000000000E+00  0.00000E+00  9.000E+00
#rwgt            1           1  0.10791119424431651                1      267156           0
</event>
<event>
      5   9999  3.79277E-02  7.11133E+00 -1.00000E+00  2.14590E-01
      21    -1     0     0   511   501  0.000000000E+00  0.000000000E+00  7.339305965E+02  7.339305965E+02  0.000000000E+00  0.00000E+00  9.000E+00
      21    -1     0     0   501   502  0.000000000E+00  0.000000000E+00 -1.057591580E+02  1.057591580E+02  0.000000000E+00  0.00000E+00  9.000E+00
      25     1     1     2     0     0  1.609437864E+01  1.959635582E+01  4.207092022E+02  4.396183334E+02  1.250000000E+02  0.00000E+00  9.000E+00
      25     1     1     2     0     0 -2.295079286E+01 -1.770939459E+01 -5.349171420E+01  1.390205921E+02  1.250000000E+02  0.00000E+00  9.000E+00
      21     1     1     2   511   502  6.856414218E+00 -1.886961232E+00  2.609539505E+02  2.610508290E+02  3.814697266E-06  0.00000E+00  9.000E+00
#rwgt            1           1   2.9701973878044088E-002           1      267277           0
</event>
<event>
      5   9999  3.79277E-02  4.67603E+01 -1.00000E+00  1.40756E-01
      21    -1     0     0   512   501  0.000000000E+00  0.000000000E+00  8.135832719E+01  8.135832719E+01  0.000000000E+00  0.00000E+00  9.000E+00
      21    -1     0     0   501   502  0.000000000E+00  0.000000000E+00 -1.117757289E+03  1.117757289E+03  0.000000000E+00  0.00000E+00  9.000E+00
      25     1     1     2     0     0  1.817189128E+02  7.034486738E+01 -4.553484904E+02  5.108203317E+02  1.250000000E+02  0.00000E+00  9.000E+00
      25     1     1     2     0     0 -2.209528321E+02 -9.578546292E+01 -5.813312853E+02  6.415341551E+02  1.250000000E+02  0.00000E+00  9.000E+00
      21     1     1     2   512   502  3.923391928E+01  2.544059554E+01  2.808142711E-01  4.676112895E+01  8.575695944E-07  0.00000E+00  9.000E+00
#rwgt            1           1   3.3997804514639837E-002           1      267549           0
</event>
<event>
      5   9999  3.79277E-02  6.30044E+01 -1.00000E+00  1.33579E-01
      21    -1     0     0   511   501  0.000000000E+00  0.000000000E+00  4.619045421E+01  4.619045421E+01  0.000000000E+00  0.00000E+00  9.000E+00
      21    -1     0     0   501   502  0.000000000E+00  0.000000000E+00 -1.474317612E+03  1.474317612E+03  0.000000000E+00  0.00000E+00  9.000E+00
      25     1     1     2     0     0  1.428675483E+02 -1.390342424E+02 -6.798089416E+02  7.193794923E+02  1.250000000E+02  0.00000E+00  9.000E+00
      25     1     1     2     0     0 -8.458069333E+01  1.629548773E+02 -6.085343297E+02  6.478018340E+02  1.250000000E+02  0.00000E+00  9.000E+00
      21     1     1     2   511   502 -5.828685492E+01 -2.392063497E+01 -1.397838864E+02  1.533267397E+02  1.907348633E-06  0.00000E+00  9.000E+00
#rwgt            1           1   4.2448945451240602E-002           1      267765           0
</event>
<event>
      5   9999  3.79277E-02  6.36435E+01 -1.00000E+00  1.33349E-01
      21    -1     0     0   502   512  0.000000000E+00  0.000000000E+00  1.161044778E+02  1.161044778E+02  0.000000000E+00  0.00000E+00  9.000E+00
      21    -1     0     0   501   502  0.000000000E+00  0.000000000E+00 -7.418311614E+02  7.418311614E+02  0.000000000E+00  0.00000E+00  9.000E+00
      25     1     1     2     0     0 -1.572799500E+02 -2.070947888E+01 -9.405119281E+01  2.227924865E+02  1.250000000E+02  0.00000E+00  9.000E+00
      25     1     1     2     0     0  1.682121452E+02  8.340707356E+01 -5.246882814E+02  5.711172020E+02  1.250000000E+02  0.00000E+00  9.000E+00
      21     1     1     2   501   512 -1.093219526E+01 -6.269759468E+01 -6.987209316E+00  6.402595072E+01  1.455134823E-06  0.00000E+00  9.000E+00
#rwgt            1           1   2.5521299153665484E-002           1      267852           0
</event>
<event>
      5   9999  3.79277E-02  6.33452E+01 -1.00000E+00  1.33456E-01
      21    -1     0     0   502   501  0.000000000E+00  0.000000000E+00  7.290532963E+02  7.290532963E+02  0.000000000E+00  0.00000E+00  9.000E+00
      21    -1     0     0   501   511  0.000000000E+00  0.000000000E+00 -1.585172718E+02  1.585172718E+02  0.000000000E+00  0.00000E+00  9.000E+00
      25     1     1     2     0     0 -2.656660961E+01 -4.028902825E+01  6.551730602E+02  6.687344237E+02  1.250000000E+02  0.00000E+00  9.000E+00
      25     1     1     2     0     0 -3.622668216E+01  3.194561955E+01 -3.539462081E+01  1.386025768E+02  1.250000000E+02  0.00000E+00  9.000E+00
      21     1     1     2   502   511  6.279329176E+01  8.343408698E+00 -4.924241488E+01  8.023356768E+01  1.168007728E-06  0.00000E+00  9.000E+00
#rwgt            1           1   5.0334231043385684E-002           1      268101           0
</event>
<event>
      5   9999  3.79277E-02  1.09149E+02 -1.00000E+00  1.22142E-01
      21    -1     0     0   502   501  0.000000000E+00  0.000000000E+00  9.049340305E+02  9.049340305E+02  0.000000000E+00  0.00000E+00  9.000E+00
      21    -1     0     0   501   512  0.000000000E+00  0.000000000E+00 -1.689858781E+02  1.689858781E+02  0.000000000E+00  0.00000E+00  9.000E+00
      25     1     1     2     0     0 -2.228511385E+01  3.554498229E+01  6.556389132E+01  1.472538485E+02  1.250000000E+02  0.00000E+00  9.000E+00
      25     1     1     2     0     0 -6.477157296E+01  3.029347700E+01  7.673017128E+02  7.806983860E+02  1.250000000E+02  0.00000E+00  9.000E+00
      21     1     1     2   502   512  8.705668681E+01 -6.583845929E+01 -9.691745172E+01  1.459676741E+02  0.000000000E+00  0.00000E+00  9.000E+00
#rwgt            1           1   3.7087672292353262E-002           1      268220           0
</event>
<event>
      5   9999  3.79277E-02  2.33292E+01 -1.00000E+00  1.61034E-01
      21    -1     0     0   502   501  0.000000000E+00  0.000000000E+00  1.046573599E+02  1.046573599E+02  0.000000000E+00  0.00000E+00  9.000E+00
      21    -1     0     0   511   502  0.000000000E+00  0.000000000E+00 -5.005497951E+02  5.005497951E+02  0.000000000E+00  0.00000E+00  9.000E+00
      25     1     1     2     0     0  1.586487298E+02 -5.202322564E+01 -9.303973120E+01  2.283795680E+02  1.250000000E+02  0.00000E+00  9.000E+00
      25     1     1     2     0     0 -1.511240439E+02  2.994087451E+01 -2.507688632E+02  3.197576509E+02  1.250000000E+02  0.00000E+00  9.000E+00
      21     1     1     2   511   501 -7.524685949E+00  2.208235113E+01 -5.208384085E+01  5.706993611E+01  6.743495762E-07  0.00000E+00  9.000E+00
#rwgt            1           1   2.7281404658497498E-002           1      268314           0
</event>
<event>
      5   9999  3.79277E-02  1.10953E+01 -1.00000E+00  1.90680E-01
      21    -1     0     0   502   501  0.000000000E+00  0.000000000E+00  4.991435930E+02  4.991435930E+02  0.000000000E+00  0.00000E+00  9.000E+00
      21    -1     0     0   501   512  0.000000000E+00  0.000000000E+00 -2.275399891E+02  2.275399891E+02  0.000000000E+00  0.00000E+00  9.000E+00
      25     1     1     2     0     0 -4.719301676E+01 -4.256798498E+01  4.147151061E+01  1.462330345E+02  1.250000000E+02  0.00000E+00  9.000E+00
      25     1     1     2     0     0  4.926794839E+01  5.346750684E+01  3.921967907E+02  4.180064924E+02  1.250000000E+02  0.00000E+00  9.000E+00
      21     1     1     2   502   512 -2.074931626E+00 -1.089952186E+01 -1.620646975E+02  1.624440552E+02  1.907348633E-06  0.00000E+00  9.000E+00
#rwgt            1           1   4.6480649915789839E-002           1      268489           0
</event>
<event>
      5   9999  3.79277E-02  1.13328E+02 -1.00000E+00  1.21432E-01
      21    -1     0     0   502   511  0.000000000E+00  0.000000000E+00  3.701869053E+01  3.701869053E+01  0.000000000E+00  0.00000E+00  9.000E+00
      21    -1     0     0   501   502  0.000000000E+00  0.000000000E+00 -1.240378136E+03  1.240378136E+03  0.000000000E+00  0.00000E+00  9.000E+00
      25     1     1     2     0     0  5.927695910E+01  5.101117739E+01 -3.297757911E+02  3.612381078E+02  1.250000000E+02  0.00000E+00  9.000E+00
      25     1     1     2     0     0  4.847497470E+01 -8.612077251E+01 -5.790372253E+02  6.005628351E+02  1.250000000E+02  0.00000E+00  9.000E+00
      21     1     1     2   501   511 -1.077519338E+02  3.510959513E+01 -2.945464291E+02  3.155958837E+02  5.394796609E-06  0.00000E+00  9.000E+00
#rwgt            1           1   8.6562424992596684E-002           1      268696           0
</event>
<event>
      5   9999  3.79277E-02  1.89059E+01 -1.00000E+00  1.68410E-01
      21    -1     0     0   502   512  0.000000000E+00  0.000000000E+00  1.343331359E+02  1.343331359E+02  0.000000000E+00  0.00000E+00  9.000E+00
      21    -1     0     0   501   502  0.000000000E+00  0.000000000E+00 -9.995151820E+02  9.995151820E+02  0.000000000E+00  0.00000E+00  9.000E+00
      25     1     1     2     0     0 -2.464383089E+01  1.716497932E+02 -7.091300473E+02  7.406493056E+02  1.250000000E+02  0.00000E+00  9.000E+00
      25     1     1     2     0     0  2.470305144E+01 -1.905556296E+02 -2.253017084E+02  3.214149165E+02  1.250000000E+02  0.00000E+00  9.000E+00
      21     1     1     2   501   512 -5.922054811E-02  1.890583639E+01  6.924970947E+01  7.178409586E+01  0.000000000E+00  0.00000E+00  9.000E+00
#rwgt            1           1   4.2524367853582642E-002           1      268879           0
</event>
<event>
      5   9999  3.79277E-02  7.30968E+01 -1.00000E+00  1.30276E-01
      21    -1     0     0   502   501  0.000000000E+00  0.000000000E+00  2.249926962E+03  2.249926962E+03  0.000000000E+00  0.00000E+00  9.000E+00
      21    -1     0     0   501   511  0.000000000E+00  0.000000000E+00 -2.846359166E+01  2.846359166E+01  0.000000000E+00  0.00000E+00  9.000E+00
      25     1     1     2     0     0  7.658967787E+01 -1.301164638E+02  1.386060947E+03  1.399852214E+03  1.250000000E+02  0.00000E+00  9.000E+00
      25     1     1     2     0     0 -7.356846748E+00  1.535677560E+02  5.821456288E+02  6.149436658E+02  1.250000000E+02  0.00000E+00  9.000E+00
      21     1     1     2   502   511 -6.923283113E+01 -2.345129226E+01  2.532567940E+02  2.635946731E+02  2.697398305E-06  0.00000E+00  9.000E+00
#rwgt            1           1  0.11530822419591520                1      269188           0
</event>
<event>
      5   9999  3.79277E-02  9.80501E+01 -1.00000E+00  1.24214E-01
      21    -1     0     0   502   512  0.000000000E+00  0.000000000E+00  1.525827269E+03  1.525827269E+03  0.000000000E+00  0.00000E+00  9.000E+00
      21    -1     0     0   501   502  0.000000000E+00  0.000000000E+00 -4.621947171E+01  4.621947171E+01  0.000000000E+00  0.00000E+00  9.000E+00
      25     1     1     2     0     0  1.804912618E+02 -3.381053544E+01  7.407796245E+02  7.733690580E+02  1.250000000E+02  0.00000E+00  9.000E+00
      25     1     1     2     0     0 -8.633935259E+01  6.438162287E+00  2.012722367E+02  2.522527443E+02  1.250000000E+02  0.00000E+00  9.000E+00
      21     1     1     2   501   512 -9.415190925E+01  2.737237315E+01  5.375559360E+02  5.464249382E+02  0.000000000E+00  0.00000E+00  9.000E+00
#rwgt            1           1   2.5641566498619046E-002           1      269356           0
</event>
<event>
      5   9999  3.79277E-02  2.68267E+01 -1.00000E+00  1.56490E-01
      21    -1     0     0   502   511  0.000000000E+00  0.000000000E+00  1.542686911E+02  1.542686911E+02  0.000000000E+00  0.00000E+00  9.000E+00
      21    -1     0     0   501   502  0.000000000E+00  0.000000000E+00 -3.679756274E+02  3.679756274E+02  0.000000000E+00  0.00000E+00  9.000E+00
      25     1     1     2     0     0 -5.516218215E+01 -4.342598396E+01  1.076477997E+01  1.437691306E+02  1.250000000E+02  0.00000E+00  9.000E+00
      25     1     1     2     0     0  8.149735166E+01  4.853787753E+01 -2.776442319E+02  3.189185843E+02  1.250000000E+02  0.00000E+00  9.000E+00
      21     1     1     2   501   511 -2.633516951E+01 -5.111893571E+00  5.317251565E+01  5.955660357E+01  1.348699152E-06  0.00000E+00  9.000E+00
#rwgt            1           1   4.3597121887427023E-002           1      269546           0
</event>
<event>
      5   9999  3.79277E-02  1.94056E+02 -1.00000E+00  1.12127E-01
      21    -1     0     0   502   512  0.000000000E+00  0.000000000E+00  1.907846404E+02  1.907846404E+02  0.000000000E+00  0.00000E+00  9.000E+00
      21    -1     0     0   501   502  0.000000000E+00  0.000000000E+00 -7.202002215E+02  7.202002215E+02  0.000000000E+00  0.00000E+00  9.000E+00
      25     1     1     2     0     0  1.122863634E+02 -2.135798194E+02 -1.889378272E+02  3.309789558E+02  1.250000000E+02  0.00000E+00  9.000E+00
      25     1     1     2     0     0 -4.592190579E+01  3.122419610E+01 -3.598660319E+02  3.849835487E+02  1.250000000E+02  0.00000E+00  9.000E+00
      21     1     1     2   501   512 -6.636445764E+01  1.823556233E+02  1.938827798E+01  1.950223574E+02  8.920806376E-07  0.00000E+00  9.000E+00
#rwgt            1           1   4.1326890406661120E-002           1      269697           0
</event>
<event>
      5   9999  3.79277E-02  2.68447E+01 -1.00000E+00  1.56469E-01
      21    -1     0     0   502   501  0.000000000E+00  0.000000000E+00  1.386653451E+03  1.386653451E+03  0.000000000E+00  0.00000E+00  9.000E+00
      21    -1     0     0   511   502  0.000000000E+00  0.000000000E+00 -3.405715960E+01  3.405715960E+01  0.000000000E+00  0.00000E+00  9.000E+00
      25     1     1     2     0     0  6.700198399E+01  1.328221810E+02  5.930856430E+02  6.241046207E+02  1.250000000E+02  0.00000E+00  9.000E+00
      25     1     1     2     0     0 -5.787908150E+01 -1.075751408E+02  7.466612934E+02  7.668444992E+02  1.250000000E+02  0.00000E+00  9.000E+00
      21     1     1     2   511   501 -9.122902487E+00 -2.524704017E+01  1.284935454E+01  2.976149020E+01  6.307962682E-07  0.00000E+00  9.000E+00
#rwgt            1           1   5.9139336820174061E-002           1      269763           0
</event>
<event>
      5   9999  3.79277E-02  3.86451E+01 -1.00000E+00  1.45774E-01
      21    -1     0     0   502   512  0.000000000E+00  0.000000000E+00  1.580368114E+02  1.580368114E+02  0.000000000E+00  0.00000E+00  9.000E+00
      21    -1     0     0   501   502  0.000000000E+00  0.000000000E+00 -3.241358616E+02  3.241358616E+02  0.000000000E+00  0.00000E+00  9.000E+00
      25     1     1     2     0     0  7.324997352E+01 -4.468901650E+00 -2.448847467E+02  2.845682148E+02  1.250000000E+02  0.00000E+00  9.000E+00
      25     1     1     2     0     0 -5.259437235E+01  3.713062657E+01  7.332279987E+01  1.585751696E+02  1.250000000E+02  0.00000E+00  9.000E+00
      21     1     1     2   501   512 -2.065560117E+01 -3.266172492E+01  5.462896608E+00  3.902928867E+01  4.298152060E-07  0.00000E+00  9.000E+00
#rwgt            1           1   3.9914117622473835E-002           1      269983           0
</event>
<event>
      5   9999  3.79277E-02  1.38284E+02 -1.00000E+00  1.17811E-01
      21    -1     0     0   502   501  0.000000000E+00  0.000000000E+00  2.475727772E+02  2.475727772E+02  0.000000000E+00  0.00000E+00  9.000E+00
      21    -1     0     0   511   502  0.000000000E+00  0.000000000E+00 -1.318408413E+03  1.318408413E+03  0.000000000E+00  0.00000E+00  9.000E+00
      25     1     1     2     0     0  2.914764857E+02  9.895907298E+01  2.845969078E+01  3.334462383E+02  1.250000000E+02  0.00000E+00  9.000E+00
      25     1     1     2     0     0 -3.863971125E+02  1.601616000E+00 -6.915629130E+02  8.019909952E+02  1.250000000E+02  0.00000E+00  9.000E+00
      21     1     1     2   511   501  9.492062679E+01 -1.005606890E+02 -4.077324132E+02  4.305439563E+02  5.394796609E-06  0.00000E+00  9.000E+00
#rwgt            1           1  0.17033562770660743                1      270087           0
</event>
<event>
      5   9999  3.79277E-02  4.23109E+01 -1.00000E+00  1.43343E-01
      21    -1     0     0   502   501  0.000000000E+00  0.000000000E+00  3.025332125E+02  3.025332125E+02  0.000000000E+00  0.00000E+00  9.000E+00
      21    -1     0     0   501   512  0.000000000E+00  0.000000000E+00 -4.281515833E+02  4.281515833E+02  0.000000000E+00  0.00000E+00  9.000E+00
      25     1     1     2     0     0 -2.703167566E+02 -1.210091033E+01  1.332916472E+02  3.265107106E+02  1.250000000E+02  0.00000E+00  9.000E+00
      25     1     1     2     0     0  2.353052126E+02 -1.165626661E+01 -2.096547989E+02  3.392411330E+02  1.250000000E+02  0.00000E+00  9.000E+00
      21     1     1     2   502   512  3.501154393E+01  2.375717694E+01 -4.925521909E+01  6.493295213E+01  9.536743164E-07  0.00000E+00  9.000E+00
#rwgt            1           1   3.9571810992016607E-002           1      270304           0
</event>
<event>
      5   9999  3.79277E-02  4.20665E+01 -1.00000E+00  1.43496E-01
      21    -1     0     0   502   501  0.000000000E+00  0.000000000E+00  7.522954035E+02  7.522954035E+02  0.000000000E+00  0.00000E+00  9.000E+00
      21    -1     0     0   511   502  0.000000000E+00  0.000000000E+00 -6.017109335E+02  6.017109335E+02  0.000000000E+00  0.00000E+00  9.000E+00
      25     1     1     2     0     0  1.517654176E+02 -1.115170716E+02 -3.463409809E+02  4.135769266E+02  1.250000000E+02  0.00000E+00  9.000E+00
      25     1     1     2     0     0 -1.495889790E+02  6.950690408E+01  7.015938072E+02  7.314827015E+02  1.250000000E+02  0.00000E+00  9.000E+00
      21     1     1     2   511   501 -2.176438547E+00  4.201016753E+01 -2.046683563E+02  2.089467089E+02  0.000000000E+00  0.00000E+00  9.000E+00
#rwgt            1           1   7.1740446764071791E-002           1      270462           0
</event>
<event>
      5   9999  3.79277E-02  2.51886E+01 -1.00000E+00  1.58507E-01
      21    -1     0     0   502   501  0.000000000E+00  0.000000000E+00  4.288043200E+02  4.288043200E+02  0.000000000E+00  0.00000E+00  9.000E+00
      21    -1     0     0   512   502  0.000000000E+00  0.000000000E+00 -5.119794362E+02  5.119794362E+02  0.000000000E+00  0.00000E+00  9.000E+00
      25     1     1     2     0     0 -8.120997428E+01  4.544784613E+01  3.071530546E+01  1.588363832E+02  1.250000000E+02  0.00000E+00  9.000E+00
      25     1     1     2     0     0  9.265960344E+01 -6.788376821E+01  3.120630952E+02  3.552497481E+02  1.250000000E+02  0.00000E+00  9.000E+00
      21     1     1     2   512   501 -1.144962916E+01  2.243592208E+01 -4.259535168E+02  4.266976249E+02  5.394796609E-06  0.00000E+00  9.000E+00
#rwgt            1           1   2.9662973008579396E-002           1      270666           0
</event>
<event>
      5   9999  3.79277E-02  1.30124E+01 -1.00000E+00  1.83404E-01
      21    -1     0     0   502   511  0.000000000E+00  0.000000000E+00  1.090737721E+02  1.090737721E+02  0.000000000E+00  0.00000E+00  9.000E+00
      21    -1     0     0   501   502  0.000000000E+00  0.000000000E+00 -8.609004240E+02  8.609004240E+02  0.000000000E+00  0.00000E+00  9.000E+00
      25     1     1     2     0     0 -8.314850039E+01  1.420506130E+01 -1.081650152E+01  1.511868168E+02  1.250000000E+02  0.00000E+00  9.000E+00
      25     1     1     2     0     0  9.362158696E+01 -2.192753302E+01 -7.705424611E+02  7.865154179E+02  1.250000000E+02  0.00000E+00  9.000E+00
      21     1     1     2   501   511 -1.047308657E+01  7.722471722E+00  2.953231077E+01  3.227196138E+01  3.371747881E-07  0.00000E+00  9.000E+00
#rwgt            1           1   3.3869630575158925E-002           1      270787           0
</event>
<event>
      5   9999  3.79277E-02  1.75116E+02 -1.00000E+00  1.13790E-01
      21    -1     0     0   502   501  0.000000000E+00  0.000000000E+00  1.385358010E+02  1.385358010E+02  0.000000000E+00  0.00000E+00  9.000E+00
       3    -1     0     0   501     0  0.000000000E+00  0.000000000E+00 -2.324535046E+03  2.324535046E+03  0.000000000E+00  0.00000E+00  9.000E+00
      25     1     1     2     0     0 -2.787394353E+02  6.314335152E+01 -2.016142141E+02  3.714243489E+02  1.250000000E+02  0.00000E+00  9.000E+00
      25     1     1     2     0     0  1.821601886E+02  8.293159947E+01 -2.333239156E+02  3.318509215E+02  1.250000000E+02  0.00000E+00  9.000E+00
       3     1     1     2   502     0  9.657924672E+01 -1.460749510E+02 -1.751061116E+03  1.759795577E+03  2.157918644E-05  0.00000E+00  9.000E+00
#rwgt            2          14   2.5189180039428087E-005           1      270990           0
</event>
<event>
      5   9999  3.79277E-02  1.04257E+02 -1.00000E+00  1.23019E-01
      21    -1     0     0   511   501  0.000000000E+00  0.000000000E+00  9.078359627E+02  9.078359627E+02  0.000000000E+00  0.00000E+00  9.000E+00
      21    -1     0     0   501   502  0.000000000E+00  0.000000000E+00 -4.900787343E+02  4.900787343E+02  0.000000000E+00  0.00000E+00  9.000E+00
      25     1     1     2     0     0  1.268638360E+02  1.864196936E+02 -3.227353904E+02  4.130736826E+02  1.250000000E+02  0.00000E+00  9.000E+00
      25     1     1     2     0     0 -8.778179366E+01 -8.976557113E+01 -5.268913922E+01  1.848368103E+02  1.250000000E+02  0.00000E+00  9.000E+00
      21     1     1     2   511   502 -3.908204231E+01 -9.665412248E+01  7.931817580E+02  8.000042041E+02  1.078959322E-05  0.00000E+00  9.000E+00
#rwgt            1           1   2.3687260177737049E-002           1      271084           0
</event>
<event>
      5   9999  3.79277E-02  4.24683E+01 -1.00000E+00  1.43246E-01
      21    -1     0     0   502   501  0.000000000E+00  0.000000000E+00  8.089148426E+02  8.089148426E+02  0.000000000E+00  0.00000E+00  9.000E+00
      21    -1     0     0   501   512  0.000000000E+00  0.000000000E+00 -7.641355419E+01  7.641355419E+01  0.000000000E+00  0.00000E+00  9.000E+00
      25     1     1     2     0     0 -1.079571169E+02 -1.235322958E+02  4.205069738E+02  4.683653298E+02  1.250000000E+02  0.00000E+00  9.000E+00
      25     1     1     2     0     0  1.500495036E+02  1.291699877E+02  2.633544890E+02  3.523922901E+02  1.250000000E+02  0.00000E+00  9.000E+00
      21     1     1     2   502   512 -4.209238669E+01 -5.637691889E+00  4.863982566E+01  6.457077689E+01  9.536743164E-07  0.00000E+00  9.000E+00
#rwgt            1           1   3.7427547346326091E-002           1      271174           0
</event>
<event>
      5   9999  3.79277E-02  1.08624E+02 -1.00000E+00  1.22233E-01
      21    -1     0     0   502   501  0.000000000E+00  0.000000000E+00  1.018960957E+03  1.018960957E+03  0.000000000E+00  0.00000E+00  9.000E+00
      21    -1     0     0   511   502  0.000000000E+00  0.000000000E+00 -8.062574729E+02  8.062574729E+02  0.000000000E+00  0.00000E+00  9.000E+00
      25     1     1     2     0     0  6.864838272E+01 -7.708088256E+01  7.207432470E+01  1.774084868E+02  1.250000000E+02  0.00000E+00  9.000E+00
      25     1     1     2     0     0 -1.396244039E+02 -5.148590511E+00  8.803834507E+02  9.001230485E+02  1.250000000E+02  0.00000E+00  9.000E+00
      21     1     1     2   511   501  7.097602114E+01  8.222947307E+01 -7.397542910E+02  7.476868950E+02  1.525878906E-05  0.00000E+00  9.000E+00
#rwgt            1           1   3.5546671279971569E-002           1      271352           0
</event>
<event>
      5   9999  3.79277E-02  7.53559E+01 -1.00000E+00  1.29619E-01
      21    -1     0     0   502   501  0.000000000E+00  0.000000000E+00  1.063223461E+02  1.063223461E+02  0.000000000E+00  0.00000E+00  9.000E+00
       2    -1     0     0   501     0  0.000000000E+00  0.000000000E+00 -2.272490390E+03  2.272490390E+03  0.000000000E+00  0.00000E+00  9.000E+00
      25     1     1     2     0     0 -9.319912162E+00 -7.239875320E+01 -2.705208427E+02  3.068142216E+02  1.250000000E+02  0.00000E+00  9.000E+00
      25     1     1     2     0     0  2.546980148E+01  1.460037134E+02 -2.008266465E+01  1.949207750E+02  1.250000000E+02  0.00000E+00  9.000E+00
       2     1     1     2   502     0 -1.614988931E+01 -7.360496018E+01 -1.875564537E+03  1.877077740E+03  2.157918644E-05  0.00000E+00  9.000E+00
#rwgt            1           1   3.3232312806453265E-002           1      271406           0
</event>
<event>
      5   9999  3.79277E-02  9.95359E+01 -1.00000E+00  1.23919E-01
      21    -1     0     0   502   501  0.000000000E+00  0.000000000E+00  6.541007255E+02  6.541007255E+02  0.000000000E+00  0.00000E+00  9.000E+00
      21    -1     0     0   501   511  0.000000000E+00  0.000000000E+00 -4.141023216E+02  4.141023216E+02  0.000000000E+00  0.00000E+00  9.000E+00
      25     1     1     2     0     0  4.175172174E-01 -1.962907732E+02  2.797056608E+02  3.638550517E+02  1.250000000E+02  0.00000E+00  9.000E+00
      25     1     1     2     0     0 -9.871029666E+01  2.119726024E+02  2.703720241E+02  3.786847479E+02  1.250000000E+02  0.00000E+00  9.000E+00
      21     1     1     2   502   511  9.829277944E+01 -1.568182920E+01 -3.100792811E+02  3.256632475E+02  3.814697266E-06  0.00000E+00  9.000E+00
#rwgt            1           1  0.26403561913202306                1      271476           0
</event>
<event>
      5   9999  3.79277E-02  1.00521E+02 -1.00000E+00  1.23726E-01
      21    -1     0     0   502   501  0.000000000E+00  0.000000000E+00  1.826397853E+02  1.826397853E+02  0.000000000E+00  0.00000E+00  9.000E+00
      21    -1     0     0   501   512  0.000000000E+00  0.000000000E+00 -4.248981564E+02  4.248981564E+02  0.000000000E+00  0.00000E+00  9.000E+00
      25     1     1     2     0     0  7.749857054E+01  8.754636494E+01 -2.288705819E+02  2.857921233E+02  1.250000000E+02  0.00000E+00  9.000E+00
      25     1     1     2     0     0 -2.887380398E+01  4.317597967E-01  1.054698440E+02  1.660806158E+02  1.250000000E+02  0.00000E+00  9.000E+00
      21     1     1     2   502   512 -4.862476655E+01 -8.797812474E+01 -1.188576331E+02  1.556652026E+02  1.348699152E-06  0.00000E+00  9.000E+00
#rwgt            1           1   4.5677835024946843E-002           1      271536           0
</event>
<event>
      5   9999  3.79277E-02  3.15014E+01 -1.00000E+00  1.51581E-01
      21    -1     0     0   511   501  0.000000000E+00  0.000000000E+00  9.846133014E+02  9.846133014E+02  0.000000000E+00  0.00000E+00  9.000E+00
      21    -1     0     0   501   502  0.000000000E+00  0.000000000E+00 -8.243384958E+01  8.243384958E+01  0.000000000E+00  0.00000E+00  9.000E+00
      25     1     1     2     0     0 -2.443261400E+02 -4.347984867E+01  4.366108887E+02  5.175324416E+02  1.250000000E+02  0.00000E+00  9.000E+00
      25     1     1     2     0     0  2.128326016E+02  4.277459956E+01  3.545788495E+02  4.341411558E+02  1.250000000E+02  0.00000E+00  9.000E+00
      21     1     1     2   511   502  3.149353843E+01  7.052491115E-01  1.109897136E+02  1.153735536E+02  0.000000000E+00  0.00000E+00  9.000E+00
#rwgt            1           1   3.6093851747969113E-002           1      271718           0
</event>
<event>
      5   9999  3.79277E-02  4.85494E+01 -1.00000E+00  1.39809E-01
      21    -1     0     0   502   501  0.000000000E+00  0.000000000E+00  5.243847404E+01  5.243847404E+01  0.000000000E+00  0.00000E+00  9.000E+00
       2    -1     0     0   501     0  0.000000000E+00  0.000000000E+00 -1.127057601E+03  1.127057601E+03  0.000000000E+00  0.00000E+00  9.000E+00
      25     1     1     2     0     0  1.255579168E+02 -7.015856411E+01 -6.413022228E+02  6.690146153E+02  1.250000000E+02  0.00000E+00  9.000E+00
      25     1     1     2     0     0 -1.492344396E+02  2.777383344E+01 -2.355398683E+02  3.068327449E+02  1.250000000E+02  0.00000E+00  9.000E+00
       2     1     1     2   502     0  2.367652279E+01  4.238473067E+01 -1.977770358E+02  2.036487148E+02  0.000000000E+00  0.00000E+00  9.000E+00
#rwgt            1           1   4.5168151566725365E-002           1      271911           0
</event>
<event>
      5   9999  3.79277E-02  3.01616E+01 -1.00000E+00  1.52878E-01
      21    -1     0     0   502   511  0.000000000E+00  0.000000000E+00  6.852428313E+02  6.852428313E+02  0.000000000E+00  0.00000E+00  9.000E+00
      21    -1     0     0   501   502  0.000000000E+00  0.000000000E+00 -6.052396896E+01  6.052396896E+01  0.000000000E+00  0.00000E+00  9.000E+00
      25     1     1     2     0     0  1.486733183E+02  1.670342291E+01  3.745435236E+02  4.222447288E+02  1.250000000E+02  0.00000E+00  9.000E+00
      25     1     1     2     0     0 -1.186127036E+02 -1.916960681E+01  1.973683653E+02  2.627084295E+02  1.250000000E+02  0.00000E+00  9.000E+00
      21     1     1     2   501   511 -3.006061463E+01  2.466183909E+00  5.280697348E+01  6.081364208E+01  0.000000000E+00  0.00000E+00  9.000E+00
#rwgt            1           1   3.4081488853669344E-002           1      272076           0
</event>
<event>
      5   9999  3.79277E-02  1.09889E+01 -1.00000E+00  1.91139E-01
      21    -1     0     0   512   501  0.000000000E+00  0.000000000E+00  2.305671630E+02  2.305671630E+02  0.000000000E+00  0.00000E+00  9.000E+00
      21    -1     0     0   501   502  0.000000000E+00  0.000000000E+00 -2.578704260E+02  2.578704260E+02  0.000000000E+00  0.00000E+00  9.000E+00
      25     1     1     2     0     0  3.147927356E+01 -1.443060240E+02 -3.094189643E+01  1.959529897E+02  1.250000000E+02  0.00000E+00  9.000E+00
      25     1     1     2     0     0 -2.431465835E+01  1.526382019E+02 -7.546192484E+01  2.126243763E+02  1.250000000E+02  0.00000E+00  9.000E+00
      21     1     1     2   512   502 -7.164615210E+00 -8.332177887E+00  7.910055833E+01  7.986022306E+01  9.536743164E-07  0.00000E+00  9.000E+00
#rwgt            1           1   4.6568199044183856E-002           1      272279           0
</event>
<event>
      5   9999  3.79277E-02  5.78109E+01 -1.00000E+00  1.35572E-01
      21    -1     0     0   502   511  0.000000000E+00  0.000000000E+00  1.325912213E+02  1.325912213E+02  0.000000000E+00  0.00000E+00  9.000E+00
      21    -1     0     0   501   502  0.000000000E+00  0.000000000E+00 -7.210947776E+02  7.210947776E+02  0.000000000E+00  0.00000E+00  9.000E+00
      25     1     1     2     0     0  3.808813984E+01  1.711736910E+02 -5.437665752E+02  5.848574418E+02  1.250000000E+02  0.00000E+00  9.000E+00
      25     1     1     2     0     0  1.277148455E+01 -1.436892321E+02 -7.314676263E+01  2.044141755E+02  1.250000000E+02  0.00000E+00  9.000E+00
      21     1     1     2   501   511 -5.085962439E+01 -2.748445889E+01  2.840978158E+01  6.441438165E+01  1.215700987E-06  0.00000E+00  9.000E+00
#rwgt            1           1   3.6119568051658092E-002           1      272533           0
</event>
<event>
      5   9999  3.79277E-02  5.53810E+01 -1.00000E+00  1.36589E-01
      21    -1     0     0   502   512  0.000000000E+00  0.000000000E+00  1.996695593E+02  1.996695593E+02  0.000000000E+00  0.00000E+00  9.000E+00
      21    -1     0     0   501   502  0.000000000E+00  0.000000000E+00 -4.902330087E+02  4.902330087E+02  0.000000000E+00  0.00000E+00  9.000E+00
      25     1     1     2     0     0 -1.838637700E+02  4.559106788E+01 -2.734825491E+02  3.553901181E+02  1.250000000E+02  0.00000E+00  9.000E+00
      25     1     1     2     0     0  1.825684976E+02  9.774774770E+00 -9.327623600E+01  2.403169963E+02  1.250000000E+02  0.00000E+00  9.000E+00
      21     1     1     2   501   512  1.295272425E+00 -5.536584265E+01  7.619533574E+01  9.419545346E+01  1.651812370E-06  0.00000E+00  9.000E+00
#rwgt            1           1   3.9958863612904037E-002           1      272671           0
</event>
<event>
      5   9999  3.79277E-02  7.30559E+01 -1.00000E+00  1.30288E-01
       5    -1     0     0   502     0  0.000000000E+00  0.000000000E+00  1.872545208E+02  1.872545208E+02  0.000000000E+00  0.00000E+00  9.000E+00
      21    -1     0     0   501   502  0.000000000E+00  0.000000000E+00 -1.170341157E+03  1.170341157E+03  0.000000000E+00  0.00000E+00  9.000E+00
      25     1     1     2     0     0 -5.842278378E+01 -1.876655206E+02 -7.961418509E+02  8.295169776E+02  1.250000000E+02  0.00000E+00  9.000E+00
      25     1     1     2     0     0  5.429347190E+01  1.147263842E+02 -3.257176807E+02  3.712504974E+02  1.250000000E+02  0.00000E+00  9.000E+00
       5     1     1     2   501     0  4.129311873E+00  7.293913643E+01  1.387728952E+02  1.568282031E+02  3.814697266E-06  0.00000E+00  9.000E+00
#rwgt            1           1   4.3965183528661765E-002           1      272881           0
</event>
<event>
      5   9999  3.79277E-02  7.84195E+01 -1.00000E+00  1.28770E-01
      21    -1     0     0   511   501  0.000000000E+00  0.000000000E+00  4.528618697E+02  4.528618697E+02  0.000000000E+00  0.00000E+00  9.000E+00
      21    -1     0     0   501   502  0.000000000E+00  0.000000000E+00 -1.713054102E+02  1.713054102E+02  0.000000000E+00  0.00000E+00  9.000E+00
      25     1     1     2     0     0  2.272156289E+01 -5.374701407E+01  2.224352669E+02  2.617392957E+02  1.250000000E+02  0.00000E+00  9.000E+00
      25     1     1     2     0     0  9.537240663E+00 -1.773014109E+01 -1.152654629E+02  1.712204538E+02  1.250000000E+02  0.00000E+00  9.000E+00
      21     1     1     2   511   502 -3.225880355E+01  7.147715516E+01  1.743866554E+02  1.912075305E+02  0.000000000E+00  0.00000E+00  9.000E+00
#rwgt            1           1   6.1080584882521275E-003           1      272974           0
</event>
<event>
      5   9999  3.79277E-02  1.11666E+01 -1.00000E+00  1.90376E-01
      21    -1     0     0   502   501  0.000000000E+00  0.000000000E+00  1.646642583E+02  1.646642583E+02  0.000000000E+00  0.00000E+00  9.000E+00
      21    -1     0     0   501   512  0.000000000E+00  0.000000000E+00 -3.340949609E+02  3.340949609E+02  0.000000000E+00  0.00000E+00  9.000E+00
      25     1     1     2     0     0 -1.365962635E+02 -5.588187254E+01 -1.489024036E+02  2.440865598E+02  1.250000000E+02  0.00000E+00  9.000E+00
      25     1     1     2     0     0  1.264692220E+02  6.058676742E+01  4.088323766E+01  1.922541538E+02  1.250000000E+02  0.00000E+00  9.000E+00
      21     1     1     2   502   512  1.012704149E+01 -4.704894885E+00 -6.141153669E+01  6.241850562E+01  6.743495762E-07  0.00000E+00  9.000E+00
#rwgt            1           1   3.4938090655793813E-002           1      273032           0
</event>
<event>
      5   9999  3.79277E-02  1.18283E+02 -1.00000E+00  1.20635E-01
      21    -1     0     0   502   501  0.000000000E+00  0.000000000E+00  2.544062447E+02  2.544062447E+02  0.000000000E+00  0.00000E+00  9.000E+00
      -3    -1     0     0     0   502  0.000000000E+00  0.000000000E+00 -9.858372191E+02  9.858372191E+02  0.000000000E+00  0.00000E+00  9.000E+00
      25     1     1     2     0     0 -6.182882045E+01 -3.270975482E+01 -9.949960801E+01  1.744072908E+02  1.250000000E+02  0.00000E+00  9.000E+00
      25     1     1     2     0     0 -5.396751550E+01  8.582555033E+00  1.908505270E+02  2.345955597E+02  1.250000000E+02  0.00000E+00  9.000E+00
      -3     1     1     2     0   501  1.157963359E+02  2.412719978E+01 -8.227818933E+02  8.312406133E+02  1.078959322E-05  0.00000E+00  9.000E+00
#rwgt            1           1   4.5012146432267322E-002           1      273238           0
</event>
<event>
      5   9999  3.79277E-02  4.01118E+01 -1.00000E+00  1.44765E-01
      21    -1     0     0   502   501  0.000000000E+00  0.000000000E+00  2.182921356E+02  2.182921356E+02  0.000000000E+00  0.00000E+00  9.000E+00
      21    -1     0     0   501   511  0.000000000E+00  0.000000000E+00 -2.568133245E+02  2.568133245E+02  0.000000000E+00  0.00000E+00  9.000E+00
      25     1     1     2     0     0 -2.482639161E+01  6.940180953E+01 -1.435834826E+02  2.041425418E+02  1.250000000E+02  0.00000E+00  9.000E+00
      25     1     1     2     0     0 -1.488383631E+01 -6.374014572E+01  1.532172352E+02  2.082903165E+02  1.250000000E+02  0.00000E+00  9.000E+00
      21     1     1     2   502   511  3.971022793E+01 -5.661663811E+00 -4.815494152E+01  6.267260193E+01  9.536743164E-07  0.00000E+00  9.000E+00
#rwgt            1           1   2.0814816067868915E-002           1      273287           0
</event>
<event>
      5   9999  3.79277E-02  7.28113E+00 -1.00000E+00  2.13165E-01
      21    -1     0     0   502   501  0.000000000E+00  0.000000000E+00  4.025727895E+02  4.025727895E+02  0.000000000E+00  0.00000E+00  9.000E+00
      21    -1     0     0   512   502  0.000000000E+00  0.000000000E+00 -1.877072299E+02  1.877072299E+02  0.000000000E+00  0.00000E+00  9.000E+00
      25     1     1     2     0     0  1.003867338E+02 -3.467062767E+01 -1.007704391E+02  1.925077405E+02  1.250000000E+02  0.00000E+00  9.000E+00
      25     1     1     2     0     0 -9.404097429E+01  3.824081519E+01  3.379208220E+02  3.743281271E+02  1.250000000E+02  0.00000E+00  9.000E+00
      21     1     1     2   512   501 -6.345759510E+00 -3.570187514E+00 -2.228482331E+01  2.344415178E+01  3.371747881E-07  0.00000E+00  9.000E+00
#rwgt            1           1   3.6436270564828337E-002           1      273387           0
</event>
<event>
      5   9999  3.79277E-02  1.04093E+02 -1.00000E+00  1.23049E-01
      21    -1     0     0   511   501  0.000000000E+00  0.000000000E+00  1.989915757E+02  1.989915757E+02  0.000000000E+00  0.00000E+00  9.000E+00
      21    -1     0     0   501   502  0.000000000E+00  0.000000000E+00 -5.435150160E+02  5.435150160E+02  0.000000000E+00  0.00000E+00  9.000E+00
      25     1     1     2     0     0 -1.642852167E+02  5.563471185E+01 -1.589672176E+02  2.664215267E+02  1.250000000E+02  0.00000E+00  9.000E+00
      25     1     1     2     0     0  1.529169697E+02 -1.591050049E+02 -2.479818976E+02  3.547083644E+02  1.250000000E+02  0.00000E+00  9.000E+00
      21     1     1     2   511   502  1.136824701E+01  1.034702931E+02  6.242567482E+01  1.213767007E+02  2.023048729E-06  0.00000E+00  9.000E+00
#rwgt            1           1   4.6359270746559988E-002           1      273653           0
</event>
<event>
      5   9999  3.79277E-02  1.18141E+02 -1.00000E+00  1.20657E-01
      21    -1     0     0   502   501  0.000000000E+00  0.000000000E+00  1.739298965E+02  1.739298965E+02  0.000000000E+00  0.00000E+00  9.000E+00
      21    -1     0     0   512   502  0.000000000E+00  0.000000000E+00 -6.832861578E+02  6.832861578E+02  0.000000000E+00  0.00000E+00  9.000E+00
      25     1     1     2     0     0  5.336285034E+01  2.490032334E+02 -9.121820212E+01  2.979865172E+02  1.250000000E+02  0.00000E+00  9.000E+00
      25     1     1     2     0     0 -1.351027046E+02 -1.637040409E+02 -2.296238685E+02  3.367549180E+02  1.250000000E+02  0.00000E+00  9.000E+00
      21     1     1     2   512   501  8.173985429E+01 -8.529919258E+01 -1.885141907E+02  2.224746191E+02  2.697398305E-06  0.00000E+00  9.000E+00
#rwgt            1           1   1.7359306432718092E-002           1      273707           0
</event>
<event>
      5   9999  3.79277E-02  4.77315E+01 -1.00000E+00  1.40236E-01
      21    -1     0     0   502   511  0.000000000E+00  0.000000000E+00  1.019102370E+03  1.019102370E+03  0.000000000E+00  0.00000E+00  9.000E+00
      21    -1     0     0   501   502  0.000000000E+00  0.000000000E+00 -2.173464655E+02  2.173464655E+02  0.000000000E+00  0.00000E+00  9.000E+00
      25     1     1     2     0     0  1.417717726E+02 -1.015352436E+02 -5.358698866E+01  2.211452160E+02  1.250000000E+02  0.00000E+00  9.000E+00
      25     1     1     2     0     0 -1.466574372E+02  1.490160486E+02  1.080442436E+02  2.664821667E+02  1.250000000E+02  0.00000E+00  9.000E+00
      21     1     1     2   501   511  4.885664588E+00 -4.748080491E+01  7.472986492E+02  7.488214525E+02  0.000000000E+00  0.00000E+00  9.000E+00
#rwgt            1           1   2.3538928956655301E-002           1      273792           0
</event>
<event>
      5   9999  3.79277E-02  4.98121E+01 -1.00000E+00  1.39169E-01
       1    -1     0     0   502     0  0.000000000E+00  0.000000000E+00  2.530371967E+02  2.530371967E+02  0.000000000E+00  0.00000E+00  9.000E+00
      21    -1     0     0   501   502  0.000000000E+00  0.000000000E+00 -4.152620508E+02  4.152620508E+02  0.000000000E+00  0.00000E+00  9.000E+00
      25     1     1     2     0     0  7.681447729E+01  8.415172470E+01 -5.669149882E+01  1.783841437E+02  1.250000000E+02  0.00000E+00  9.000E+00
      25     1     1     2     0     0 -1.262975777E+02 -7.843632390E+01 -2.617511823E+02  3.259478739E+02  1.250000000E+02  0.00000E+00  9.000E+00
       1     1     1     2   501     0  4.948310036E+01 -5.715400804E+00  1.562178270E+02  1.639672300E+02  3.303624740E-06  0.00000E+00  9.000E+00
#rwgt            1           1   4.3043881801993276E-002           1      273954           0
</event>
<event>
      5   9999  3.79277E-02  1.59141E+01 -1.00000E+00  1.74997E-01
      21    -1     0     0   502   511  0.000000000E+00  0.000000000E+00  7.837583655E+02  7.837583655E+02  0.000000000E+00  0.00000E+00  9.000E+00
      21    -1     0     0   501   502  0.000000000E+00  0.000000000E+00 -7.593349111E+01  7.593349111E+01  0.000000000E+00  0.00000E+00  9.000E+00
      25     1     1     2     0     0 -1.471429600E+02  2.081057361E+01  1.290066355E+02  2.331348165E+02  1.250000000E+02  0.00000E+00  9.000E+00
      25     1     1     2     0     0  1.488027048E+02 -4.983244704E+00  3.775438317E+02  4.246544743E+02  1.250000000E+02  0.00000E+00  9.000E+00
      21     1     1     2   501   511 -1.659744841E+00 -1.582732891E+01  2.012744073E+02  2.019025659E+02  2.697398305E-06  0.00000E+00  9.000E+00
#rwgt            1           1   3.8720682234683119E-002           1      274199           0
</event>
<event>
      5   9999  3.79277E-02  3.08890E+01 -1.00000E+00  1.52164E-01
      21    -1     0     0   502   501  0.000000000E+00  0.000000000E+00  5.496284342E+02  5.496284342E+02  0.000000000E+00  0.00000E+00  9.000E+00
      21    -1     0     0   512   502  0.000000000E+00  0.000000000E+00 -3.750481257E+02  3.750481257E+02  0.000000000E+00  0.00000E+00  9.000E+00
      25     1     1     2     0     0  3.521896677E+02 -4.164128242E+01 -1.218958308E+02  3.952912243E+02  1.250000000E+02  0.00000E+00  9.000E+00
      25     1     1     2     0     0 -3.639770142E+02  7.019277679E+01  3.064419107E+02  4.969285033E+02  1.250000000E+02  0.00000E+00  9.000E+00
      21     1     1     2   512   501  1.178734648E+01 -2.855149437E+01 -9.965771325E+00  3.245683235E+01  3.769728732E-07  0.00000E+00  9.000E+00
#rwgt            1           1   4.1237075302427782E-002           1      274412           0
</event>
<event>
      5   9999  3.79277E-02  3.24272E+01 -1.00000E+00  1.50730E-01
      21    -1     0     0   502   501  0.000000000E+00  0.000000000E+00  5.775384296E+02  5.775384296E+02  0.000000000E+00  0.00000E+00  9.000E+00
      21    -1     0     0   501   511  0.000000000E+00  0.000000000E+00 -1.292619684E+02  1.292619684E+02  0.000000000E+00  0.00000E+00  9.000E+00
      25     1     1     2     0     0 -8.020069775E+01 -2.184502990E+02  2.725336561E+02  3.795421963E+02  1.250000000E+02  0.00000E+00  9.000E+00
      25     1     1     2     0     0  7.099798425E+01  1.873563574E+02  1.764992924E+02  2.948221814E+02  1.250000000E+02  0.00000E+00  9.000E+00
      21     1     1     2   502   511  9.202713498E+00  3.109394158E+01 -7.564872783E-01  3.243602028E+01  6.927838144E-07  0.00000E+00  9.000E+00
#rwgt            1           1   2.4692263157937450E-002           1      274728           0
</event>
<event>
      5   9999  3.79277E-02  1.67429E+01 -1.00000E+00  1.73001E-01
      21    -1     0     0   512   501  0.000000000E+00  0.000000000E+00  1.367198443E+02  1.367198443E+02  0.000000000E+00  0.00000E+00  9.000E+00
      21    -1     0     0   501   502  0.000000000E+00  0.000000000E+00 -2.742402654E+02  2.742402654E+02  0.000000000E+00  0.00000E+00  9.000E+00
      25     1     1     2     0     0  1.145008617E+02  7.275951086E+01 -1.113832162E+02  2.154892447E+02  1.250000000E+02  0.00000E+00  9.000E+00
      25     1     1     2     0     0 -9.789192499E+01 -7.064569410E+01 -3.383881752E+01  1.770415450E+02  1.250000000E+02  0.00000E+00  9.000E+00
      21     1     1     2   512   502 -1.660893669E+01 -2.113816760E+00  7.701612600E+00  1.842932001E+01  8.429369702E-08  0.00000E+00  9.000E+00
#rwgt            1           1   4.1923695097189101E-002           1      274921           0
</event>
<event>
      5   9999  3.79277E-02  1.42806E+01 -1.00000E+00  1.79418E-01
      21    -1     0     0   502   501  0.000000000E+00  0.000000000E+00  8.116138302E+02  8.116138302E+02  0.000000000E+00  0.00000E+00  9.000E+00
      21    -1     0     0   511   502  0.000000000E+00  0.000000000E+00 -5.874924090E+01  5.874924090E+01  0.000000000E+00  0.00000E+00  9.000E+00
      25     1     1     2     0     0  8.063639380E+01  1.167748590E+02  5.631108879E+02  5.940180703E+02  1.250000000E+02  0.00000E+00  9.000E+00
      25     1     1     2     0     0 -8.905667021E+01 -1.052408120E+02  1.809650313E+02  2.595766969E+02  1.250000000E+02  0.00000E+00  9.000E+00
      21     1     1     2   511   501  8.420276417E+00 -1.153404702E+01  8.788670109E+00  1.676830396E+01  1.192092896E-07  0.00000E+00  9.000E+00
#rwgt            1           1   2.9816470341590223E-002           1      275065           0
</event>
<event>
      5   9999  3.79277E-02  1.68712E+01 -1.00000E+00  1.72705E-01
      21    -1     0     0   502   501  0.000000000E+00  0.000000000E+00  6.376033078E+02  6.376033078E+02  0.000000000E+00  0.00000E+00  9.000E+00
      21    -1     0     0   512   502  0.000000000E+00  0.000000000E+00 -5.982597010E+02  5.982597010E+02  0.000000000E+00  0.00000E+00  9.000E+00
      25     1     1     2     0     0  5.275137755E+02  2.439768896E+02 -4.354638058E+01  5.960845521E+02  1.250000000E+02  0.00000E+00  9.000E+00
      25     1     1     2     0     0 -5.383950708E+02 -2.568701514E+02  9.777255179E+01  6.172811344E+02  1.250000000E+02  0.00000E+00  9.000E+00
      21     1     1     2   512   501  1.088129535E+01  1.289326178E+01 -1.488256441E+01  2.249732231E+01  2.920019320E-07  0.00000E+00  9.000E+00
#rwgt            1           1  0.20032758327763805                1      275270           0
</event>
<event>
      5   9999  3.79277E-02  3.74355E+01 -1.00000E+00  1.46648E-01
       2    -1     0     0   502     0  0.000000000E+00  0.000000000E+00  7.356394230E+02  7.356394230E+02  0.000000000E+00  0.00000E+00  9.000E+00
      21    -1     0     0   501   502  0.000000000E+00  0.000000000E+00 -2.714535142E+02  2.714535142E+02  0.000000000E+00  0.00000E+00  9.000E+00
      25     1     1     2     0     0  5.240595872E+01  1.953980309E+02  9.407385007E+01  2.557374909E+02  1.250000000E+02  0.00000E+00  9.000E+00
      25     1     1     2     0     0 -8.904467341E+01 -1.877156862E+02 -1.124980448E+02  2.672956093E+02  1.250000000E+02  0.00000E+00  9.000E+00
       2     1     1     2   501     0  3.663871469E+01 -7.682344679E+00  4.826101034E+02  4.840598370E+02  5.394796609E-06  0.00000E+00  9.000E+00
#rwgt            1           1   3.0226546663259104E-002           1      275519           0
</event>
<event>
      5   9999 -3.79277E-02  1.73350E+02 -1.00000E+00  1.13957E-01
      21    -1     0     0   511   501  0.000000000E+00  0.000000000E+00  9.387056366E+02  9.387056366E+02  0.000000000E+00  0.00000E+00  9.000E+00
      21    -1     0     0   501   502  0.000000000E+00  0.000000000E+00 -3.180416366E+02  3.180416366E+02  0.000000000E+00  0.00000E+00  9.000E+00
      25     1     1     2     0     0 -4.494481911E+02 -2.329744241E+02  1.390608366E+02  5.396699686E+02  1.250000000E+02  0.00000E+00  9.000E+00
      25     1     1     2     0     0  3.037600458E+02  1.390328343E+02  3.006914319E+02  4.665197013E+02  1.250000000E+02  0.00000E+00  9.000E+00
      21     1     1     2   511   502  1.456881453E+02  9.394158971E+01  1.809117315E+02  2.505576032E+02  3.814697266E-06  0.00000E+00  9.000E+00
#rwgt            1           1 -0.12875422537839112                1      275687           0
</event>
<event>
      5   9999  3.79277E-02  1.83968E+01 -1.00000E+00  1.69420E-01
      21    -1     0     0   502   501  0.000000000E+00  0.000000000E+00  7.874191824E+01  7.874191824E+01  0.000000000E+00  0.00000E+00  9.000E+00
      -1    -1     0     0     0   502  0.000000000E+00  0.000000000E+00 -6.426423353E+02  6.426423353E+02  0.000000000E+00  0.00000E+00  9.000E+00
      25     1     1     2     0     0  4.796991746E+01  1.471031764E+02 -1.799019706E+02  2.681980173E+02  1.250000000E+02  0.00000E+00  9.000E+00
      25     1     1     2     0     0 -4.596758326E+01 -1.288156790E+02 -2.177093196E+02  2.858825733E+02  1.250000000E+02  0.00000E+00  9.000E+00
      -1     1     1     2     0   501 -2.002334196E+00 -1.828749736E+01 -1.662891269E+02  1.673036629E+02  1.907348633E-06  0.00000E+00  9.000E+00
#rwgt            1           1   4.1008352674152537E-002           1      275733           0
</event>
<event>
      5   9999  3.79277E-02  7.18732E+01 -1.00000E+00  1.30642E-01
      21    -1     0     0   502   501  0.000000000E+00  0.000000000E+00  1.240840460E+02  1.240840460E+02  0.000000000E+00  0.00000E+00  9.000E+00
      21    -1     0     0   501   511  0.000000000E+00  0.000000000E+00 -8.271593581E+02  8.271593581E+02  0.000000000E+00  0.00000E+00  9.000E+00
      25     1     1     2     0     0 -1.189757289E+02 -1.709454678E+02 -1.495516319E+02  2.852512360E+02  1.250000000E+02  0.00000E+00  9.000E+00
      25     1     1     2     0     0  8.059681796E+01  2.317140345E+02 -3.225184834E+02  4.240641614E+02  1.250000000E+02  0.00000E+00  9.000E+00
      21     1     1     2   502   511  3.837891097E+01 -6.076856673E+01 -2.310051967E+02  2.419280066E+02  0.000000000E+00  0.00000E+00  9.000E+00
#rwgt            1           1  0.34501441910130642                1      275900           0
</event>
<event>
      5   9999  3.79277E-02  2.19630E+01 -1.00000E+00  1.63083E-01
      21    -1     0     0   502   512  0.000000000E+00  0.000000000E+00  1.737103460E+03  1.737103460E+03  0.000000000E+00  0.00000E+00  9.000E+00
      21    -1     0     0   501   502  0.000000000E+00  0.000000000E+00 -2.289500110E+01  2.289500110E+01  0.000000000E+00  0.00000E+00  9.000E+00
      25     1     1     2     0     0 -6.540922312E+01 -7.443559295E+01  3.877434042E+02  4.192719541E+02  1.250000000E+02  0.00000E+00  9.000E+00
      25     1     1     2     0     0  7.159596272E+01  9.550923888E+01  1.154960808E+03  1.167821675E+03  1.250000000E+02  0.00000E+00  9.000E+00
      21     1     1     2   501   512 -6.186739605E+00 -2.107364593E+01  1.715042466E+02  1.729048319E+02  1.907348633E-06  0.00000E+00  9.000E+00
#rwgt            1           1   4.1364280525759842E-002           1      276079           0
</event>
<event>
      5   9999  3.79277E-02  2.59301E+02 -1.00000E+00  1.07691E-01
      21    -1     0     0   502   501  0.000000000E+00  0.000000000E+00  7.917649372E+02  7.917649372E+02  0.000000000E+00  0.00000E+00  9.000E+00
      21    -1     0     0   501   511  0.000000000E+00  0.000000000E+00 -1.727730019E+02  1.727730019E+02  0.000000000E+00  0.00000E+00  9.000E+00
      25     1     1     2     0     0 -2.121126823E+02  5.732380346E+01  2.488038697E+02  3.546916605E+02  1.250000000E+02  0.00000E+00  9.000E+00
      25     1     1     2     0     0 -1.689332439E+01 -1.789520993E+02  2.190902467E+02  3.097333926E+02  1.250000000E+02  0.00000E+00  9.000E+00
      21     1     1     2   502   511  2.290060067E+02  1.216282958E+02  1.510978188E+02  3.001128860E+02  2.697398305E-06  0.00000E+00  9.000E+00
#rwgt            2          11   1.3378841171044536E-003           1      276287           0
</event>
<event>
      5   9999  3.79277E-02  2.18977E+01 -1.00000E+00  1.63185E-01
      21    -1     0     0   502   512  0.000000000E+00  0.000000000E+00  2.869756248E+02  2.869756248E+02  0.000000000E+00  0.00000E+00  9.000E+00
      21    -1     0     0   501   502  0.000000000E+00  0.000000000E+00 -3.118639926E+02  3.118639926E+02  0.000000000E+00  0.00000E+00  9.000E+00
      25     1     1     2     0     0 -2.202117180E+02 -8.351812105E+01  7.171879635E+01  2.761105993E+02  1.250000000E+02  0.00000E+00  9.000E+00
      25     1     1     2     0     0  2.057885339E+02  9.999478655E+01 -1.231343715E+02  2.883313223E+02  1.250000000E+02  0.00000E+00  9.000E+00
      21     1     1     2   501   512  1.442318410E+01 -1.647666550E+01  2.652720736E+01  3.439769580E+01  4.768371582E-07  0.00000E+00  9.000E+00
#rwgt            1           1   3.5594862223647140E-002           1      276337           0
</event>
<event>
      5   9999  3.79277E-02  8.79695E+01 -1.00000E+00  1.26385E-01
      21    -1     0     0   502   501  0.000000000E+00  0.000000000E+00  6.651407899E+01  6.651407899E+01  0.000000000E+00  0.00000E+00  9.000E+00
       2    -1     0     0   501     0  0.000000000E+00  0.000000000E+00 -1.947032205E+03  1.947032205E+03  0.000000000E+00  0.00000E+00  9.000E+00
      25     1     1     2     0     0  1.584435951E+02  7.411112774E+01 -2.609770487E+02  3.381284549E+02  1.250000000E+02  0.00000E+00  9.000E+00
      25     1     1     2     0     0 -1.222620772E+02 -1.542955028E+02 -4.921768887E+02  5.446266679E+02  1.250000000E+02  0.00000E+00  9.000E+00
       2     1     1     2   502     0 -3.618151783E+01  8.018437504E+01 -1.127364189E+03  1.130791161E+03  2.157918644E-05  0.00000E+00  9.000E+00
#rwgt            1           1   4.4162647759446734E-002           1      276486           0
</event>
<event>
      5   9999  3.79277E-02  1.76774E+01 -1.00000E+00  1.70917E-01
      21    -1     0     0   502   511  0.000000000E+00  0.000000000E+00  4.225422040E+01  4.225422040E+01  0.000000000E+00  0.00000E+00  9.000E+00
      21    -1     0     0   501   502  0.000000000E+00  0.000000000E+00 -2.007225323E+03  2.007225323E+03  0.000000000E+00  0.00000E+00  9.000E+00
      25     1     1     2     0     0 -6.970750457E+01  1.077456627E+02 -1.756824117E+03  1.765934382E+03  1.250000000E+02  0.00000E+00  9.000E+00
      25     1     1     2     0     0  5.205977315E+01 -1.067220918E+02 -2.000768100E+02  2.641127691E+02  1.250000000E+02  0.00000E+00  9.000E+00
      21     1     1     2   501   511  1.764773143E+01 -1.023570904E+00 -8.070175079E+00  1.943239171E+01  6.743495762E-07  0.00000E+00  9.000E+00
#rwgt            1           1   1.1008412488916713E-002           1      276599           0
</event>
<event>
      5   9999  3.79277E-02  1.33193E+01 -1.00000E+00  1.82388E-01
      21    -1     0     0   502   512  0.000000000E+00  0.000000000E+00  3.937076092E+02  3.937076092E+02  0.000000000E+00  0.00000E+00  9.000E+00
      21    -1     0     0   501   502  0.000000000E+00  0.000000000E+00 -3.128689521E+02  3.128689521E+02  0.000000000E+00  0.00000E+00  9.000E+00
      25     1     1     2     0     0  3.381337421E+01  2.512151281E+02 -1.462802046E+02  3.182377776E+02  1.250000000E+02  0.00000E+00  9.000E+00
      25     1     1     2     0     0 -3.346758515E+01 -2.379002733E+02  1.490141268E+02  3.091065015E+02  1.250000000E+02  0.00000E+00  9.000E+00
      21     1     1     2   501   512 -3.457890611E-01 -1.331485481E+01  7.810473484E+01  7.923228214E+01  9.536743164E-07  0.00000E+00  9.000E+00
#rwgt            1           1   4.2313476200302326E-002           1      276826           0
</event>
<event>
      5   9999  3.79277E-02  2.20668E+02 -1.00000E+00  1.10115E-01
      21    -1     0     0   511   501  0.000000000E+00  0.000000000E+00  1.457625872E+03  1.457625872E+03  0.000000000E+00  0.00000E+00  9.000E+00
      21    -1     0     0   501   502  0.000000000E+00  0.000000000E+00 -8.961719235E+01  8.961719235E+01  0.000000000E+00  0.00000E+00  9.000E+00
      25     1     1     2     0     0  5.444558613E+01 -2.176426161E+02  4.666823501E+02  5.326819371E+02  1.250000000E+02  0.00000E+00  9.000E+00
      25     1     1     2     0     0  1.233261165E+02  8.690843525E+01  2.026972190E+02  2.819105704E+02  1.250000000E+02  0.00000E+00  9.000E+00
      21     1     1     2   511   502 -1.777717026E+02  1.307341809E+02  6.986291110E+02  7.326505573E+02  7.629394531E-06  0.00000E+00  9.000E+00
#rwgt            2          11   9.9014295585049582E-004           1      277266           0
</event>
<event>
      5   9999  3.79277E-02  2.19549E+02 -1.00000E+00  1.10193E-01
      21    -1     0     0   502   501  0.000000000E+00  0.000000000E+00  6.888283724E+02  6.888283724E+02  0.000000000E+00  0.00000E+00  9.000E+00
      21    -1     0     0   501   512  0.000000000E+00  0.000000000E+00 -2.407742222E+02  2.407742222E+02  0.000000000E+00  0.00000E+00  9.000E+00
      25     1     1     2     0     0  1.947700895E+02  7.491714094E+01  4.571455920E+01  2.475132051E+02  1.250000000E+02  0.00000E+00  9.000E+00
      25     1     1     2     0     0  9.453805128E+00  5.670169160E+00  4.415779577E+02  4.590616712E+02  1.250000000E+02  0.00000E+00  9.000E+00
      21     1     1     2   502   512 -2.042238946E+02 -8.058731010E+01 -3.923836667E+01  2.230277182E+02  2.236564522E-06  0.00000E+00  9.000E+00
#rwgt            1           1   5.1807208603303095E-002           1      277346           0
</event>
<event>
      5   9999  3.79277E-02  2.78968E+01 -1.00000E+00  1.55265E-01
      21    -1     0     0   511   501  0.000000000E+00  0.000000000E+00  3.313409946E+03  3.313409946E+03  0.000000000E+00  0.00000E+00  9.000E+00
      21    -1     0     0   501   502  0.000000000E+00  0.000000000E+00 -4.230571246E+01  4.230571246E+01  0.000000000E+00  0.00000E+00  9.000E+00
      25     1     1     2     0     0 -2.495894888E+01 -8.755159870E+01  3.061381842E+02  3.429778701E+02  1.250000000E+02  0.00000E+00  9.000E+00
      25     1     1     2     0     0  3.478084273E+01  1.136621337E+02  2.885536498E+02  3.361800061E+02  1.250000000E+02  0.00000E+00  9.000E+00
      21     1     1     2   511   502 -9.821893849E+00 -2.611053497E+01  2.676412399E+03  2.676557782E+03  3.051757812E-05  0.00000E+00  9.000E+00
#rwgt            1           1   4.4280161076008219E-002           1      277474           0
</event>
<event>
      5   9999  3.79277E-02  8.90705E+01 -1.00000E+00  1.26132E-01
      21    -1     0     0   502   501  0.000000000E+00  0.000000000E+00  9.575796952E+01  9.575796952E+01  0.000000000E+00  0.00000E+00  9.000E+00
      -3    -1     0     0     0   502  0.000000000E+00  0.000000000E+00 -1.649443153E+03  1.649443153E+03  0.000000000E+00  0.00000E+00  9.000E+00
      25     1     1     2     0     0  2.722630110E+02 -1.052309790E+02 -3.754432723E+02  4.917147108E+02  1.250000000E+02  0.00000E+00  9.000E+00
      25     1     1     2     0     0 -2.233108254E+02  1.796436371E+02 -6.948759376E+02  7.619823684E+02  1.250000000E+02  0.00000E+00  9.000E+00
      -3     1     1     2     0   501 -4.895218559E+01 -7.441265809E+01 -4.833659736E+02  4.915040433E+02  7.629394531E-06  0.00000E+00  9.000E+00
#rwgt            1           1   4.6629071873315685E-002           1      277593           0
</event>
<event>
      5   9999  3.79277E-02  2.68803E+01 -1.00000E+00  1.56427E-01
      21    -1     0     0   511   501  0.000000000E+00  0.000000000E+00  2.341312682E+03  2.341312682E+03  0.000000000E+00  0.00000E+00  9.000E+00
      21    -1     0     0   501   502  0.000000000E+00  0.000000000E+00 -2.137465403E+01  2.137465403E+01  0.000000000E+00  0.00000E+00  9.000E+00
      25     1     1     2     0     0 -4.703517111E+01  1.382108698E+02  6.024909542E+02  6.324040652E+02  1.250000000E+02  0.00000E+00  9.000E+00
      25     1     1     2     0     0  4.865889555E+01 -1.113796449E+02  1.254654521E+03  1.266710733E+03  1.250000000E+02  0.00000E+00  9.000E+00
      21     1     1     2   511   502 -1.623724439E+00 -2.683122485E+01  4.627925531E+02  4.635725383E+02  7.629394531E-06  0.00000E+00  9.000E+00
#rwgt            1           1  0.12471358409608940                1      277696           0
</event>
<event>
      5   9999  3.79277E-02  6.88355E+01 -1.00000E+00  1.31591E-01
      21    -1     0     0   502   501  0.000000000E+00  0.000000000E+00  7.366005507E+01  7.366005507E+01  0.000000000E+00  0.00000E+00  9.000E+00
      21    -1     0     0   501   512  0.000000000E+00  0.000000000E+00 -9.352975821E+02  9.352975821E+02  0.000000000E+00  0.00000E+00  9.000E+00
      25     1     1     2     0     0 -1.205343808E+02 -8.425069807E+01 -2.851370653E+02  3.443179680E+02  1.250000000E+02  0.00000E+00  9.000E+00
      25     1     1     2     0     0  5.206583477E+01  9.134842787E+01 -1.192572953E+02  2.022441319E+02  1.250000000E+02  0.00000E+00  9.000E+00
      21     1     1     2   502   512  6.846854605E+01 -7.097729808E+00 -4.572431665E+02  4.623955373E+02  9.344061824E-06  0.00000E+00  9.000E+00
#rwgt            1           1   3.9841760572678409E-002           1      277906           0
</event>
<event>
      5   9999  3.79277E-02  9.74204E+01 -1.00000E+00  1.24341E-01
      21    -1     0     0   511   501  0.000000000E+00  0.000000000E+00  6.546347729E+01  6.546347729E+01  0.000000000E+00  0.00000E+00  9.000E+00
      21    -1     0     0   501   502  0.000000000E+00  0.000000000E+00 -1.286233790E+03  1.286233790E+03  0.000000000E+00  0.00000E+00  9.000E+00
      25     1     1     2     0     0 -3.472019628E+01  6.885225227E+01 -8.872578140E+02  8.993317258E+02  1.250000000E+02  0.00000E+00  9.000E+00
      25     1     1     2     0     0  1.265662267E+02 -1.013336946E+02 -1.927947183E+02  2.812158083E+02  1.250000000E+02  0.00000E+00  9.000E+00
      21     1     1     2   511   502 -9.184603045E+01  3.248144236E+01 -1.407177801E+02  1.711497328E+02  3.303624740E-06  0.00000E+00  9.000E+00
#rwgt            1           1   3.8023925973129195E-002           1      278017           0
</event>
<event>
      5   9999  3.79277E-02  1.18423E+02 -1.00000E+00  1.20613E-01
      21    -1     0     0   512   501  0.000000000E+00  0.000000000E+00  3.018592879E+02  3.018592879E+02  0.000000000E+00  0.00000E+00  9.000E+00
      21    -1     0     0   501   502  0.000000000E+00  0.000000000E+00 -2.953604343E+02  2.953604343E+02  0.000000000E+00  0.00000E+00  9.000E+00
      25     1     1     2     0     0  1.826707680E+02  1.292541406E+02 -1.197334728E+02  2.829069579E+02  1.250000000E+02  0.00000E+00  9.000E+00
      25     1     1     2     0     0 -9.971099104E+01 -4.474608190E+01  9.714126813E+01  1.923692272E+02  1.250000000E+02  0.00000E+00  9.000E+00
      21     1     1     2   512   502 -8.295977700E+01 -8.450805865E+01  2.909105828E+01  1.219435371E+02  1.215700987E-06  0.00000E+00  9.000E+00
#rwgt            1           1   8.2465470928924006E-002           1      278064           0
</event>
<event>
      5   9999  3.79277E-02  2.60131E+01 -1.00000E+00  1.57469E-01
      21    -1     0     0   511   501  0.000000000E+00  0.000000000E+00  4.972433827E+02  4.972433827E+02  0.000000000E+00  0.00000E+00  9.000E+00
      21    -1     0     0   501   502  0.000000000E+00  0.000000000E+00 -2.566072978E+02  2.566072978E+02  0.000000000E+00  0.00000E+00  9.000E+00
      25     1     1     2     0     0  4.082680545E+01 -1.315412633E+02  4.147639021E+02  4.545591562E+02  1.250000000E+02  0.00000E+00  9.000E+00
      25     1     1     2     0     0 -6.460107923E+01  1.209835843E+02 -1.925506001E+02  2.674155207E+02  1.250000000E+02  0.00000E+00  9.000E+00
      21     1     1     2   511   502  2.377427378E+01  1.055767896E+01  1.842278281E+01  3.187600360E+01  4.129530925E-07  0.00000E+00  9.000E+00
#rwgt            1           1   4.5633924572146760E-002           1      278131           0
</event>
<event>
      5   9999  3.79277E-02  2.30055E+01 -1.00000E+00  1.61504E-01
      21    -1     0     0   502   501  0.000000000E+00  0.000000000E+00  7.892652850E+02  7.892652850E+02  0.000000000E+00  0.00000E+00  9.000E+00
      21    -1     0     0   501   512  0.000000000E+00  0.000000000E+00 -2.327795140E+02  2.327795140E+02  0.000000000E+00  0.00000E+00  9.000E+00
      25     1     1     2     0     0 -2.748301111E+01  1.250422900E+02  1.576080118E+02  2.384453304E+02  1.250000000E+02  0.00000E+00  9.000E+00
      25     1     1     2     0     0  3.277605654E+01 -1.026539808E+02  5.789756722E+02  6.020381539E+02  1.250000000E+02  0.00000E+00  9.000E+00
      21     1     1     2   502   512 -5.293045429E+00 -2.238830917E+01 -1.800979131E+02  1.815613148E+02  2.697398305E-06  0.00000E+00  9.000E+00
#rwgt            1           1   3.6877121548485665E-002           1      278304           0
</event>
<event>
      5   9999  3.79277E-02  2.93161E+01 -1.00000E+00  1.53739E-01
      21    -1     0     0   502   501  0.000000000E+00  0.000000000E+00  7.091847215E+01  7.091847215E+01  0.000000000E+00  0.00000E+00  9.000E+00
      21    -1     0     0   511   502  0.000000000E+00  0.000000000E+00 -9.322863780E+02  9.322863780E+02  0.000000000E+00  0.00000E+00  9.000E+00
      25     1     1     2     0     0  1.149759036E+02 -2.189161432E+01 -1.784928380E+02  2.473527732E+02  1.250000000E+02  0.00000E+00  9.000E+00
      25     1     1     2     0     0 -1.048547515E+02  4.940513595E+01 -1.653222692E+02  2.374696593E+02  1.250000000E+02  0.00000E+00  9.000E+00
      21     1     1     2   511   501 -1.012115204E+01 -2.751352163E+01 -5.175527987E+02  5.183824177E+02  1.078959322E-05  0.00000E+00  9.000E+00
#rwgt            1           1   3.5124558030180969E-002           1      278589           0
</event>
<event>
      5   9999  3.79277E-02  1.75385E+01 -1.00000E+00  1.71217E-01
      21    -1     0     0   512   501  0.000000000E+00  0.000000000E+00  6.908197625E+02  6.908197625E+02  0.000000000E+00  0.00000E+00  9.000E+00
      21    -1     0     0   501   502  0.000000000E+00  0.000000000E+00 -7.923447919E+01  7.923447919E+01  0.000000000E+00  0.00000E+00  9.000E+00
      25     1     1     2     0     0  2.260448842E+01  1.736765937E+02  2.421449075E+02  3.239346822E+02  1.250000000E+02  0.00000E+00  9.000E+00
      25     1     1     2     0     0 -2.828565325E+01 -1.902695004E+02  3.205810971E+02  3.942078142E+02  1.250000000E+02  0.00000E+00  9.000E+00
      21     1     1     2   512   502  5.681164830E+00  1.659290666E+01  4.885927862E+01  5.191174522E+01  0.000000000E+00  0.00000E+00  9.000E+00
#rwgt            1           1   2.7779290457056155E-002           1      278724           0
</event>
<event>
      5   9999  3.79277E-02  1.10952E+01 -1.00000E+00  1.90680E-01
      21    -1     0     0   511   501  0.000000000E+00  0.000000000E+00  1.837277231E+03  1.837277231E+03  0.000000000E+00  0.00000E+00  9.000E+00
      21    -1     0     0   501   502  0.000000000E+00  0.000000000E+00 -2.878633661E+02  2.878633661E+02  0.000000000E+00  0.00000E+00  9.000E+00
      25     1     1     2     0     0 -2.088748503E+01 -1.975352646E+02  1.153423730E+02  2.615058906E+02  1.250000000E+02  0.00000E+00  9.000E+00
      25     1     1     2     0     0  9.818574809E+00  1.982988002E+02 -1.506868734E+02  2.788375018E+02  1.250000000E+02  0.00000E+00  9.000E+00
      21     1     1     2   511   502  1.106891022E+01 -7.635355424E-01  1.584758365E+03  1.584797205E+03  0.000000000E+00  0.00000E+00  9.000E+00
#rwgt            1           1   7.5885701519113205E-003           1      278938           0
</event>
<event>
      5   9999  3.79277E-02  3.65129E+01 -1.00000E+00  1.47341E-01
       3    -1     0     0   502     0  0.000000000E+00  0.000000000E+00  1.812673680E+02  1.812673680E+02  0.000000000E+00  0.00000E+00  9.000E+00
      21    -1     0     0   501   502  0.000000000E+00  0.000000000E+00 -7.265368151E+02  7.265368151E+02  0.000000000E+00  0.00000E+00  9.000E+00
      25     1     1     2     0     0  8.400974338E+01 -1.169541876E+02 -5.867476943E+02  6.169552462E+02  1.250000000E+02  0.00000E+00  9.000E+00
      25     1     1     2     0     0 -4.850534713E+01  1.254764623E+02 -5.169778839E+01  1.907741403E+02  1.250000000E+02  0.00000E+00  9.000E+00
       3     1     1     2   501     0 -3.550439625E+01 -8.522274768E+00  9.317603553E+01  1.000747966E+02  0.000000000E+00  0.00000E+00  9.000E+00
#rwgt            1           1   4.4953026248056388E-002           1      279276           0
</event>
<event>
      5   9999  3.79277E-02  1.10651E+02 -1.00000E+00  1.21883E-01
      21    -1     0     0   502   501  0.000000000E+00  0.000000000E+00  1.261222997E+03  1.261222997E+03  0.000000000E+00  0.00000E+00  9.000E+00
      21    -1     0     0   511   502  0.000000000E+00  0.000000000E+00 -9.279846501E+01  9.279846501E+01  0.000000000E+00  0.00000E+00  9.000E+00
      25     1     1     2     0     0 -1.286591272E+01 -2.431361345E+02  4.197965373E+02  5.011335594E+02  1.250000000E+02  0.00000E+00  9.000E+00
      25     1     1     2     0     0  9.497819878E+01  1.689652517E+02  6.902856439E+02  7.277976262E+02  1.250000000E+02  0.00000E+00  9.000E+00
      21     1     1     2   511   501 -8.211228606E+01  7.417088287E+01  5.834235099E+01  1.250902766E+02  1.507891493E-06  0.00000E+00  9.000E+00
#rwgt            1           1   3.5757271964139074E-002           1      279486           0
</event>
<event>
      5   9999  3.79277E-02  4.01889E+01 -1.00000E+00  1.44713E-01
      21    -1     0     0   502   501  0.000000000E+00  0.000000000E+00  1.665714558E+03  1.665714558E+03  0.000000000E+00  0.00000E+00  9.000E+00
      21    -1     0     0   512   502  0.000000000E+00  0.000000000E+00 -1.409171620E+02  1.409171620E+02  0.000000000E+00  0.00000E+00  9.000E+00
      25     1     1     2     0     0  4.025115062E+02  1.224536350E+02  7.850924247E+02  8.994473418E+02  1.250000000E+02  0.00000E+00  9.000E+00
      25     1     1     2     0     0 -3.644650424E+02 -1.354000843E+02  7.595327111E+02  8.623705057E+02  1.250000000E+02  0.00000E+00  9.000E+00
      21     1     1     2   512   501 -3.804646378E+01  1.294644928E+01 -1.982773939E+01  4.481387290E+01  1.390207266E-06  0.00000E+00  9.000E+00
#rwgt            1           1   2.7889838774849188E-002           1      279648           0
</event>
<event>
      5   9999  3.79277E-02  5.51303E+01 -1.00000E+00  1.36698E-01
      21    -1     0     0   502   501  0.000000000E+00  0.000000000E+00  1.430095507E+02  1.430095507E+02  0.000000000E+00  0.00000E+00  9.000E+00
      21    -1     0     0   501   511  0.000000000E+00  0.000000000E+00 -7.079136314E+02  7.079136314E+02  0.000000000E+00  0.00000E+00  9.000E+00
      25     1     1     2     0     0 -2.426602603E+00 -1.694011450E+02 -1.815559169E+02  2.780111280E+02  1.250000000E+02  0.00000E+00  9.000E+00
      25     1     1     2     0     0 -5.269471145E+01  1.703962617E+02 -3.544131550E+01  2.206642370E+02  1.250000000E+02  0.00000E+00  9.000E+00
      21     1     1     2   502   511  5.512131405E+01 -9.951166916E-01 -3.479068483E+02  3.522478171E+02  6.607249480E-06  0.00000E+00  9.000E+00
#rwgt            1           1   3.5509255843141463E-002           1      279845           0
</event>
<event>
      5   9999  3.79277E-02  1.26430E+01 -1.00000E+00  1.84676E-01
      21    -1     0     0   502   501  0.000000000E+00  0.000000000E+00  2.149897853E+02  2.149897853E+02  0.000000000E+00  0.00000E+00  9.000E+00
      21    -1     0     0   512   502  0.000000000E+00  0.000000000E+00 -2.577457087E+02  2.577457087E+02  0.000000000E+00  0.00000E+00  9.000E+00
      25     1     1     2     0     0 -1.056383370E+02 -1.161376823E+02  7.927905564E+01  2.157720746E+02  1.250000000E+02  0.00000E+00  9.000E+00
      25     1     1     2     0     0  1.024869506E+02  1.038937309E+02 -7.174622050E+01  2.051097329E+02  1.250000000E+02  0.00000E+00  9.000E+00
      21     1     1     2   512   501  3.151386385E+00  1.224395144E+01 -5.028875848E+01  5.185368658E+01  0.000000000E+00  0.00000E+00  9.000E+00
#rwgt            1           1   4.1543055255322849E-002           1      279977           0
</event>
<event>
      5   9999  3.79277E-02  1.71289E+01 -1.00000E+00  1.72120E-01
      21    -1     0     0   502   511  0.000000000E+00  0.000000000E+00  1.836237805E+03  1.836237805E+03  0.000000000E+00  0.00000E+00  9.000E+00
      21    -1     0     0   501   502  0.000000000E+00  0.000000000E+00 -5.323853217E+02  5.323853217E+02  0.000000000E+00  0.00000E+00  9.000E+00
      25     1     1     2     0     0 -9.787843567E+01 -7.544304022E+01 -1.867269969E+02  2.564445591E+02  1.250000000E+02  0.00000E+00  9.000E+00
      25     1     1     2     0     0  8.120258293E+01  7.935669975E+01 -2.878173634E+02  3.336992357E+02  1.250000000E+02  0.00000E+00  9.000E+00
      21     1     1     2   501   511  1.667585275E+01 -3.913659532E+00  1.778396844E+03  1.778479332E+03  3.051757812E-05  0.00000E+00  9.000E+00
#rwgt            1           1   4.0072867273293067E-002           1      280279           0
</event>
<event>
      5   9999  3.79277E-02  6.62822E+01 -1.00000E+00  1.32432E-01
       2    -1     0     0   502     0  0.000000000E+00  0.000000000E+00  3.197350721E+03  3.197350721E+03  0.000000000E+00  0.00000E+00  9.000E+00
      21    -1     0     0   501   502  0.000000000E+00  0.000000000E+00 -1.275489531E+02  1.275489531E+02  0.000000000E+00  0.00000E+00  9.000E+00
      25     1     1     2     0     0  4.973718135E+02 -1.705312197E+02  1.063619470E+03  1.193051128E+03  1.250000000E+02  0.00000E+00  9.000E+00
      25     1     1     2     0     0 -4.344380630E+02  1.497303590E+02  8.543252625E+02  9.780860213E+02  1.250000000E+02  0.00000E+00  9.000E+00
       2     1     1     2   501     0 -6.293375047E+01  2.080086062E+01  1.151857036E+03  1.153762525E+03  1.525878906E-05  0.00000E+00  9.000E+00
#rwgt            1           1  0.27264197337481239                1      280568           0
</event>
<event>
      5   9999  3.79277E-02  6.63559E+00 -1.00000E+00  2.18888E-01
      21    -1     0     0   502   511  0.000000000E+00  0.000000000E+00  4.894110999E+01  4.894110999E+01  0.000000000E+00  0.00000E+00  9.000E+00
      21    -1     0     0   501   502  0.000000000E+00  0.000000000E+00 -1.222316651E+03  1.222316651E+03  0.000000000E+00  0.00000E+00  9.000E+00
      25     1     1     2     0     0  6.108935352E+01  2.518349117E+01 -1.010194164E+03  1.020040865E+03  1.250000000E+02  0.00000E+00  9.000E+00
      25     1     1     2     0     0 -5.814013363E+01 -3.112766125E+01 -1.824797497E+02  2.308095870E+02  1.250000000E+02  0.00000E+00  9.000E+00
      21     1     1     2   501   511 -2.949219897E+00  5.944170081E+00  1.929837283E+01  2.040730874E+01  1.305872339E-06  0.00000E+00  9.000E+00
#rwgt            2          11   6.3477637493487675E-004           1      280763           0
</event>
<event>
      5   9999  3.79277E-02  3.48303E+01 -1.00000E+00  1.48669E-01
      21    -1     0     0   502   501  0.000000000E+00  0.000000000E+00  3.342931878E+02  3.342931878E+02  0.000000000E+00  0.00000E+00  9.000E+00
      21    -1     0     0   501   512  0.000000000E+00  0.000000000E+00 -1.217080639E+02  1.217080639E+02  0.000000000E+00  0.00000E+00  9.000E+00
      25     1     1     2     0     0 -1.086975719E+02  2.298461889E+01  1.786619210E+02  2.447213454E+02  1.250000000E+02  0.00000E+00  9.000E+00
      25     1     1     2     0     0  1.059209181E+02 -5.770408549E+01  2.793092957E+01  1.759378845E+02  1.250000000E+02  0.00000E+00  9.000E+00
      21     1     1     2   502   512  2.776653797E+00  3.471946660E+01  5.992273352E+00  3.534202183E+01  4.042583694E-07  0.00000E+00  9.000E+00
#rwgt            1           1   4.4401785776593872E-002           1      280813           0
</event>
<event>
      5   9999  3.79277E-02  2.11283E+01 -1.00000E+00  1.64426E-01
      21    -1     0     0   511   501  0.000000000E+00  0.000000000E+00  1.868976044E+02  1.868976044E+02  0.000000000E+00  0.00000E+00  9.000E+00
      21    -1     0     0   501   502  0.000000000E+00  0.000000000E+00 -2.740327630E+02  2.740327630E+02  0.000000000E+00  0.00000E+00  9.000E+00
      25     1     1     2     0     0 -6.585827841E+01  8.400914343E+01 -1.729267824E+02  2.385865065E+02  1.250000000E+02  0.00000E+00  9.000E+00
      25     1     1     2     0     0  8.554657590E+01 -7.634267667E+01  4.356537568E+01  1.751267052E+02  1.250000000E+02  0.00000E+00  9.000E+00
      21     1     1     2   511   502 -1.968829749E+01 -7.666466762E+00  4.222624806E+01  4.721715574E+01  6.743495762E-07  0.00000E+00  9.000E+00
#rwgt            1           1   3.8258827505329586E-002           1      280921           0
</event>
<event>
      5   9999  3.79277E-02  1.74412E+01 -1.00000E+00  1.71429E-01
      21    -1     0     0   512   501  0.000000000E+00  0.000000000E+00  3.241639952E+02  3.241639952E+02  0.000000000E+00  0.00000E+00  9.000E+00
      21    -1     0     0   501   502  0.000000000E+00  0.000000000E+00 -2.196144330E+02  2.196144330E+02  0.000000000E+00  0.00000E+00  9.000E+00
      25     1     1     2     0     0 -1.491523190E+02 -4.094446164E+01 -1.113704567E+02  2.279281506E+02  1.250000000E+02  0.00000E+00  9.000E+00
      25     1     1     2     0     0  1.650749865E+02  4.806229829E+01  2.047459171E+02  2.951366231E+02  1.250000000E+02  0.00000E+00  9.000E+00
      21     1     1     2   512   502 -1.592266752E+01 -7.117836646E+00  1.117410164E+01  2.071365460E+01  2.064765462E-07  0.00000E+00  9.000E+00
#rwgt            1           1   3.8055985656870440E-002           1      281092           0
</event>
<event>
      5   9999  3.79277E-02  6.64153E+01 -1.00000E+00  1.32387E-01
      21    -1     0     0   502   511  0.000000000E+00  0.000000000E+00  4.527456755E+02  4.527456755E+02  0.000000000E+00  0.00000E+00  9.000E+00
      21    -1     0     0   501   502  0.000000000E+00  0.000000000E+00 -1.529657685E+02  1.529657685E+02  0.000000000E+00  0.00000E+00  9.000E+00
      25     1     1     2     0     0 -7.398800638E+01 -7.326024528E+01 -5.145592399E+01  1.706282531E+02  1.250000000E+02  0.00000E+00  9.000E+00
      25     1     1     2     0     0  9.802793534E+00  9.032647657E+01  1.233754139E+02  1.977408908E+02  1.250000000E+02  0.00000E+00  9.000E+00
      21     1     1     2   501   511  6.418521285E+01 -1.706623129E+01  2.278604170E+02  2.373423002E+02  2.697398305E-06  0.00000E+00  9.000E+00
#rwgt            1           1   4.9254458535405887E-002           1      281401           0
</event>
<event>
      5   9999  3.79277E-02  2.01652E+02 -1.00000E+00  1.11518E-01
      21    -1     0     0   502   501  0.000000000E+00  0.000000000E+00  2.860248351E+02  2.860248351E+02  0.000000000E+00  0.00000E+00  9.000E+00
      21    -1     0     0   512   502  0.000000000E+00  0.000000000E+00 -5.512421465E+02  5.512421465E+02  0.000000000E+00  0.00000E+00  9.000E+00
      25     1     1     2     0     0  2.161752955E+02  4.245803972E+01  1.498729001E+02  2.943150178E+02  1.250000000E+02  0.00000E+00  9.000E+00
      25     1     1     2     0     0 -3.239703153E+01  4.054313435E+01 -2.416553216E+02  2.769758254E+02  1.250000000E+02  0.00000E+00  9.000E+00
      21     1     1     2   512   501 -1.837782639E+02 -8.300117407E+01 -1.734348899E+02  2.659761385E+02  3.814697266E-06  0.00000E+00  9.000E+00
#rwgt            1           1   4.4958567743860187E-002           1      281478           0
</event>
<event>
      5   9999  3.79277E-02  7.97737E+01 -1.00000E+00  1.28409E-01
       2    -1     0     0   502     0  0.000000000E+00  0.000000000E+00  2.785573319E+03  2.785573319E+03  0.000000000E+00  0.00000E+00  9.000E+00
      21    -1     0     0   501   502  0.000000000E+00  0.000000000E+00 -5.227741721E+01  5.227741721E+01  0.000000000E+00  0.00000E+00  9.000E+00
      25     1     1     2     0     0  9.831589440E+01  1.569232648E+02  6.168650123E+02  6.560780209E+02  1.250000000E+02  0.00000E+00  9.000E+00
      25     1     1     2     0     0 -7.369691155E+01 -2.328030963E+02  5.628180765E+02  6.261131716E+02  1.250000000E+02  0.00000E+00  9.000E+00
       2     1     1     2   501     0 -2.461898286E+01  7.587983153E+01  1.553612813E+03  1.555659544E+03  0.000000000E+00  0.00000E+00  9.000E+00
#rwgt            1           1   2.0148615400437365E-002           1      281603           0
</event>
<event>
      5   9999  3.79277E-02  6.17643E+01 -1.00000E+00  1.34034E-01
      21    -1     0     0   502   511  0.000000000E+00  0.000000000E+00  6.921884005E+01  6.921884005E+01  0.000000000E+00  0.00000E+00  9.000E+00
      21    -1     0     0   501   502  0.000000000E+00  0.000000000E+00 -7.063818018E+02  7.063818018E+02  0.000000000E+00  0.00000E+00  9.000E+00
      25     1     1     2     0     0 -5.838021226E+01 -6.648231154E+00 -1.628333129E+02  2.135231508E+02  1.250000000E+02  0.00000E+00  9.000E+00
      25     1     1     2     0     0  5.369101717E+01 -5.493781812E+01 -4.781911108E+02  5.001925906E+02  1.250000000E+02  0.00000E+00  9.000E+00
      21     1     1     2   501   511  4.689195089E+00  6.158604928E+01  3.861461938E+00  6.188490046E+01  9.712082587E-07  0.00000E+00  9.000E+00
#rwgt            1           1   3.5888188383075371E-002           1      281684           0
</event>
<event>
      5   9999  3.79277E-02  4.08755E+01 -1.00000E+00  1.44259E-01
      21    -1     0     0   512   501  0.000000000E+00  0.000000000E+00  3.217564807E+01  3.217564807E+01  0.000000000E+00  0.00000E+00  9.000E+00
      21    -1     0     0   501   502  0.000000000E+00  0.000000000E+00 -1.576508007E+03  1.576508007E+03  0.000000000E+00  0.00000E+00  9.000E+00
      25     1     1     2     0     0 -6.316928846E+01  1.414857616E+01 -1.195461167E+03  1.203720459E+03  1.250000000E+02  0.00000E+00  9.000E+00
      25     1     1     2     0     0  6.868049861E+01 -5.465087083E+01 -3.210136619E+02  3.554975382E+02  1.250000000E+02  0.00000E+00  9.000E+00
      21     1     1     2   512   502 -5.511210149E+00  4.050229467E+01 -2.785752931E+01  4.946565728E+01  1.469710828E-06  0.00000E+00  9.000E+00
#rwgt            1           1   5.4909111777838089E-002           1      281753           0
</event>
<event>
      5   9999  3.79277E-02  4.82971E+00 -1.00000E+00  2.45563E-01
      21    -1     0     0   502   501  0.000000000E+00  0.000000000E+00  2.829666150E+03  2.829666150E+03  0.000000000E+00  0.00000E+00  9.000E+00
      21    -1     0     0   511   502  0.000000000E+00  0.000000000E+00 -1.776951622E+01  1.776951622E+01  0.000000000E+00  0.00000E+00  9.000E+00
      25     1     1     2     0     0  1.057055450E+02 -1.305953458E+02  1.239731022E+03  1.257293448E+03  1.250000000E+02  0.00000E+00  9.000E+00
      25     1     1     2     0     0 -1.080455802E+02  1.348203144E+02  1.570678502E+03  1.585088742E+03  1.250000000E+02  0.00000E+00  9.000E+00
      21     1     1     2   511   501  2.340035242E+00 -4.224968684E+00  1.487109667E+00  5.053476078E+00  3.519955817E-07  0.00000E+00  9.000E+00
#rwgt            1           1   4.1805110725014423E-002           1      281857           0
</event>
<event>
      5   9999  3.79277E-02  2.74468E+01 -1.00000E+00  1.55772E-01
      21    -1     0     0   502   501  0.000000000E+00  0.000000000E+00  1.817706487E+03  1.817706487E+03  0.000000000E+00  0.00000E+00  9.000E+00
      21    -1     0     0   501   512  0.000000000E+00  0.000000000E+00 -1.078361307E+02  1.078361307E+02  0.000000000E+00  0.00000E+00  9.000E+00
      25     1     1     2     0     0 -6.461158261E+00 -9.319179207E+01  7.303502695E+02  7.468353050E+02  1.250000000E+02  0.00000E+00  9.000E+00
      25     1     1     2     0     0  3.144879817E+01  1.045472844E+02  1.070699804E+03  1.083486148E+03  1.250000000E+02  0.00000E+00  9.000E+00
      21     1     1     2   502   512 -2.498763991E+01 -1.135549232E+01 -9.117971748E+01  9.522116484E+01  2.697398305E-06  0.00000E+00  9.000E+00
#rwgt            1           1   9.7832252892225482E-002           1      282279           0
</event>
<event>
      5   9999  3.79277E-02  9.91020E+01 -1.00000E+00  1.24004E-01
      21    -1     0     0   511   501  0.000000000E+00  0.000000000E+00  5.366520476E+02  5.366520476E+02  0.000000000E+00  0.00000E+00  9.000E+00
      21    -1     0     0   501   502  0.000000000E+00  0.000000000E+00 -2.749070301E+02  2.749070301E+02  0.000000000E+00  0.00000E+00  9.000E+00
      25     1     1     2     0     0 -1.253635516E+02  9.909508667E+01 -5.469083727E+01  2.101236397E+02  1.250000000E+02  0.00000E+00  9.000E+00
      25     1     1     2     0     0  5.426753929E+01 -1.681353330E+02 -4.975645448E+01  2.220701708E+02  1.250000000E+02  0.00000E+00  9.000E+00
      21     1     1     2   511   502  7.109601235E+01  6.904024631E+01  3.661923092E+02  3.793652672E+02  0.000000000E+00  0.00000E+00  9.000E+00
#rwgt            1           1   4.1522817643603320E-002           1      282473           0
</event>
<event>
      5   9999  3.79277E-02  1.11791E+02 -1.00000E+00  1.21689E-01
      21    -1     0     0   512   501  0.000000000E+00  0.000000000E+00  1.453429889E+03  1.453429889E+03  0.000000000E+00  0.00000E+00  9.000E+00
      21    -1     0     0   501   502  0.000000000E+00  0.000000000E+00 -1.137289880E+02  1.137289880E+02  0.000000000E+00  0.00000E+00  9.000E+00
      25     1     1     2     0     0  1.840538927E+02 -7.540389451E+01  3.932328287E+02  4.580596471E+02  1.250000000E+02  0.00000E+00  9.000E+00
      25     1     1     2     0     0 -7.430597277E+01  5.413130357E+01 -8.893440789E-01  1.551688324E+02  1.250000000E+02  0.00000E+00  9.000E+00
      21     1     1     2   512   502 -1.097479199E+02  2.127259094E+01  9.473574161E+02  9.539303973E+02  1.078959322E-05  0.00000E+00  9.000E+00
#rwgt            1           1  0.11391133892605897                1      282586           0
</event>
<event>
      5   9999  3.79277E-02  6.90696E+01 -1.00000E+00  1.31516E-01
       2    -1     0     0   502     0  0.000000000E+00  0.000000000E+00  2.584272595E+03  2.584272595E+03  0.000000000E+00  0.00000E+00  9.000E+00
      21    -1     0     0   501   502  0.000000000E+00  0.000000000E+00 -1.063972956E+02  1.063972956E+02  0.000000000E+00  0.00000E+00  9.000E+00
      25     1     1     2     0     0  8.465770952E+01  9.492169788E+01  2.034557364E+03  2.042357883E+03  1.250000000E+02  0.00000E+00  9.000E+00
      25     1     1     2     0     0 -1.242392508E+02 -3.831862603E+01 -1.854958777E+01  1.813085650E+02  1.250000000E+02  0.00000E+00  9.000E+00
       2     1     1     2   501     0  3.958154125E+01 -5.660307186E+01  4.618675240E+02  4.670034431E+02  0.000000000E+00  0.00000E+00  9.000E+00
#rwgt            1           1  0.14972434445288121                1      282672           0
</event>
<event>
      5   9999  3.79277E-02  1.30459E+01 -1.00000E+00  1.83291E-01
      21    -1     0     0   502   501  0.000000000E+00  0.000000000E+00  1.087550706E+02  1.087550706E+02  0.000000000E+00  0.00000E+00  9.000E+00
      21    -1     0     0   511   502  0.000000000E+00  0.000000000E+00 -7.170800924E+02  7.170800924E+02  0.000000000E+00  0.00000E+00  9.000E+00
      25     1     1     2     0     0 -5.700843608E+01 -1.555277215E+02 -4.481233333E+01  2.123016231E+02  1.250000000E+02  0.00000E+00  9.000E+00
      25     1     1     2     0     0  6.692439717E+01  1.640052392E+02 -4.524763406E+02  5.017334275E+02  1.250000000E+02  0.00000E+00  9.000E+00
      21     1     1     2   511   501 -9.915961083E+00 -8.477517746E+00 -1.110363479E+02  1.118001124E+02  1.907348633E-06  0.00000E+00  9.000E+00
#rwgt            1           1   3.9523482549639020E-002           1      282831           0
</event>
<event>
      5   9999  3.79277E-02  9.78519E+01 -1.00000E+00  1.24254E-01
      21    -1     0     0   502   501  0.000000000E+00  0.000000000E+00  1.289046442E+02  1.289046442E+02  0.000000000E+00  0.00000E+00  9.000E+00
      21    -1     0     0   501   512  0.000000000E+00  0.000000000E+00 -6.043359880E+02  6.043359880E+02  0.000000000E+00  0.00000E+00  9.000E+00
      25     1     1     2     0     0  1.165995980E+02  1.475586899E+02 -7.117134696E+01  2.367686505E+02  1.250000000E+02  0.00000E+00  9.000E+00
      25     1     1     2     0     0 -4.135916896E+01 -8.499778978E+01 -1.246813605E+02  2.002639428E+02  1.250000000E+02  0.00000E+00  9.000E+00
      21     1     1     2   502   512 -7.524042899E+01 -6.256090015E+01 -2.795786365E+02  2.962080390E+02  0.000000000E+00  0.00000E+00  9.000E+00
#rwgt            1           1   3.8138057702237854E-002           1      283122           0
</event>
<event>
      5   9999  3.79277E-02  6.86054E+01 -1.00000E+00  1.31665E-01
      21    -1     0     0   502   511  0.000000000E+00  0.000000000E+00  5.268395489E+01  5.268395489E+01  0.000000000E+00  0.00000E+00  9.000E+00
      21    -1     0     0   501   502  0.000000000E+00  0.000000000E+00 -3.577427254E+03  3.577427254E+03  0.000000000E+00  0.00000E+00  9.000E+00
      25     1     1     2     0     0  1.086377589E+02 -3.020113001E+01 -1.487524425E+03  1.497019768E+03  1.250000000E+02  0.00000E+00  9.000E+00
      25     1     1     2     0     0 -1.040618555E+02  9.865375260E+01 -2.053734917E+03  2.062526010E+03  1.250000000E+02  0.00000E+00  9.000E+00
      21     1     1     2   501   511 -4.575903383E+00 -6.845262259E+01  1.651604246E+01  7.056543126E+01  1.617033478E-06  0.00000E+00  9.000E+00
#rwgt            1           1   1.5345900346706220E-002           1      283199           0
</event>
<event>
      5   9999  3.79277E-02  2.59889E+01 -1.00000E+00  1.57499E-01
      21    -1     0     0   502   512  0.000000000E+00  0.000000000E+00  1.611022463E+02  1.611022463E+02  0.000000000E+00  0.00000E+00  9.000E+00
      21    -1     0     0   501   502  0.000000000E+00  0.000000000E+00 -5.899294450E+02  5.899294450E+02  0.000000000E+00  0.00000E+00  9.000E+00
      25     1     1     2     0     0  2.751748404E+02 -3.898533505E+00 -2.204228180E+02  3.740957231E+02  1.250000000E+02  0.00000E+00  9.000E+00
      25     1     1     2     0     0 -2.556298880E+02  2.102795668E+01 -2.035577217E+02  3.504990166E+02  1.250000000E+02  0.00000E+00  9.000E+00
      21     1     1     2   501   512 -1.954495243E+01 -1.712942318E+01 -4.846659010E+00  2.643695156E+01  3.318646170E-07  0.00000E+00  9.000E+00
#rwgt            1           1   3.4076290270522634E-002           1      283430           0
</event>
<event>
      5   9999  3.79277E-02  1.54998E+02 -1.00000E+00  1.15832E-01
      21    -1     0     0   502   501  0.000000000E+00  0.000000000E+00  9.454313162E+02  9.454313162E+02  0.000000000E+00  0.00000E+00  9.000E+00
       1    -1     0     0   501     0  0.000000000E+00  0.000000000E+00 -3.839265665E+02  3.839265665E+02  0.000000000E+00  0.00000E+00  9.000E+00
      25     1     1     2     0     0  1.301782214E+02 -1.430450147E+02  4.230847972E+01  2.341436590E+02  1.250000000E+02  0.00000E+00  9.000E+00
      25     1     1     2     0     0 -2.165166161E+02  2.717697797E+02  7.390764126E+02  8.261944092E+02  1.250000000E+02  0.00000E+00  9.000E+00
       1     1     1     2   502     0  8.633839464E+01 -1.287247650E+02 -2.198801426E+02  2.690198146E+02  4.672030912E-06  0.00000E+00  9.000E+00
#rwgt            1           1   4.5830129507599550E-002           1      283662           0
</event>
<event>
      5   9999  3.79277E-02  2.35853E+01 -1.00000E+00  1.60669E-01
      21    -1     0     0   511   501  0.000000000E+00  0.000000000E+00  2.886462983E+02  2.886462983E+02  0.000000000E+00  0.00000E+00  9.000E+00
      21    -1     0     0   501   502  0.000000000E+00  0.000000000E+00 -1.471913130E+02  1.471913130E+02  0.000000000E+00  0.00000E+00  9.000E+00
      25     1     1     2     0     0 -1.370408693E+02 -4.521251052E+01  1.331213857E+00  1.909218246E+02  1.250000000E+02  0.00000E+00  9.000E+00
      25     1     1     2     0     0  1.142807636E+02  5.139667539E+01  1.277521044E+02  2.182826410E+02  1.250000000E+02  0.00000E+00  9.000E+00
      21     1     1     2   511   502  2.276010568E+01 -6.184164871E+00  1.237166709E+01  2.663314575E+01  6.307962682E-07  0.00000E+00  9.000E+00
#rwgt            1           1   1.8988296402281779E-002           1      283739           0
</event>
<event>
      5   9999  3.79277E-02  2.64651E+01 -1.00000E+00  1.56920E-01
      21    -1     0     0   512   501  0.000000000E+00  0.000000000E+00  2.901942864E+01  2.901942864E+01  0.000000000E+00  0.00000E+00  9.000E+00
      21    -1     0     0   501   502  0.000000000E+00  0.000000000E+00 -2.448352446E+03  2.448352446E+03  0.000000000E+00  0.00000E+00  9.000E+00
      25     1     1     2     0     0 -9.038174646E+01  1.172888266E+02 -3.952108604E+02  4.401615080E+02  1.250000000E+02  0.00000E+00  9.000E+00
      25     1     1     2     0     0  6.569462706E+01 -1.268254355E+02 -1.933756146E+03  1.943048715E+03  1.250000000E+02  0.00000E+00  9.000E+00
      21     1     1     2   512   502  2.468711939E+01  9.536608887E+00 -9.036601010E+01  9.416165119E+01  1.348699152E-06  0.00000E+00  9.000E+00
#rwgt            1           1   9.7132094225898954E-002           1      283851           0
</event>
<event>
      5   9999  3.79277E-02  5.35937E+01 -1.00000E+00  1.37377E-01
      21    -1     0     0   502   501  0.000000000E+00  0.000000000E+00  2.682647311E+02  2.682647311E+02  0.000000000E+00  0.00000E+00  9.000E+00
       2    -1     0     0   501     0  0.000000000E+00  0.000000000E+00 -2.807921602E+03  2.807921602E+03  0.000000000E+00  0.00000E+00  9.000E+00
      25     1     1     2     0     0 -2.043309694E+01  8.197640555E+01  2.177589367E+02  2.649180949E+02  1.250000000E+02  0.00000E+00  9.000E+00
      25     1     1     2     0     0 -1.644397423E-01 -3.249891384E+01 -1.298137463E+02  1.831196744E+02  1.250000000E+02  0.00000E+00  9.000E+00
       2     1     1     2   502     0  2.059753669E+01 -4.947749171E+01 -2.627602061E+03  2.628148563E+03  3.051757812E-05  0.00000E+00  9.000E+00
#rwgt            1           1   3.8969764627160466E-002           1      284004           0
</event>
<event>
      5   9999  3.79277E-02  8.32212E+01 -1.00000E+00  1.27525E-01
      21    -1     0     0   502   511  0.000000000E+00  0.000000000E+00  1.846429886E+02  1.846429886E+02  0.000000000E+00  0.00000E+00  9.000E+00
      21    -1     0     0   501   502  0.000000000E+00  0.000000000E+00 -3.205400863E+02  3.205400863E+02  0.000000000E+00  0.00000E+00  9.000E+00
      25     1     1     2     0     0  1.429404901E+01  7.420928401E+01  5.987722697E+01  1.578658290E+02  1.250000000E+02  0.00000E+00  9.000E+00
      25     1     1     2     0     0  4.588735814E+01 -1.316893582E+02 -1.852722877E+02  2.634360592E+02  1.250000000E+02  0.00000E+00  9.000E+00
      21     1     1     2   501   511 -6.018140715E+01  5.748007421E+01 -1.050203697E+01  8.388118668E+01  9.973764736E-07  0.00000E+00  9.000E+00
#rwgt            1           1   3.6891053747160264E-002           1      284131           0
</event>
<event>
      5   9999  3.79277E-02  1.27775E+02 -1.00000E+00  1.19222E-01
       2    -1     0     0   502     0  0.000000000E+00  0.000000000E+00  2.089535685E+03  2.089535685E+03  0.000000000E+00  0.00000E+00  9.000E+00
      21    -1     0     0   501   502  0.000000000E+00  0.000000000E+00 -8.200460212E+02  8.200460212E+02  0.000000000E+00  0.00000E+00  9.000E+00
      25     1     1     2     0     0 -7.674511636E+01 -1.252114502E+02 -3.507921196E+01  1.960185482E+02  1.250000000E+02  0.00000E+00  9.000E+00
      25     1     1     2     0     0  2.331838340E+01  9.142063390E+00 -6.966755924E+02  7.082437471E+02  1.250000000E+02  0.00000E+00  9.000E+00
       2     1     1     2   501     0  5.342673296E+01  1.160693868E+02  2.001244468E+03  2.005319411E+03  3.051757812E-05  0.00000E+00  9.000E+00
#rwgt            1           1   4.9705535614364534E-002           1      284268           0
</event>
<event>
      5   9999  3.79277E-02  2.04471E+02 -1.00000E+00  1.11300E-01
      21    -1     0     0   502   501  0.000000000E+00  0.000000000E+00  6.173074037E+02  6.173074037E+02  0.000000000E+00  0.00000E+00  9.000E+00
       2    -1     0     0   501     0  0.000000000E+00  0.000000000E+00 -9.803523756E+02  9.803523756E+02  0.000000000E+00  0.00000E+00  9.000E+00
      25     1     1     2     0     0 -3.491860545E+01  2.103735816E+02  4.951373482E+02  5.534097455E+02  1.250000000E+02  0.00000E+00  9.000E+00
      25     1     1     2     0     0 -1.496935200E+01 -1.208215821E+01  3.235164725E+01  1.305438207E+02  1.250000000E+02  0.00000E+00  9.000E+00
       2     1     1     2   502     0  4.988795745E+01 -1.982914234E+02 -8.905339673E+02  9.137062131E+02  1.078959322E-05  0.00000E+00  9.000E+00
#rwgt            2          13   3.0345311427937547E-003           1      284386           0
</event>
<event>
      5   9999  3.79277E-02  8.38789E+01 -1.00000E+00  1.27362E-01
      -1    -1     0     0     0   501  0.000000000E+00  0.000000000E+00  2.575538775E+02  2.575538775E+02  0.000000000E+00  0.00000E+00  9.000E+00
      21    -1     0     0   501   502  0.000000000E+00  0.000000000E+00 -2.381192980E+02  2.381192980E+02  0.000000000E+00  0.00000E+00  9.000E+00
      25     1     1     2     0     0 -4.724736322E+01  2.971657705E+01  1.753134988E+02  2.224302388E+02  1.250000000E+02  0.00000E+00  9.000E+00
      25     1     1     2     0     0 -3.604252137E+01 -1.979380729E+01 -1.311723020E+02  1.858010521E+02  1.250000000E+02  0.00000E+00  9.000E+00
      -1     1     1     2     0   502  8.328988459E+01 -9.922769754E+00 -2.470661727E+01  8.744188454E+01  1.469710828E-06  0.00000E+00  9.000E+00
#rwgt            1           1   3.4831396066555532E-002           1      284630           0
</event>
<event>
      5   9999  3.79277E-02  5.03389E+01 -1.00000E+00  1.38908E-01
      21    -1     0     0   502   511  0.000000000E+00  0.000000000E+00  2.229303753E+02  2.229303753E+02  0.000000000E+00  0.00000E+00  9.000E+00
      21    -1     0     0   501   502  0.000000000E+00  0.000000000E+00 -2.713383094E+02  2.713383094E+02  0.000000000E+00  0.00000E+00  9.000E+00
      25     1     1     2     0     0  1.451921792E+02  5.501997024E+01 -1.890857709E+01  2.002261229E+02  1.250000000E+02  0.00000E+00  9.000E+00
      25     1     1     2     0     0 -1.915446989E+02 -7.465292520E+01 -3.603316497E+01  2.432813595E+02  1.250000000E+02  0.00000E+00  9.000E+00
      21     1     1     2   501   511  4.635251975E+01  1.963295496E+01  6.533808005E+00  5.076120226E+01  7.679521279E-07  0.00000E+00  9.000E+00
#rwgt            1           1   3.0830064268571312E-002           1      284821           0
</event>
<event>
      5   9999  3.79277E-02  3.25619E+01 -1.00000E+00  1.50608E-01
      21    -1     0     0   512   501  0.000000000E+00  0.000000000E+00  1.154572443E+03  1.154572443E+03  0.000000000E+00  0.00000E+00  9.000E+00
      21    -1     0     0   501   502  0.000000000E+00  0.000000000E+00 -2.709416886E+02  2.709416886E+02  0.000000000E+00  0.00000E+00  9.000E+00
      25     1     1     2     0     0  1.475165503E+02  1.280126433E+02 -3.547460721E+01  2.345886127E+02  1.250000000E+02  0.00000E+00  9.000E+00
      25     1     1     2     0     0 -1.473941819E+02 -1.605742880E+02 -1.925367627E+01  2.520016882E+02  1.250000000E+02  0.00000E+00  9.000E+00
      21     1     1     2   512   502 -1.223683525E-01  3.256164471E+01  9.383590384E+02  9.389238311E+02  0.000000000E+00  0.00000E+00  9.000E+00
#rwgt            1           1   3.9800447901797861E-002           1      284891           0
</event>
<event>
      5   9999  3.79277E-02  8.94853E+01 -1.00000E+00  1.26038E-01
      21    -1     0     0   502   501  0.000000000E+00  0.000000000E+00  6.938094938E+01  6.938094938E+01  0.000000000E+00  0.00000E+00  9.000E+00
       1    -1     0     0   501     0  0.000000000E+00  0.000000000E+00 -1.168888799E+03  1.168888799E+03  0.000000000E+00  0.00000E+00  9.000E+00
      25     1     1     2     0     0 -4.143836998E+01  2.365862435E+01 -2.437547500E+01  1.360001206E+02  1.250000000E+02  0.00000E+00  9.000E+00
      25     1     1     2     0     0 -4.797498185E+01 -2.724559250E+01 -4.361326108E+02  4.570345450E+02  1.250000000E+02  0.00000E+00  9.000E+00
       1     1     1     2   502     0  8.941335184E+01  3.586968148E+00 -6.389997641E+02  6.452350830E+02  1.078959322E-05  0.00000E+00  9.000E+00
#rwgt            1           1   1.8923390724323676E-002           1      285052           0
</event>
<event>
      5   9999  3.79277E-02  7.26767E+00 -1.00000E+00  2.13276E-01
      21    -1     0     0   502   501  0.000000000E+00  0.000000000E+00  1.044563659E+03  1.044563659E+03  0.000000000E+00  0.00000E+00  9.000E+00
      21    -1     0     0   501   511  0.000000000E+00  0.000000000E+00 -1.116369010E+02  1.116369010E+02  0.000000000E+00  0.00000E+00  9.000E+00
      25     1     1     2     0     0 -8.318791049E+01 -1.529631816E+02  6.213862295E+02  6.573156088E+02  1.250000000E+02  0.00000E+00  9.000E+00
      25     1     1     2     0     0  8.962082159E+01  1.563450085E+02  3.753150580E+02  4.346976491E+02  1.250000000E+02  0.00000E+00  9.000E+00
      21     1     1     2   502   511 -6.432911095E+00 -3.381826891E+00 -6.377452965E+01  6.418730194E+01  2.780414531E-06  0.00000E+00  9.000E+00
#rwgt            1           1   4.1930964456012340E-002           1      285113           0
</event>
<event>
      5   9999  3.79277E-02  1.41722E+01 -1.00000E+00  1.79738E-01
      21    -1     0     0   502   501  0.000000000E+00  0.000000000E+00  3.238482128E+02  3.238482128E+02  0.000000000E+00  0.00000E+00  9.000E+00
      21    -1     0     0   512   502  0.000000000E+00  0.000000000E+00 -1.473278342E+02  1.473278342E+02  0.000000000E+00  0.00000E+00  9.000E+00
      25     1     1     2     0     0  1.029163199E+02  1.048376898E+02  1.836228444E+02  2.663175907E+02  1.250000000E+02  0.00000E+00  9.000E+00
      25     1     1     2     0     0 -8.930475146E+01 -1.087844447E+02  1.563396585E+00  1.882467483E+02  1.250000000E+02  0.00000E+00  9.000E+00
      21     1     1     2   512   501 -1.361156847E+01  3.946754856E+00 -8.665862433E+00  1.661170798E+01  2.384185791E-07  0.00000E+00  9.000E+00
#rwgt            1           1   3.5620149650463791E-002           1      285524           0
</event>
<event>
      5   9999  3.79277E-02  2.11358E+01 -1.00000E+00  1.64414E-01
      -1    -1     0     0     0   501  0.000000000E+00  0.000000000E+00  1.482716329E+02  1.482716329E+02  0.000000000E+00  0.00000E+00  9.000E+00
      21    -1     0     0   501   502  0.000000000E+00  0.000000000E+00 -4.130202695E+02  4.130202695E+02  0.000000000E+00  0.00000E+00  9.000E+00
      25     1     1     2     0     0 -1.259773377E+01  1.846814061E+02 -2.096511823E+02  3.063405668E+02  1.250000000E+02  0.00000E+00  9.000E+00
      25     1     1     2     0     0 -8.054448674E+00 -1.801860565E+02 -6.854191339E+01  2.299018986E+02  1.250000000E+02  0.00000E+00  9.000E+00
      -1     1     1     2     0   502  2.065218244E+01 -4.495349637E+00  1.344445912E+01  2.504943690E+01  1.685873940E-07  0.00000E+00  9.000E+00
#rwgt            1           1   3.7234139477614427E-002           1      285845           0
</event>
<event>
      5   9999  3.79277E-02  5.14936E+01 -1.00000E+00  1.38350E-01
      21    -1     0     0   502   501  0.000000000E+00  0.000000000E+00  8.640739320E+02  8.640739320E+02  0.000000000E+00  0.00000E+00  9.000E+00
      21    -1     0     0   511   502  0.000000000E+00  0.000000000E+00 -3.820760576E+02  3.820760576E+02  0.000000000E+00  0.00000E+00  9.000E+00
      25     1     1     2     0     0 -2.451154532E+02 -2.186289860E+02  4.032717661E+02  5.349143261E+02  1.250000000E+02  0.00000E+00  9.000E+00
      25     1     1     2     0     0  1.981185573E+02  2.396738316E+02  3.206887993E+02  4.638543028E+02  1.250000000E+02  0.00000E+00  9.000E+00
      21     1     1     2   511   501  4.699689595E+01 -2.104484558E+01 -2.419626910E+02  2.473813606E+02  0.000000000E+00  0.00000E+00  9.000E+00
#rwgt            1           1   3.7904677491845541E-002           1      286023           0
</event>
<event>
      5   9999  3.79277E-02  1.87267E+01 -1.00000E+00  1.68761E-01
      21    -1     0     0   502   501  0.000000000E+00  0.000000000E+00  1.445845776E+02  1.445845776E+02  0.000000000E+00  0.00000E+00  9.000E+00
      21    -1     0     0   512   502  0.000000000E+00  0.000000000E+00 -4.205327296E+02  4.205327296E+02  0.000000000E+00  0.00000E+00  9.000E+00
      25     1     1     2     0     0 -1.097081854E+02 -8.555493196E+00  2.824471295E+01  1.689137242E+02  1.250000000E+02  0.00000E+00  9.000E+00
      25     1     1     2     0     0  1.265216614E+02  1.680158234E+01 -1.298380541E+02  2.208459741E+02  1.250000000E+02  0.00000E+00  9.000E+00
      21     1     1     2   512   501 -1.681347604E+01 -8.246089145E+00 -1.743548108E+02  1.753576089E+02  0.000000000E+00  0.00000E+00  9.000E+00
#rwgt            1           1   2.7987279353846359E-002           1      286167           0
</event>
<event>
      5   9999  3.79277E-02  1.19947E+02 -1.00000E+00  1.20376E-01
      21    -1     0     0   511   501  0.000000000E+00  0.000000000E+00  7.593415238E+01  7.593415238E+01  0.000000000E+00  0.00000E+00  9.000E+00
      21    -1     0     0   501   502  0.000000000E+00  0.000000000E+00 -9.885250161E+02  9.885250161E+02  0.000000000E+00  0.00000E+00  9.000E+00
      25     1     1     2     0     0 -1.727286600E+02  2.326909065E+01 -6.242431466E+02  6.600614719E+02  1.250000000E+02  0.00000E+00  9.000E+00
      25     1     1     2     0     0  8.648050632E+01  6.008905420E+01 -1.726404520E+02  2.377378768E+02  1.250000000E+02  0.00000E+00  9.000E+00
      21     1     1     2   511   502  8.624815370E+01 -8.335814485E+01 -1.157072651E+02  1.666598197E+02  1.348699152E-06  0.00000E+00  9.000E+00
#rwgt            1           1   3.8016851153433583E-002           1      286384           0
</event>
<event>
      5   9999  3.79277E-02  1.03959E+01 -1.00000E+00  1.93828E-01
      21    -1     0     0   502   512  0.000000000E+00  0.000000000E+00  9.008048693E+01  9.008048693E+01  0.000000000E+00  0.00000E+00  9.000E+00
      21    -1     0     0   501   502  0.000000000E+00  0.000000000E+00 -5.817843657E+02  5.817843657E+02  0.000000000E+00  0.00000E+00  9.000E+00
      25     1     1     2     0     0  1.773164229E+02 -5.252528254E+01 -2.619325594E+02  3.441419545E+02  1.250000000E+02  0.00000E+00  9.000E+00
      25     1     1     2     0     0 -1.777616953E+02  4.213896827E+01 -2.267794545E+02  3.169050866E+02  1.250000000E+02  0.00000E+00  9.000E+00
      21     1     1     2   501   512  4.452723487E-01  1.038631427E+01 -2.991864934E+00  1.081781158E+01  1.788139343E-07  0.00000E+00  9.000E+00
#rwgt            1           1   3.0369276562065464E-002           1      286445           0
</event>
<event>
      5   9999  3.79277E-02  1.94870E+02 -1.00000E+00  1.12060E-01
       3    -1     0     0   502     0  0.000000000E+00  0.000000000E+00  5.211662695E+03  5.211662695E+03  0.000000000E+00  0.00000E+00  9.000E+00
      21    -1     0     0   501   502  0.000000000E+00  0.000000000E+00 -1.641505709E+01  1.641505709E+01  0.000000000E+00  0.00000E+00  9.000E+00
      25     1     1     2     0     0 -8.938097825E+00 -1.301510901E+02  2.356379223E+03  2.363295842E+03  1.250000000E+02  0.00000E+00  9.000E+00
      25     1     1     2     0     0 -1.702922465E+01 -6.298081614E+01  5.555999934E+02  5.732128142E+02  1.250000000E+02  0.00000E+00  9.000E+00
       3     1     1     2   501     0  2.596732247E+01  1.931319062E+02  2.283268422E+03  2.291569096E+03  0.000000000E+00  0.00000E+00  9.000E+00
#rwgt            1           1   6.3068341905914649E-002           1      286648           0
</event>
<event>
      5   9999  3.79277E-02  3.48534E+01 -1.00000E+00  1.48650E-01
      21    -1     0     0   502   511  0.000000000E+00  0.000000000E+00  2.693150491E+02  2.693150491E+02  0.000000000E+00  0.00000E+00  9.000E+00
      21    -1     0     0   501   502  0.000000000E+00  0.000000000E+00 -2.292492101E+02  2.292492101E+02  0.000000000E+00  0.00000E+00  9.000E+00
      25     1     1     2     0     0  1.294941963E+02  1.147915154E+02 -7.899749360E+01  2.276212708E+02  1.250000000E+02  0.00000E+00  9.000E+00
      25     1     1     2     0     0 -9.466478295E+01 -1.160840779E+02  6.315803883E+01  2.050630930E+02  1.250000000E+02  0.00000E+00  9.000E+00
      21     1     1     2   501   511 -3.482941339E+01  1.292562417E+00  5.590529370E+01  6.587989541E+01  0.000000000E+00  0.00000E+00  9.000E+00
#rwgt            1           1   3.5949650729443179E-002           1      286714           0
</event>
<event>
      5   9999  3.79277E-02  3.85956E+01 -1.00000E+00  1.45809E-01
      21    -1     0     0   512   501  0.000000000E+00  0.000000000E+00  6.195861183E+02  6.195861183E+02  0.000000000E+00  0.00000E+00  9.000E+00
      21    -1     0     0   501   502  0.000000000E+00  0.000000000E+00 -1.544552617E+02  1.544552617E+02  0.000000000E+00  0.00000E+00  9.000E+00
      25     1     1     2     0     0 -6.189305402E+01  1.699661262E+02  7.509377588E+01  2.323430855E+02  1.250000000E+02  0.00000E+00  9.000E+00
      25     1     1     2     0     0  9.889192886E+01 -1.809525280E+02  1.207937507E+02  2.697027274E+02  1.250000000E+02  0.00000E+00  9.000E+00
      21     1     1     2   512   502 -3.699887484E+01  1.098640179E+01  2.692433301E+02  2.719955672E+02  3.814697266E-06  0.00000E+00  9.000E+00
#rwgt            1           1   2.4543612694384875E-002           1      286948           0
</event>
<event>
      5   9999  3.79277E-02  9.02924E+00 -1.00000E+00  2.01028E-01
      21    -1     0     0   502   511  0.000000000E+00  0.000000000E+00  1.282393833E+02  1.282393833E+02  0.000000000E+00  0.00000E+00  9.000E+00
      21    -1     0     0   501   502  0.000000000E+00  0.000000000E+00 -3.798692492E+02  3.798692492E+02  0.000000000E+00  0.00000E+00  9.000E+00
      25     1     1     2     0     0  7.069979125E+01  1.036673692E+02 -2.625413054E+02  3.166991016E+02  1.250000000E+02  0.00000E+00  9.000E+00
      25     1     1     2     0     0 -7.620417102E+01 -9.650992812E+01 -2.355059850E+00  1.753618779E+02  1.250000000E+02  0.00000E+00  9.000E+00
      21     1     1     2   501   511  5.504379776E+00 -7.157441086E+00  1.326649944E+01  1.604765301E+01  3.769728732E-07  0.00000E+00  9.000E+00
#rwgt            1           1   4.5765129091175430E-002           1      287167           0
</event>
<event>
      5   9999  3.79277E-02  3.84523E+01 -1.00000E+00  1.45911E-01
       2    -1     0     0   502     0  0.000000000E+00  0.000000000E+00  1.411172244E+02  1.411172244E+02  0.000000000E+00  0.00000E+00  9.000E+00
      21    -1     0     0   501   502  0.000000000E+00  0.000000000E+00 -7.163698278E+02  7.163698278E+02  0.000000000E+00  0.00000E+00  9.000E+00
      25     1     1     2     0     0  3.234398686E+01  9.562249316E+01 -2.422065210E+02  2.906523585E+02  1.250000000E+02  0.00000E+00  9.000E+00
      25     1     1     2     0     0  6.081844674E+00 -9.704763519E+01 -4.322987462E+02  4.603937861E+02  1.250000000E+02  0.00000E+00  9.000E+00
       2     1     1     2   501     0 -3.842583154E+01  1.425142029E+00  9.925266379E+01  1.064409077E+02  1.907348633E-06  0.00000E+00  9.000E+00
#rwgt            1           1   3.6378986430707846E-002           1      287465           0
</event>
<event>
      5   9999  3.79277E-02  1.08253E+02 -1.00000E+00  1.22298E-01
      21    -1     0     0   511   501  0.000000000E+00  0.000000000E+00  6.160192419E+02  6.160192419E+02  0.000000000E+00  0.00000E+00  9.000E+00
      21    -1     0     0   501   502  0.000000000E+00  0.000000000E+00 -3.178490751E+02  3.178490751E+02  0.000000000E+00  0.00000E+00  9.000E+00
      25     1     1     2     0     0  5.199319398E+01 -1.129405392E+02 -2.475556220E+02  3.039204561E+02  1.250000000E+02  0.00000E+00  9.000E+00
      25     1     1     2     0     0 -1.046281257E+01  1.297051588E+01  7.454441859E+01  1.464908703E+02  1.250000000E+02  0.00000E+00  9.000E+00
      21     1     1     2   511   502 -4.153038141E+01  9.997002333E+01  4.711813703E+02  4.834569907E+02  7.629394531E-06  0.00000E+00  9.000E+00
#rwgt            1           1   4.8609640427040163E-002           1      287746           0
</event>
<event>
      5   9999  3.79277E-02  2.52831E+01 -1.00000E+00  1.58385E-01
      21    -1     0     0   512   501  0.000000000E+00  0.000000000E+00  3.731505240E+02  3.731505240E+02  0.000000000E+00  0.00000E+00  9.000E+00
      21    -1     0     0   501   502  0.000000000E+00  0.000000000E+00 -4.017604165E+02  4.017604165E+02  0.000000000E+00  0.00000E+00  9.000E+00
      25     1     1     2     0     0 -1.229905123E+02 -2.334121100E+02 -5.717547100E+01  2.974927120E+02  1.250000000E+02  0.00000E+00  9.000E+00
      25     1     1     2     0     0  1.082310503E+02  2.539399575E+02 -1.205873037E+02  3.261376398E+02  1.250000000E+02  0.00000E+00  9.000E+00
      21     1     1     2   512   502  1.475946200E+01 -2.052784751E+01  1.491528822E+02  1.512805887E+02  1.907348633E-06  0.00000E+00  9.000E+00
#rwgt            1           1   2.6119907203987519E-002           1      287840           0
</event>
<event>
      5   9999  3.79277E-02  7.20403E+01 -1.00000E+00  1.30592E-01
      21    -1     0     0   502   501  0.000000000E+00  0.000000000E+00  8.555372173E+01  8.555372173E+01  0.000000000E+00  0.00000E+00  9.000E+00
       2    -1     0     0   501     0  0.000000000E+00  0.000000000E+00 -3.912740264E+02  3.912740264E+02  0.000000000E+00  0.00000E+00  9.000E+00
      25     1     1     2     0     0 -4.088401619E+01 -2.628734763E+01 -1.542886978E+02  2.044322130E+02  1.250000000E+02  0.00000E+00  9.000E+00
      25     1     1     2     0     0 -1.050338933E+01  7.677636798E+01 -6.760192900E+01  1.618639944E+02  1.250000000E+02  0.00000E+00  9.000E+00
       2     1     1     2   502     0  5.138740552E+01 -5.048902035E+01 -8.382967783E+01  1.105315408E+02  1.348699152E-06  0.00000E+00  9.000E+00
#rwgt            1           1   5.6049149516618595E-002           1      288020           0
</event>
<event>
      5   9999  3.79277E-02  6.17786E+01 -1.00000E+00  1.34029E-01
       1    -1     0     0   502     0  0.000000000E+00  0.000000000E+00  2.763538533E+03  2.763538533E+03  0.000000000E+00  0.00000E+00  9.000E+00
      21    -1     0     0   501   502  0.000000000E+00  0.000000000E+00 -3.112286066E+01  3.112286066E+01  0.000000000E+00  0.00000E+00  9.000E+00
      25     1     1     2     0     0 -3.428705603E+01 -7.089145412E+01  2.351976616E+02  2.777483402E+02  1.250000000E+02  0.00000E+00  9.000E+00
      25     1     1     2     0     0  3.922717725E+01  1.324721954E+02  9.300665253E+02  9.485443561E+02  1.250000000E+02  0.00000E+00  9.000E+00
       1     1     1     2   501     0 -4.940121226E+00 -6.158074125E+01  1.567151485E+03  1.568368697E+03  3.051757812E-05  0.00000E+00  9.000E+00
#rwgt            1           1   3.3668139883965172E-002           1      288117           0
</event>
<event>
      5   9999  3.79277E-02  5.35089E+01 -1.00000E+00  1.37415E-01
      21    -1     0     0   502   501  0.000000000E+00  0.000000000E+00  4.208687087E+02  4.208687087E+02  0.000000000E+00  0.00000E+00  9.000E+00
      -3    -1     0     0     0   502  0.000000000E+00  0.000000000E+00 -2.519168653E+02  2.519168653E+02  0.000000000E+00  0.00000E+00  9.000E+00
      25     1     1     2     0     0 -1.232159076E+02 -4.306464203E+01  1.700084733E+02  2.481221559E+02  1.250000000E+02  0.00000E+00  9.000E+00
      25     1     1     2     0     0  1.390661843E+02 -8.042830105E+00  1.654280823E+02  2.497909949E+02  1.250000000E+02  0.00000E+00  9.000E+00
      -3     1     1     2     0   501 -1.585027672E+01  5.110747214E+01 -1.664847122E+02  1.748724231E+02  1.907348633E-06  0.00000E+00  9.000E+00
#rwgt            1           1   3.8470340491019862E-002           1      288203           0
</event>
<event>
      5   9999  3.79277E-02  5.01391E+01 -1.00000E+00  1.39007E-01
      21    -1     0     0   502   501  0.000000000E+00  0.000000000E+00  1.299613656E+03  1.299613656E+03  0.000000000E+00  0.00000E+00  9.000E+00
      21    -1     0     0   501   511  0.000000000E+00  0.000000000E+00 -4.423230448E+01  4.423230448E+01  0.000000000E+00  0.00000E+00  9.000E+00
      25     1     1     2     0     0  3.760382038E+01  6.673101609E+01  6.832578847E+02  6.988085666E+02  1.250000000E+02  0.00000E+00  9.000E+00
      25     1     1     2     0     0 -3.524432839E+01 -1.168145460E+02  5.685412578E+02  5.947705126E+02  1.250000000E+02  0.00000E+00  9.000E+00
      21     1     1     2   502   511 -2.359491989E+00  5.008352986E+01  3.582209426E+00  5.026688164E+01  1.329464199E-06  0.00000E+00  9.000E+00
#rwgt            2          11   1.5350814533005483E-003           1      288322           0
</event>
<event>
      5   9999  3.79277E-02  2.14737E+01 -1.00000E+00  1.63861E-01
      21    -1     0     0   502   501  0.000000000E+00  0.000000000E+00  2.772392668E+02  2.772392668E+02  0.000000000E+00  0.00000E+00  9.000E+00
      21    -1     0     0   512   502  0.000000000E+00  0.000000000E+00 -5.227909799E+02  5.227909799E+02  0.000000000E+00  0.00000E+00  9.000E+00
      25     1     1     2     0     0 -2.337112323E+02  5.871480314E+01  1.478911299E+02  3.091361424E+02  1.250000000E+02  0.00000E+00  9.000E+00
      25     1     1     2     0     0  2.123043835E+02 -5.702220813E+01 -2.879134477E+02  3.832020835E+02  1.250000000E+02  0.00000E+00  9.000E+00
      21     1     1     2   512   501  2.140684883E+01 -1.692595010E+00 -1.055293953E+02  1.076920208E+02  0.000000000E+00  0.00000E+00  9.000E+00
#rwgt            1           1   2.1464199781956263E-002           1      288342           0
</event>
<event>
      5   9999  3.79277E-02  2.35197E+01 -1.00000E+00  1.60762E-01
      21    -1     0     0   502   511  0.000000000E+00  0.000000000E+00  6.246654331E+02  6.246654331E+02  0.000000000E+00  0.00000E+00  9.000E+00
      21    -1     0     0   501   502  0.000000000E+00  0.000000000E+00 -6.075574228E+01  6.075574228E+01  0.000000000E+00  0.00000E+00  9.000E+00
      25     1     1     2     0     0  8.417432665E+01 -2.015002992E+01  7.656003437E+01  1.702286105E+02  1.250000000E+02  0.00000E+00  9.000E+00
      25     1     1     2     0     0 -6.796840723E+01  3.104724041E+00  4.376532704E+02  4.602116131E+02  1.250000000E+02  0.00000E+00  9.000E+00
      21     1     1     2   501   511 -1.620591942E+01  1.704530587E+01  4.969638598E+01  5.498095176E+01  6.743495762E-07  0.00000E+00  9.000E+00
#rwgt            1           1   4.9970868735859611E-002           1      288559           0
</event>
<event>
      5   9999  3.79277E-02  5.02414E+01 -1.00000E+00  1.38956E-01
      21    -1     0     0   502   501  0.000000000E+00  0.000000000E+00  9.266135297E+01  9.266135297E+01  0.000000000E+00  0.00000E+00  9.000E+00
      21    -1     0     0   501   512  0.000000000E+00  0.000000000E+00 -4.281164991E+02  4.281164991E+02  0.000000000E+00  0.00000E+00  9.000E+00
      25     1     1     2     0     0  3.267799177E+01  3.192777805E+01 -2.458058688E+02  2.795223771E+02  1.250000000E+02  0.00000E+00  9.000E+00
      25     1     1     2     0     0 -4.121638080E+01 -8.143836139E+01 -2.101490756E+01  1.561973850E+02  1.250000000E+02  0.00000E+00  9.000E+00
      21     1     1     2   502   512  8.538389039E+00  4.951058334E+01 -6.863436975E+01  8.505808993E+01  1.348699152E-06  0.00000E+00  9.000E+00
#rwgt            1           1   5.2720078661923742E-002           1      288763           0
</event>
<event>
      5   9999  3.79277E-02  1.37290E+01 -1.00000E+00  1.81084E-01
      21    -1     0     0   502   501  0.000000000E+00  0.000000000E+00  4.623135599E+02  4.623135599E+02  0.000000000E+00  0.00000E+00  9.000E+00
      -2    -1     0     0     0   502  0.000000000E+00  0.000000000E+00 -2.068305861E+02  2.068305861E+02  0.000000000E+00  0.00000E+00  9.000E+00
      25     1     1     2     0     0  5.128876299E+01 -1.787687548E+02  1.868558179E+02  2.917685754E+02  1.250000000E+02  0.00000E+00  9.000E+00
      25     1     1     2     0     0 -6.161199165E+01  1.697179922E+02  1.683529816E+02  2.767091628E+02  1.250000000E+02  0.00000E+00  9.000E+00
      -2     1     1     2     0   501  1.032322867E+01  9.050762540E+00 -9.972582564E+01  1.006664078E+02  1.348699152E-06  0.00000E+00  9.000E+00
#rwgt            1           1   3.9203921089056584E-002           1      288803           0
</event>
<event>
      5   9999 -3.79277E-02  2.11803E+01 -1.00000E+00  1.64340E-01
      21    -1     0     0   502   501  0.000000000E+00  0.000000000E+00  2.113067110E+02  2.113067110E+02  0.000000000E+00  0.00000E+00  9.000E+00
      21    -1     0     0   511   502  0.000000000E+00  0.000000000E+00 -1.036020429E+03  1.036020429E+03  0.000000000E+00  0.00000E+00  9.000E+00
      25     1     1     2     0     0 -1.558106973E+02  4.874133126E+01  8.684167842E+01  2.232020786E+02  1.250000000E+02  0.00000E+00  9.000E+00
      25     1     1     2     0     0  1.637312467E+02 -6.838493850E+01 -1.536602138E+02  2.659339811E+02  1.250000000E+02  0.00000E+00  9.000E+00
      21     1     1     2   511   501 -7.920549397E+00  1.964360724E+01 -7.578951823E+02  7.581910800E+02  0.000000000E+00  0.00000E+00  9.000E+00
#rwgt            1           1  -8.9906943716810701E-003           1      289058           0
</event>
<event>
      5   9999  3.79277E-02  5.27543E+01 -1.00000E+00  1.37760E-01
      21    -1     0     0   502   501  0.000000000E+00  0.000000000E+00  9.810331743E+02  9.810331743E+02  0.000000000E+00  0.00000E+00  9.000E+00
      21    -1     0     0   501   512  0.000000000E+00  0.000000000E+00 -9.263789025E+01  9.263789025E+01  0.000000000E+00  0.00000E+00  9.000E+00
      25     1     1     2     0     0  2.831691713E+01 -1.267257313E+02  1.816044160E+02  2.558640707E+02  1.250000000E+02  0.00000E+00  9.000E+00
      25     1     1     2     0     0 -4.491375665E+01  1.768012818E+02  7.280781788E+02  7.609196891E+02  1.250000000E+02  0.00000E+00  9.000E+00
      21     1     1     2   502   512  1.659683952E+01 -5.007555050E+01 -2.128731080E+01  5.688730474E+01  8.259061849E-07  0.00000E+00  9.000E+00
#rwgt            1           1   4.3366267595360906E-002           1      289300           0
</event>
<event>
      5   9999  3.79277E-02  1.77727E+02 -1.00000E+00  1.13547E-01
      -4    -1     0     0     0   501  0.000000000E+00  0.000000000E+00  2.851290816E+02  2.851290816E+02  0.000000000E+00  0.00000E+00  9.000E+00
      21    -1     0     0   501   502  0.000000000E+00  0.000000000E+00 -4.880276153E+02  4.880276153E+02  0.000000000E+00  0.00000E+00  9.000E+00
      25     1     1     2     0     0  1.113094916E+01  2.913223233E+01  5.711415800E+00  1.289581531E+02  1.250000000E+02  0.00000E+00  9.000E+00
      25     1     1     2     0     0  1.006235096E+02  1.090620753E+02 -3.611620475E+02  4.099788428E+02  1.250000000E+02  0.00000E+00  9.000E+00
      -4     1     1     2     0   502 -1.117544588E+02 -1.381943076E+02  1.525520980E+02  2.342197009E+02  4.264961200E-06  0.00000E+00  9.000E+00
#rwgt            2           2   3.2205607646485057E-005           1      289403           0
</event>
<event>
      5   9999  3.79277E-02  3.66981E+01 -1.00000E+00  1.47199E-01
      21    -1     0     0   502   501  0.000000000E+00  0.000000000E+00  1.757069483E+02  1.757069483E+02  0.000000000E+00  0.00000E+00  9.000E+00
      21    -1     0     0   511   502  0.000000000E+00  0.000000000E+00 -1.233121675E+03  1.233121675E+03  0.000000000E+00  0.00000E+00  9.000E+00
      25     1     1     2     0     0 -1.428376661E+02  1.021410999E+02 -1.320071080E+02  2.527573534E+02  1.250000000E+02  0.00000E+00  9.000E+00
      25     1     1     2     0     0  1.711700268E+02 -1.254655030E+02 -1.696508581E+01  2.468877977E+02  1.250000000E+02  0.00000E+00  9.000E+00
      21     1     1     2   511   501 -2.833236069E+01  2.332440310E+01 -9.084425325E+02  9.091834717E+02  2.157918644E-05  0.00000E+00  9.000E+00
#rwgt            1           1   3.7282886235655892E-002           1      289452           0
</event>
<event>
      5   9999  3.79277E-02  3.58611E+01 -1.00000E+00  1.47845E-01
      21    -1     0     0   502   501  0.000000000E+00  0.000000000E+00  1.265985245E+02  1.265985245E+02  0.000000000E+00  0.00000E+00  9.000E+00
      21    -1     0     0   501   512  0.000000000E+00  0.000000000E+00 -6.760638551E+02  6.760638551E+02  0.000000000E+00  0.00000E+00  9.000E+00
      25     1     1     2     0     0 -1.957343963E+02  3.468603851E+01 -2.568702036E+02  3.480264022E+02  1.250000000E+02  0.00000E+00  9.000E+00
      25     1     1     2     0     0  2.183359750E+02 -6.252820184E+01 -1.335883058E+02  2.916354050E+02  1.250000000E+02  0.00000E+00  9.000E+00
      21     1     1     2   502   512 -2.260157873E+01  2.784216334E+01 -1.590068212E+02  1.630005724E+02  2.697398305E-06  0.00000E+00  9.000E+00
#rwgt            1           1   3.3748666500472292E-002           1      289598           0
</event>
<event>
      5   9999  3.79277E-02  4.05674E+01 -1.00000E+00  1.44462E-01
      21    -1     0     0   502   511  0.000000000E+00  0.000000000E+00  3.847013115E+02  3.847013115E+02  0.000000000E+00  0.00000E+00  9.000E+00
      21    -1     0     0   501   502  0.000000000E+00  0.000000000E+00 -2.138498013E+02  2.138498013E+02  0.000000000E+00  0.00000E+00  9.000E+00
      25     1     1     2     0     0 -7.811134624E+01 -1.089634027E+01  2.229690645E+02  2.675076006E+02  1.250000000E+02  0.00000E+00  9.000E+00
      25     1     1     2     0     0  8.784200074E+01  5.027940052E+01 -1.531996885E+02  2.221246942E+02  1.250000000E+02  0.00000E+00  9.000E+00
      21     1     1     2   501   511 -9.730654501E+00 -3.938306025E+01  1.010821342E+02  1.089188181E+02  0.000000000E+00  0.00000E+00  9.000E+00
#rwgt            1           1   4.7819195812531738E-002           1      289750           0
</event>
<event>
      5   9999  3.79277E-02  1.17593E+02 -1.00000E+00  1.20743E-01
      21    -1     0     0   502   501  0.000000000E+00  0.000000000E+00  6.157218515E+02  6.157218515E+02  0.000000000E+00  0.00000E+00  9.000E+00
      21    -1     0     0   501   512  0.000000000E+00  0.000000000E+00 -2.262520319E+02  2.262520319E+02  0.000000000E+00  0.00000E+00  9.000E+00
      25     1     1     2     0     0 -2.695305729E+01  1.222784247E+02  1.322177889E+02  2.208733215E+02  1.250000000E+02  0.00000E+00  9.000E+00
      25     1     1     2     0     0 -1.611840020E+01 -2.316992724E+02  3.725144513E+02  4.564387934E+02  1.250000000E+02  0.00000E+00  9.000E+00
      21     1     1     2   502   512  4.307145749E+01  1.094208477E+02 -1.152624207E+02  1.646617684E+02  2.336015456E-06  0.00000E+00  9.000E+00
#rwgt            1           1   2.2056841892937867E-002           1      289912           0
</event>
<event>
      5   9999  3.79277E-02  8.89703E+01 -1.00000E+00  1.26155E-01
      21    -1     0     0   502   501  0.000000000E+00  0.000000000E+00  1.105348412E+03  1.105348412E+03  0.000000000E+00  0.00000E+00  9.000E+00
      21    -1     0     0   511   502  0.000000000E+00  0.000000000E+00 -7.079100226E+01  7.079100226E+01  0.000000000E+00  0.00000E+00  9.000E+00
      25     1     1     2     0     0  1.078497826E+02  3.667622201E+01  7.959041347E+02  8.136738367E+02  1.250000000E+02  0.00000E+00  9.000E+00
      25     1     1     2     0     0 -7.485943716E+01  4.595154242E+01  2.257174676E+02  2.725598187E+02  1.250000000E+02  0.00000E+00  9.000E+00
      21     1     1     2   511   501 -3.299034545E+01 -8.262776443E+01  1.293580731E+01  8.990575876E+01  8.085167388E-07  0.00000E+00  9.000E+00
#rwgt            1           1   3.8143150097037018E-002           1      290103           0
</event>
<event>
      5   9999  3.79277E-02  5.42274E+01 -1.00000E+00  1.37094E-01
      21    -1     0     0   502   512  0.000000000E+00  0.000000000E+00  2.542586512E+02  2.542586512E+02  0.000000000E+00  0.00000E+00  9.000E+00
      21    -1     0     0   501   502  0.000000000E+00  0.000000000E+00 -2.087670325E+02  2.087670325E+02  0.000000000E+00  0.00000E+00  9.000E+00
      25     1     1     2     0     0  5.105687828E+01  1.278911265E+02 -1.620295339E+01  1.866828346E+02  1.250000000E+02  0.00000E+00  9.000E+00
      25     1     1     2     0     0  2.971765556E+00 -1.325294097E+02 -1.454776844E+01  1.827826945E+02  1.250000000E+02  0.00000E+00  9.000E+00
      21     1     1     2   501   512 -5.402864383E+01  4.638283232E+00  7.624234058E+01  9.356015457E+01  9.536743164E-07  0.00000E+00  9.000E+00
#rwgt            1           1   4.7364594679628773E-002           1      290273           0
</event>
<event>
      5   9999  3.79277E-02  2.47695E+01 -1.00000E+00  1.59053E-01
      21    -1     0     0   502   501  0.000000000E+00  0.000000000E+00  1.422594083E+02  1.422594083E+02  0.000000000E+00  0.00000E+00  9.000E+00
      21    -1     0     0   511   502  0.000000000E+00  0.000000000E+00 -3.197860610E+02  3.197860610E+02  0.000000000E+00  0.00000E+00  9.000E+00
      25     1     1     2     0     0  1.316209670E+02 -8.196240036E+01 -8.931065802E+01  2.182734699E+02  1.250000000E+02  0.00000E+00  9.000E+00
      25     1     1     2     0     0 -1.069297060E+02  8.392898959E+01 -3.910035345E+01  1.887640722E+02  1.250000000E+02  0.00000E+00  9.000E+00
      21     1     1     2   511   501 -2.469126099E+01 -1.966589236E+00 -4.911564123E+01  5.500792721E+01  6.743495762E-07  0.00000E+00  9.000E+00
#rwgt            1           1  0.20299423118801899                1      290365           0
</event>
<event>
      5   9999  3.79277E-02  1.08019E+02 -1.00000E+00  1.22340E-01
      21    -1     0     0   512   501  0.000000000E+00  0.000000000E+00  4.962523907E+02  4.962523907E+02  0.000000000E+00  0.00000E+00  9.000E+00
      21    -1     0     0   501   502  0.000000000E+00  0.000000000E+00 -1.319747611E+02  1.319747611E+02  0.000000000E+00  0.00000E+00  9.000E+00
      25     1     1     2     0     0 -1.730001551E+02  2.828705719E+01  1.913509644E+02  2.880440987E+02  1.250000000E+02  0.00000E+00  9.000E+00
      25     1     1     2     0     0  6.726644996E+01 -6.186057229E+00  7.080050399E+00  1.422609212E+02  1.250000000E+02  0.00000E+00  9.000E+00
      21     1     1     2   512   502  1.057337051E+02 -2.210099996E+01  1.658466148E+02  1.979221318E+02  1.907348633E-06  0.00000E+00  9.000E+00
#rwgt            1           1   3.8627033423008758E-002           1      290468           0
</event>
<event>
      5   9999  3.79277E-02  2.94958E+01 -1.00000E+00  1.53553E-01
      21    -1     0     0   502   501  0.000000000E+00  0.000000000E+00  3.503391784E+02  3.503391784E+02  0.000000000E+00  0.00000E+00  9.000E+00
      21    -1     0     0   511   502  0.000000000E+00  0.000000000E+00 -3.697546737E+02  3.697546737E+02  0.000000000E+00  0.00000E+00  9.000E+00
      25     1     1     2     0     0 -3.985995225E+01 -5.713320152E+01  2.691328023E+02  3.048122107E+02  1.250000000E+02  0.00000E+00  9.000E+00
      25     1     1     2     0     0  1.330914305E+01  6.998054514E+01 -2.016123145E+01  1.452786469E+02  1.250000000E+02  0.00000E+00  9.000E+00
      21     1     1     2   511   501  2.655080919E+01 -1.284734362E+01 -2.683870662E+02  2.700029944E+02  3.814697266E-06  0.00000E+00  9.000E+00
#rwgt            1           1   2.9640117332291806E-002           1      290628           0
</event>
<event>
      5   9999  3.79277E-02  3.10698E+01 -1.00000E+00  1.51990E-01
      21    -1     0     0   512   501  0.000000000E+00  0.000000000E+00  2.559154978E+03  2.559154978E+03  0.000000000E+00  0.00000E+00  9.000E+00
      21    -1     0     0   501   502  0.000000000E+00  0.000000000E+00 -7.667572374E+01  7.667572374E+01  0.000000000E+00  0.00000E+00  9.000E+00
      25     1     1     2     0     0  2.150565706E+01  8.844266679E+01  6.659029470E+02  6.836200212E+02  1.250000000E+02  0.00000E+00  9.000E+00
      25     1     1     2     0     0 -5.218603306E+01 -8.353865985E+01  2.586877609E+01  1.612336296E+02  1.250000000E+02  0.00000E+00  9.000E+00
      21     1     1     2   512   502  3.068037600E+01 -4.904006939E+00  1.790707531E+03  1.790977051E+03  3.737624730E-05  0.00000E+00  9.000E+00
#rwgt            1           1   4.1436210670437984E-002           1      290761           0
</event>
<event>
      5   9999  3.79277E-02  5.64035E+01 -1.00000E+00  1.36154E-01
      21    -1     0     0   511   501  0.000000000E+00  0.000000000E+00  9.107140941E+01  9.107140941E+01  0.000000000E+00  0.00000E+00  9.000E+00
      21    -1     0     0   501   502  0.000000000E+00  0.000000000E+00 -6.129162915E+02  6.129162915E+02  0.000000000E+00  0.00000E+00  9.000E+00
      25     1     1     2     0     0 -1.153123854E+02 -5.204721136E+00 -4.570729254E+01  1.761765930E+02  1.250000000E+02  0.00000E+00  9.000E+00
      25     1     1     2     0     0  6.667349268E+01 -2.335430866E+01 -4.347652793E+02  4.578609248E+02  1.250000000E+02  0.00000E+00  9.000E+00
      21     1     1     2   511   502  4.863889268E+01  2.855902980E+01 -4.137231033E+01  6.995018317E+01  1.168007728E-06  0.00000E+00  9.000E+00
#rwgt            1           1   3.6760267826342591E-002           1      290879           0
</event>
<event>
      5   9999  3.79277E-02  6.56787E+01 -1.00000E+00  1.32638E-01
      21    -1     0     0   502   501  0.000000000E+00  0.000000000E+00  1.619044574E+02  1.619044574E+02  0.000000000E+00  0.00000E+00  9.000E+00
      21    -1     0     0   501   512  0.000000000E+00  0.000000000E+00 -7.946667509E+02  7.946667509E+02  0.000000000E+00  0.00000E+00  9.000E+00
      25     1     1     2     0     0 -8.126428880E+00 -7.450816717E+01  9.896028495E+01  1.761693612E+02  1.250000000E+02  0.00000E+00  9.000E+00
      25     1     1     2     0     0 -4.881449471E+01  1.072406995E+02 -3.173762593E+02  3.608824082E+02  1.250000000E+02  0.00000E+00  9.000E+00
      21     1     1     2   502   512  5.694092359E+01 -3.273253237E+01 -4.143463191E+02  4.195194389E+02  9.344061824E-06  0.00000E+00  9.000E+00
#rwgt            1           1   4.4170554238131307E-002           1      290980           0
</event>
<event>
      5   9999  3.79277E-02  2.07335E+01 -1.00000E+00  1.65089E-01
      21    -1     0     0   502   511  0.000000000E+00  0.000000000E+00  7.688214434E+01  7.688214434E+01  0.000000000E+00  0.00000E+00  9.000E+00
      21    -1     0     0   501   502  0.000000000E+00  0.000000000E+00 -6.139525065E+02  6.139525065E+02  0.000000000E+00  0.00000E+00  9.000E+00
      25     1     1     2     0     0 -1.065182340E+02  1.674381394E+01 -2.582105142E+02  3.064704865E+02  1.250000000E+02  0.00000E+00  9.000E+00
      25     1     1     2     0     0  1.120157238E+02  3.247536604E+00 -3.067071525E+02  3.496460299E+02  1.250000000E+02  0.00000E+00  9.000E+00
      21     1     1     2   501   511 -5.497489826E+00 -1.999135055E+01  2.784730446E+01  3.471813441E+01  1.066240300E-06  0.00000E+00  9.000E+00
#rwgt            1           1   3.4961584938698116E-002           1      291182           0
</event>
<event>
      5   9999  3.79277E-02  3.95353E+01 -1.00000E+00  1.45156E-01
      21    -1     0     0   502   501  0.000000000E+00  0.000000000E+00  1.222484966E+02  1.222484966E+02  0.000000000E+00  0.00000E+00  9.000E+00
      21    -1     0     0   501   512  0.000000000E+00  0.000000000E+00 -5.741436064E+02  5.741436064E+02  0.000000000E+00  0.00000E+00  9.000E+00
      25     1     1     2     0     0  7.747652947E+01  1.203732057E+02 -1.313112738E+02  2.309977746E+02  1.250000000E+02  0.00000E+00  9.000E+00
      25     1     1     2     0     0 -6.291805181E+01 -1.571304161E+02 -8.568323569E+01  2.271899333E+02  1.250000000E+02  0.00000E+00  9.000E+00
      21     1     1     2   502   512 -1.455847765E+01  3.675721036E+01 -2.349006003E+02  2.382043950E+02  0.000000000E+00  0.00000E+00  9.000E+00
#rwgt            1           1   3.9937970892464307E-002           1      291311           0
</event>
<event>
      5   9999  3.79277E-02  3.12920E+01 -1.00000E+00  1.51779E-01
      21    -1     0     0   502   511  0.000000000E+00  0.000000000E+00  6.592346707E+02  6.592346707E+02  0.000000000E+00  0.00000E+00  9.000E+00
      21    -1     0     0   501   502  0.000000000E+00  0.000000000E+00 -1.639136953E+02  1.639136953E+02  0.000000000E+00  0.00000E+00  9.000E+00
      25     1     1     2     0     0  3.929569008E+01  1.993135690E+02  1.170123434E+02  2.656820253E+02  1.250000000E+02  0.00000E+00  9.000E+00
      25     1     1     2     0     0 -9.779800368E+00 -1.889213285E+02  5.588448324E+01  2.335272753E+02  1.250000000E+02  0.00000E+00  9.000E+00
      21     1     1     2   501   511 -2.951588972E+01 -1.039224053E+01  3.224241488E+02  3.239390654E+02  3.814697266E-06  0.00000E+00  9.000E+00
#rwgt            1           1   3.7402939730117830E-002           1      291501           0
</event>
<event>
      5   9999  3.79277E-02  3.85507E+01 -1.00000E+00  1.45841E-01
      21    -1     0     0   512   501  0.000000000E+00  0.000000000E+00  7.053030627E+01  7.053030627E+01  0.000000000E+00  0.00000E+00  9.000E+00
      21    -1     0     0   501   502  0.000000000E+00  0.000000000E+00 -9.075671651E+02  9.075671651E+02  0.000000000E+00  0.00000E+00  9.000E+00
      25     1     1     2     0     0  8.021725556E+01 -1.063283207E+02 -2.211258744E+02  2.868138285E+02  1.250000000E+02  0.00000E+00  9.000E+00
      25     1     1     2     0     0 -4.489484481E+01  9.088548553E+01 -6.300059614E+02  6.502370568E+02  1.250000000E+02  0.00000E+00  9.000E+00
      21     1     1     2   512   502 -3.532241075E+01  1.544283518E+01  1.409497696E+01  4.104658616E+01  1.143415337E-06  0.00000E+00  9.000E+00
#rwgt            1           1   4.2681991965380216E-002           1      291932           0
</event>
<event>
      5   9999  3.79277E-02  1.97732E+01 -1.00000E+00  1.66779E-01
      21    -1     0     0   502   501  0.000000000E+00  0.000000000E+00  1.343490553E+02  1.343490553E+02  0.000000000E+00  0.00000E+00  9.000E+00
      21    -1     0     0   501   511  0.000000000E+00  0.000000000E+00 -8.137397113E+02  8.137397113E+02  0.000000000E+00  0.00000E+00  9.000E+00
      25     1     1     2     0     0  2.418161160E+02 -1.711298477E+02 -3.329997609E+02  4.628977203E+02  1.250000000E+02  0.00000E+00  9.000E+00
      25     1     1     2     0     0 -2.221291683E+02  1.692848120E+02 -2.759724866E+02  4.120491819E+02  1.250000000E+02  0.00000E+00  9.000E+00
      21     1     1     2   502   511 -1.968694769E+01  1.845035643E+00 -7.041840853E+01  7.314186438E+01  0.000000000E+00  0.00000E+00  9.000E+00
#rwgt            1           1   2.8083668187472755E-002           1      292078           0
</event>
<event>
      5   9999 -3.79277E-02  1.61540E+01 -1.00000E+00  1.74404E-01
      21    -1     0     0   512   501  0.000000000E+00  0.000000000E+00  4.349401677E+02  4.349401677E+02  0.000000000E+00  0.00000E+00  9.000E+00
      21    -1     0     0   501   502  0.000000000E+00  0.000000000E+00 -9.629301900E+01  9.629301900E+01  0.000000000E+00  0.00000E+00  9.000E+00
      25     1     1     2     0     0  2.778128577E+00 -9.688840269E+01  2.405274896E+01  1.599956728E+02  1.250000000E+02  0.00000E+00  9.000E+00
      25     1     1     2     0     0 -1.804189554E+00  8.076382706E+01  1.708364508E+02  2.265748083E+02  1.250000000E+02  0.00000E+00  9.000E+00
      21     1     1     2   512   502 -9.739390231E-01  1.612457563E+01  1.437579490E+02  1.446627056E+02  1.907348633E-06  0.00000E+00  9.000E+00
#rwgt            1           1  -6.6430707385286780E-002           1      292257           0
</event>
<event>
      5   9999 -3.79277E-02  1.48245E+01 -1.00000E+00  1.77866E-01
      21    -1     0     0   502   501  0.000000000E+00  0.000000000E+00  5.265588066E+02  5.265588066E+02  0.000000000E+00  0.00000E+00  9.000E+00
      21    -1     0     0   511   502  0.000000000E+00  0.000000000E+00 -1.696986654E+02  1.696986654E+02  0.000000000E+00  0.00000E+00  9.000E+00
      25     1     1     2     0     0 -1.411081921E+02 -7.447758889E+00  3.321689832E+02  3.820055292E+02  1.250000000E+02  0.00000E+00  9.000E+00
      25     1     1     2     0     0  1.508505526E+02  1.862146828E+01  1.115005796E+02  2.261858253E+02  1.250000000E+02  0.00000E+00  9.000E+00
      21     1     1     2   511   501 -9.742360524E+00 -1.117370939E+01 -8.680942158E+01  8.806611746E+01  2.523185073E-06  0.00000E+00  9.000E+00
#rwgt            1           1  -4.0044684429854475E-002           1      292480           0
</event>
<event>
      5   9999  3.79277E-02  5.52570E+01 -1.00000E+00  1.36643E-01
      21    -1     0     0   502   501  0.000000000E+00  0.000000000E+00  2.682747224E+02  2.682747224E+02  0.000000000E+00  0.00000E+00  9.000E+00
      21    -1     0     0   501   512  0.000000000E+00  0.000000000E+00 -2.676312939E+02  2.676312939E+02  0.000000000E+00  0.00000E+00  9.000E+00
      25     1     1     2     0     0  7.874438283E+01  1.517317956E+02 -8.218523855E+01  2.271621206E+02  1.250000000E+02  0.00000E+00  9.000E+00
      25     1     1     2     0     0 -1.339756771E+02 -1.500455398E+02  8.930690321E+01  2.531084136E+02  1.250000000E+02  0.00000E+00  9.000E+00
      21     1     1     2   502   512  5.523129429E+01 -1.686255804E+00 -6.478236145E+00  5.563548212E+01  7.300048300E-07  0.00000E+00  9.000E+00
#rwgt            1           1   4.9172114079359182E-002           1      292669           0
</event>
<event>
      5   9999  3.79277E-02  4.09613E+01 -1.00000E+00  1.44203E-01
      21    -1     0     0   502   501  0.000000000E+00  0.000000000E+00  1.442871960E+03  1.442871960E+03  0.000000000E+00  0.00000E+00  9.000E+00
      21    -1     0     0   501   511  0.000000000E+00  0.000000000E+00 -9.262230630E+01  9.262230630E+01  0.000000000E+00  0.00000E+00  9.000E+00
      25     1     1     2     0     0 -2.777093572E+02 -6.872442818E+01  8.237832736E+02  8.809593725E+02  1.250000000E+02  0.00000E+00  9.000E+00
      25     1     1     2     0     0  3.182120973E+02  6.261242836E+01  4.794250189E+02  5.921592723E+02  1.250000000E+02  0.00000E+00  9.000E+00
      21     1     1     2   502   511 -4.050274011E+01  6.111999817E+00  4.704136140E+01  6.237562169E+01  9.536743164E-07  0.00000E+00  9.000E+00
#rwgt            1           1  0.29176720888126439                1      292770           0
</event>
<event>
      5   9999  3.79277E-02  4.88702E+01 -1.00000E+00  1.39644E-01
      21    -1     0     0   502   501  0.000000000E+00  0.000000000E+00  2.546975019E+02  2.546975019E+02  0.000000000E+00  0.00000E+00  9.000E+00
      21    -1     0     0   501   512  0.000000000E+00  0.000000000E+00 -2.173676050E+02  2.173676050E+02  0.000000000E+00  0.00000E+00  9.000E+00
      25     1     1     2     0     0  7.085414190E+01 -4.060535879E+01  1.839637188E+02  2.369319616E+02  1.250000000E+02  0.00000E+00  9.000E+00
      25     1     1     2     0     0 -2.391141205E+01  2.701563303E+01 -1.289015392E+02  1.831453162E+02  1.250000000E+02  0.00000E+00  9.000E+00
      21     1     1     2   502   512 -4.694272985E+01  1.358972576E+01 -1.773228269E+01  5.198782917E+01  6.743495762E-07  0.00000E+00  9.000E+00
#rwgt            1           1   4.3117392788572913E-002           1      292882           0
</event>
<event>
      5   9999  3.79277E-02  4.36904E+01 -1.00000E+00  1.42503E-01
      21    -1     0     0   511   501  0.000000000E+00  0.000000000E+00  1.427540299E+02  1.427540299E+02  0.000000000E+00  0.00000E+00  9.000E+00
      21    -1     0     0   501   502  0.000000000E+00  0.000000000E+00 -1.094360135E+03  1.094360135E+03  0.000000000E+00  0.00000E+00  9.000E+00
      25     1     1     2     0     0 -1.511108404E+02  4.034846763E+01 -7.003190150E+02  7.283777919E+02  1.250000000E+02  0.00000E+00  9.000E+00
      25     1     1     2     0     0  1.080926980E+02 -3.271364490E+01 -3.567811844E+02  3.945529464E+02  1.250000000E+02  0.00000E+00  9.000E+00
      21     1     1     2   511   502  4.301814234E+01 -7.634822730E+00  1.054940941E+02  1.141834269E+02  1.907348633E-06  0.00000E+00  9.000E+00
#rwgt            1           1   2.7260817438628928E-002           1      292982           0
</event>
<event>
      5   9999  3.79277E-02  6.36814E+01 -1.00000E+00  1.33336E-01
      21    -1     0     0   512   501  0.000000000E+00  0.000000000E+00  2.714892393E+02  2.714892393E+02  0.000000000E+00  0.00000E+00  9.000E+00
      21    -1     0     0   501   502  0.000000000E+00  0.000000000E+00 -3.359932044E+02  3.359932044E+02  0.000000000E+00  0.00000E+00  9.000E+00
      25     1     1     2     0     0 -2.143707206E+02 -2.878691188E+01  5.864301041E-01  2.498176056E+02  1.250000000E+02  0.00000E+00  9.000E+00
      25     1     1     2     0     0  2.359523767E+02 -3.112597901E+01 -9.781350517E+01  2.860678808E+02  1.250000000E+02  0.00000E+00  9.000E+00
      21     1     1     2   512   502 -2.158165604E+01  5.991289089E+01  3.272310994E+01  7.159695731E+01  9.536743164E-07  0.00000E+00  9.000E+00
#rwgt            1           1   4.0522304488909089E-002           1      293168           0
</event>
<event>
      5   9999  3.79277E-02  2.20735E+01 -1.00000E+00  1.62910E-01
      21    -1     0     0   502   501  0.000000000E+00  0.000000000E+00  1.467049446E+03  1.467049446E+03  0.000000000E+00  0.00000E+00  9.000E+00
      21    -1     0     0   501   511  0.000000000E+00  0.000000000E+00 -2.794650270E+01  2.794650270E+01  0.000000000E+00  0.00000E+00  9.000E+00
      25     1     1     2     0     0  5.170813588E+01 -6.230224151E+01  1.165520461E+03  1.174997125E+03  1.250000000E+02  0.00000E+00  9.000E+00
      25     1     1     2     0     0 -2.977690048E+01  6.480424882E+01  2.372537339E+02  2.774897993E+02  1.250000000E+02  0.00000E+00  9.000E+00
      21     1     1     2   502   511 -2.193123539E+01 -2.502007313E+00  3.632874836E+01  4.250902356E+01  8.259061849E-07  0.00000E+00  9.000E+00
#rwgt            1           1   4.7137981473010675E-002           1      293268           0
</event>
<event>
      5   9999  3.79277E-02  6.25133E+01 -1.00000E+00  1.33758E-01
      21    -1     0     0   512   501  0.000000000E+00  0.000000000E+00  5.555168896E+02  5.555168896E+02  0.000000000E+00  0.00000E+00  9.000E+00
      21    -1     0     0   501   502  0.000000000E+00  0.000000000E+00 -6.420430291E+01  6.420430291E+01  0.000000000E+00  0.00000E+00  9.000E+00
      25     1     1     2     0     0  7.349178881E+01  9.360109919E+01  1.864768112E+02  2.540881932E+02  1.250000000E+02  0.00000E+00  9.000E+00
      25     1     1     2     0     0 -2.253822136E+01 -5.738441546E+01  2.118803548E+02  2.536123564E+02  1.250000000E+02  0.00000E+00  9.000E+00
      21     1     1     2   512   502 -5.095356745E+01 -3.621668373E+01  9.295542068E+01  1.120206430E+02  0.000000000E+00  0.00000E+00  9.000E+00
#rwgt            1           1   3.0706925258253529E-002           1      293374           0
</event>
<event>
      5   9999 -3.79277E-02  3.37317E+01 -1.00000E+00  1.49586E-01
      21    -1     0     0   511   501  0.000000000E+00  0.000000000E+00  4.796827232E+02  4.796827232E+02  0.000000000E+00  0.00000E+00  9.000E+00
      21    -1     0     0   501   502  0.000000000E+00  0.000000000E+00 -3.613244188E+02  3.613244188E+02  0.000000000E+00  0.00000E+00  9.000E+00
      25     1     1     2     0     0 -3.360850566E+01 -1.292024223E+02 -1.465758134E+01  1.834738190E+02  1.250000000E+02  0.00000E+00  9.000E+00
      25     1     1     2     0     0  5.832133883E+00  1.483413233E+02 -2.254545843E+02  2.974792961E+02  1.250000000E+02  0.00000E+00  9.000E+00
      21     1     1     2   511   502  2.777637178E+01 -1.913890100E+01  3.584704701E+02  3.600540269E+02  3.814697266E-06  0.00000E+00  9.000E+00
#rwgt            1           1 -0.13271769650503551                1      293436           0
</event>
<event>
      5   9999  3.79277E-02  6.24659E+01 -1.00000E+00  1.33775E-01
      21    -1     0     0   502   501  0.000000000E+00  0.000000000E+00  7.909140070E+02  7.909140070E+02  0.000000000E+00  0.00000E+00  9.000E+00
      21    -1     0     0   501   512  0.000000000E+00  0.000000000E+00 -3.219548608E+02  3.219548608E+02  0.000000000E+00  0.00000E+00  9.000E+00
      25     1     1     2     0     0  1.231246230E+02 -1.527296845E+01  1.973923177E+02  2.645404760E+02  1.250000000E+02  0.00000E+00  9.000E+00
      25     1     1     2     0     0 -1.635858665E+02 -3.231777629E+01  5.368028278E+02  5.758359578E+02  1.250000000E+02  0.00000E+00  9.000E+00
      21     1     1     2   502   512  4.046124346E+01  4.759074474E+01 -2.652359993E+02  2.724924339E+02  3.814697266E-06  0.00000E+00  9.000E+00
#rwgt            1           1   4.4096421637040140E-002           1      293586           0
</event>
<event>
      5   9999  3.79277E-02  5.30012E+01 -1.00000E+00  1.37646E-01
      21    -1     0     0   502   501  0.000000000E+00  0.000000000E+00  1.886108225E+03  1.886108225E+03  0.000000000E+00  0.00000E+00  9.000E+00
      21    -1     0     0   511   502  0.000000000E+00  0.000000000E+00 -5.275711703E+01  5.275711703E+01  0.000000000E+00  0.00000E+00  9.000E+00
      25     1     1     2     0     0 -2.173240834E+01 -1.859640077E+02  1.175544097E+03  1.196905942E+03  1.250000000E+02  0.00000E+00  9.000E+00
      25     1     1     2     0     0  6.511469380E+01  1.555155322E+02  6.561853039E+02  6.889333474E+02  1.250000000E+02  0.00000E+00  9.000E+00
      21     1     1     2   511   501 -4.338228545E+01  3.044847546E+01  1.621707191E+00  5.302605287E+01  2.249729923E-06  0.00000E+00  9.000E+00
#rwgt            1           1   3.2333708041715807E-002           1      293654           0
</event>
<event>
      5   9999  3.79277E-02  3.29103E+01 -1.00000E+00  1.50298E-01
      21    -1     0     0   502   501  0.000000000E+00  0.000000000E+00  5.242143142E+02  5.242143142E+02  0.000000000E+00  0.00000E+00  9.000E+00
      21    -1     0     0   501   512  0.000000000E+00  0.000000000E+00 -1.166081367E+02  1.166081367E+02  0.000000000E+00  0.00000E+00  9.000E+00
      25     1     1     2     0     0  1.439527777E+02 -9.949876551E+01  3.363382619E+02  3.992127665E+02  1.250000000E+02  0.00000E+00  9.000E+00
      25     1     1     2     0     0 -1.169176912E+02  8.073202166E+01  8.303736612E+01  2.066581961E+02  1.250000000E+02  0.00000E+00  9.000E+00
      21     1     1     2   502   512 -2.703508643E+01  1.876674385E+01 -1.176945047E+01  3.495148834E+01  2.384185791E-07  0.00000E+00  9.000E+00
#rwgt            1           1   3.6683444625562119E-002           1      293811           0
</event>
<event>
      5   9999  3.79277E-02  1.13588E+01 -1.00000E+00  1.89571E-01
      21    -1     0     0   502   511  0.000000000E+00  0.000000000E+00  9.806076837E+01  9.806076837E+01  0.000000000E+00  0.00000E+00  9.000E+00
      21    -1     0     0   501   502  0.000000000E+00  0.000000000E+00 -5.041003770E+02  5.041003770E+02  0.000000000E+00  0.00000E+00  9.000E+00
      25     1     1     2     0     0 -1.785472439E+01  1.248439103E+02 -1.854662615E+02  2.567635630E+02  1.250000000E+02  0.00000E+00  9.000E+00
      25     1     1     2     0     0  7.795552684E+00 -1.301198270E+02 -2.531091626E+02  3.109359874E+02  1.250000000E+02  0.00000E+00  9.000E+00
      21     1     1     2   501   511  1.005917171E+01  5.275916700E+00  3.253581556E+01  3.446159496E+01  1.168007728E-06  0.00000E+00  9.000E+00
#rwgt            1           1   4.3764196757205699E-002           1      293945           0
</event>
<event>
      5   9999  3.79277E-02  1.96020E+01 -1.00000E+00  1.67093E-01
      21    -1     0     0   502   512  0.000000000E+00  0.000000000E+00  3.728423701E+02  3.728423701E+02  0.000000000E+00  0.00000E+00  9.000E+00
      21    -1     0     0   501   502  0.000000000E+00  0.000000000E+00 -5.002525423E+02  5.002525423E+02  0.000000000E+00  0.00000E+00  9.000E+00
      25     1     1     2     0     0  2.440200664E+02 -2.648819703E+02  1.596353293E+01  3.815600679E+02  1.250000000E+02  0.00000E+00  9.000E+00
      25     1     1     2     0     0 -2.533530791E+02  2.821195414E+02 -1.891085645E+02  4.417762640E+02  1.250000000E+02  0.00000E+00  9.000E+00
      21     1     1     2   501   512  9.333012700E+00 -1.723757103E+01  4.573485933E+01  4.975858055E+01  0.000000000E+00  0.00000E+00  9.000E+00
#rwgt            1           1   4.8337721475080551E-002           1      294199           0
</event>
<event>
      5   9999  3.79277E-02  3.27059E+01 -1.00000E+00  1.50480E-01
      21    -1     0     0   502   511  0.000000000E+00  0.000000000E+00  6.387428762E+01  6.387428762E+01  0.000000000E+00  0.00000E+00  9.000E+00
      21    -1     0     0   501   502  0.000000000E+00  0.000000000E+00 -7.158224955E+02  7.158224955E+02  0.000000000E+00  0.00000E+00  9.000E+00
      25     1     1     2     0     0  9.163635879E+01 -8.568084069E+01 -1.829247007E+02  2.546072953E+02  1.250000000E+02  0.00000E+00  9.000E+00
      25     1     1     2     0     0 -1.141276265E+02  1.094256533E+02 -4.237079733E+02  4.692041510E+02  1.250000000E+02  0.00000E+00  9.000E+00
      21     1     1     2   501   511  2.249126770E+01 -2.374481263E+01 -4.531553389E+01  5.588533674E+01  0.000000000E+00  0.00000E+00  9.000E+00
#rwgt            1           1   3.9318024214328458E-002           1      294434           0
</event>
<event>
      5   9999  3.79277E-02  1.15529E+01 -1.00000E+00  1.88779E-01
      21    -1     0     0   502   501  0.000000000E+00  0.000000000E+00  8.443039800E+01  8.443039800E+01  0.000000000E+00  0.00000E+00  9.000E+00
      21    -1     0     0   512   502  0.000000000E+00  0.000000000E+00 -4.204190184E+02  4.204190184E+02  0.000000000E+00  0.00000E+00  9.000E+00
      25     1     1     2     0     0 -4.957897229E+01 -1.094686416E+02 -1.458875672E+02  2.266045901E+02  1.250000000E+02  0.00000E+00  9.000E+00
      25     1     1     2     0     0  5.900958073E+01  1.161418833E+02 -1.446347204E+02  2.313336768E+02  1.250000000E+02  0.00000E+00  9.000E+00
      21     1     1     2   512   501 -9.430608438E+00 -6.673241760E+00 -4.546633281E+01  4.691114953E+01  6.743495762E-07  0.00000E+00  9.000E+00
#rwgt            1           1   4.6704913859721961E-002           1      294648           0
</event>
<event>
      5   9999  3.79277E-02  1.27068E+02 -1.00000E+00  1.19323E-01
      21    -1     0     0   502   511  0.000000000E+00  0.000000000E+00  7.688353588E+02  7.688353588E+02  0.000000000E+00  0.00000E+00  9.000E+00
      21    -1     0     0   501   502  0.000000000E+00  0.000000000E+00 -4.643536756E+02  4.643536756E+02  0.000000000E+00  0.00000E+00  9.000E+00
      25     1     1     2     0     0 -2.463936902E+02  4.033699316E+01 -1.147497602E+02  3.018765163E+02  1.250000000E+02  0.00000E+00  9.000E+00
      25     1     1     2     0     0  2.562588415E+02  8.634727426E+01 -1.601043178E+02  3.382053196E+02  1.250000000E+02  0.00000E+00  9.000E+00
      21     1     1     2   501   511 -9.865151249E+00 -1.266842674E+02  5.793357612E+02  5.931071986E+02  1.078959322E-05  0.00000E+00  9.000E+00
#rwgt            1           1   3.1234271006365652E-002           1      294931           0
</event>
<event>
      5   9999  3.79277E-02  1.63621E+02 -1.00000E+00  1.14917E-01
      21    -1     0     0   512   501  0.000000000E+00  0.000000000E+00  4.957810668E+02  4.957810668E+02  0.000000000E+00  0.00000E+00  9.000E+00
      21    -1     0     0   501   502  0.000000000E+00  0.000000000E+00 -3.539214120E+02  3.539214120E+02  0.000000000E+00  0.00000E+00  9.000E+00
      25     1     1     2     0     0 -3.465715915E+02 -9.515062407E+01  1.737030704E+02  4.182861054E+02  1.250000000E+02  0.00000E+00  9.000E+00
      25     1     1     2     0     0  1.829666236E+02  9.742771456E+01 -8.928820067E+01  2.580045110E+02  1.250000000E+02  0.00000E+00  9.000E+00
      21     1     1     2   512   502  1.636049680E+02 -2.277090495E+00  5.744478513E+01  1.734118624E+02  3.932099939E-06  0.00000E+00  9.000E+00
#rwgt            1           1   7.7403779251640825E-002           1      295046           0
</event>
<event>
      5   9999  3.79277E-02  1.95127E+01 -1.00000E+00  1.67258E-01
      21    -1     0     0   502   501  0.000000000E+00  0.000000000E+00  3.841838556E+01  3.841838556E+01  0.000000000E+00  0.00000E+00  9.000E+00
      21    -1     0     0   501   511  0.000000000E+00  0.000000000E+00 -1.229944241E+03  1.229944241E+03  0.000000000E+00  0.00000E+00  9.000E+00
      25     1     1     2     0     0 -1.507382394E+02  1.741605607E+01 -4.329673084E+02  4.755113311E+02  1.250000000E+02  0.00000E+00  9.000E+00
      25     1     1     2     0     0  1.357462631E+02 -2.990545752E+01 -5.041046453E+02  5.376503304E+02  1.250000000E+02  0.00000E+00  9.000E+00
      21     1     1     2   502   511  1.499197629E+01  1.248940146E+01 -2.544539015E+02  2.552009649E+02  3.814697266E-06  0.00000E+00  9.000E+00
#rwgt            1           1   5.9012258496985319E-002           1      295078           0
</event>
<event>
      5   9999  3.79277E-02  1.11654E+02 -1.00000E+00  1.21712E-01
      21    -1     0     0   502   501  0.000000000E+00  0.000000000E+00  5.459629640E+02  5.459629640E+02  0.000000000E+00  0.00000E+00  9.000E+00
      21    -1     0     0   512   502  0.000000000E+00  0.000000000E+00 -1.001755739E+02  1.001755739E+02  0.000000000E+00  0.00000E+00  9.000E+00
      25     1     1     2     0     0 -1.604728729E+01 -1.041625591E+02  1.161700887E+02  2.005688003E+02  1.250000000E+02  0.00000E+00  9.000E+00
      25     1     1     2     0     0  9.736576406E+01  2.765185409E+01  2.810311609E+02  3.238027647E+02  1.250000000E+02  0.00000E+00  9.000E+00
      21     1     1     2   512   501 -8.131847677E+01  7.651070501E+01  4.858614046E+01  1.217669729E+02  1.507891493E-06  0.00000E+00  9.000E+00
#rwgt            2          11   2.7307444762107828E-003           1      295364           0
</event>
<event>
      5   9999  3.79277E-02  6.62384E+01 -1.00000E+00  1.32447E-01
      21    -1     0     0   511   501  0.000000000E+00  0.000000000E+00  9.826223496E+01  9.826223496E+01  0.000000000E+00  0.00000E+00  9.000E+00
      21    -1     0     0   501   502  0.000000000E+00  0.000000000E+00 -1.657523838E+03  1.657523838E+03  0.000000000E+00  0.00000E+00  9.000E+00
      25     1     1     2     0     0  1.554725800E+02 -6.103879571E+01 -6.723751453E+02  7.039963024E+02  1.250000000E+02  0.00000E+00  9.000E+00
      25     1     1     2     0     0 -9.817083085E+01  9.426575242E+01 -9.454710694E+02  9.633608291E+02  1.250000000E+02  0.00000E+00  9.000E+00
      21     1     1     2   511   502 -5.730174919E+01 -3.322695671E+01  5.858461113E+01  8.842894195E+01  3.932099939E-06  0.00000E+00  9.000E+00
#rwgt            1           1   3.5906316121600126E-002           1      295444           0
</event>
<event>
      5   9999  3.79277E-02  2.08970E+01 -1.00000E+00  1.64812E-01
      21    -1     0     0   502   501  0.000000000E+00  0.000000000E+00  5.701215530E+02  5.701215530E+02  0.000000000E+00  0.00000E+00  9.000E+00
      21    -1     0     0   501   512  0.000000000E+00  0.000000000E+00 -1.404701867E+02  1.404701867E+02  0.000000000E+00  0.00000E+00  9.000E+00
      25     1     1     2     0     0 -1.643240854E+02 -3.485834950E+01  9.199353721E+01  2.287035646E+02  1.250000000E+02  0.00000E+00  9.000E+00
      25     1     1     2     0     0  1.793720143E+02  4.935819380E+01  3.762800022E+02  4.379751030E+02  1.250000000E+02  0.00000E+00  9.000E+00
      21     1     1     2   502   512 -1.504792888E+01 -1.449984430E+01 -3.862217311E+01  4.391307213E+01  4.768371582E-07  0.00000E+00  9.000E+00
#rwgt            1           1  0.16881143716310437                1      295524           0
</event>
<event>
      5   9999  3.79277E-02  9.84142E+00 -1.00000E+00  1.96563E-01
      21    -1     0     0   502   511  0.000000000E+00  0.000000000E+00  4.805685947E+02  4.805685947E+02  0.000000000E+00  0.00000E+00  9.000E+00
      21    -1     0     0   501   502  0.000000000E+00  0.000000000E+00 -1.983570658E+02  1.983570658E+02  0.000000000E+00  0.00000E+00  9.000E+00
      25     1     1     2     0     0  7.605496699E+01 -4.864853766E+01 -1.506680042E+02  2.155849849E+02  1.250000000E+02  0.00000E+00  9.000E+00
      25     1     1     2     0     0 -7.339199652E+01  3.917425242E+01  3.638796205E+02  3.936424589E+02  1.250000000E+02  0.00000E+00  9.000E+00
      21     1     1     2   501   511 -2.662970477E+00  9.474285232E+00  6.899991258E+01  6.969821682E+01  9.536743164E-07  0.00000E+00  9.000E+00
#rwgt            1           1   3.9324342390873783E-002           1      295675           0
</event>
<event>
      5   9999  3.79277E-02  5.25145E+01 -1.00000E+00  1.37870E-01
      21    -1     0     0   502   512  0.000000000E+00  0.000000000E+00  4.108746166E+03  4.108746166E+03  0.000000000E+00  0.00000E+00  9.000E+00
      21    -1     0     0   501   502  0.000000000E+00  0.000000000E+00 -6.078472060E+01  6.078472060E+01  0.000000000E+00  0.00000E+00  9.000E+00
      25     1     1     2     0     0  8.623165450E+01  3.048251419E+02  7.271026527E+02  8.029056813E+02  1.250000000E+02  0.00000E+00  9.000E+00
      25     1     1     2     0     0 -3.615233641E+01 -2.890188525E+02  1.090022270E+03  1.135170664E+03  1.250000000E+02  0.00000E+00  9.000E+00
      21     1     1     2   501   512 -5.007931809E+01 -1.580628939E+01  2.230836523E+03  2.231454541E+03  3.051757812E-05  0.00000E+00  9.000E+00
#rwgt            1           1   4.1943589005069684E-002           1      295904           0
</event>
<event>
      5   9999  3.79277E-02  1.00156E+02 -1.00000E+00  1.23798E-01
      -3    -1     0     0     0   501  0.000000000E+00  0.000000000E+00  2.277740759E+02  2.277740759E+02  0.000000000E+00  0.00000E+00  9.000E+00
      21    -1     0     0   501   502  0.000000000E+00  0.000000000E+00 -1.631715696E+03  1.631715696E+03  0.000000000E+00  0.00000E+00  9.000E+00
      25     1     1     2     0     0  1.616634227E+02 -5.372230176E+01 -4.235916635E+02  4.733667133E+02  1.250000000E+02  0.00000E+00  9.000E+00
      25     1     1     2     0     0 -2.374156700E+02  1.192412554E+02 -1.151214716E+03  1.188067759E+03  1.250000000E+02  0.00000E+00  9.000E+00
      -3     1     1     2     0   502  7.575224724E+01 -6.551895366E+01  1.708647586E+02  1.980553003E+02  5.046370146E-06  0.00000E+00  9.000E+00
#rwgt            1           1   2.4017099739008948E-002           1      296030           0
</event>
<event>
      5   9999  3.79277E-02  7.24085E+01 -1.00000E+00  1.30481E-01
      21    -1     0     0   511   501  0.000000000E+00  0.000000000E+00  6.075174918E+02  6.075174918E+02  0.000000000E+00  0.00000E+00  9.000E+00
      21    -1     0     0   501   502  0.000000000E+00  0.000000000E+00 -8.526829811E+01  8.526829811E+01  0.000000000E+00  0.00000E+00  9.000E+00
      25     1     1     2     0     0  2.315440868E+01  1.480593098E+02  2.315369493E+02  3.028069430E+02  1.250000000E+02  0.00000E+00  9.000E+00
      25     1     1     2     0     0  4.435596923E+01 -1.218803052E+02  1.618300722E+02  2.421491959E+02  1.250000000E+02  0.00000E+00  9.000E+00
      21     1     1     2   511   502 -6.751037792E+01 -2.617900461E+01  1.288821721E+02  1.478296510E+02  1.907348633E-06  0.00000E+00  9.000E+00
#rwgt            1           1   3.9558110209140740E-002           1      296148           0
</event>
<event>
      5   9999 -3.79277E-02  1.52412E+02 -1.00000E+00  1.16120E-01
      -2    -1     0     0     0   501  0.000000000E+00  0.000000000E+00  4.104869497E+02  4.104869497E+02  0.000000000E+00  0.00000E+00  9.000E+00
      21    -1     0     0   501   502  0.000000000E+00  0.000000000E+00 -2.364966274E+02  2.364966274E+02  0.000000000E+00  0.00000E+00  9.000E+00
      25     1     1     2     0     0  2.150327120E+02  8.424443999E+01  8.268408251E+01  2.753140941E+02  1.250000000E+02  0.00000E+00  9.000E+00
      25     1     1     2     0     0 -6.522318264E+01 -5.619874934E+01 -5.399061531E+01  1.610973293E+02  1.250000000E+02  0.00000E+00  9.000E+00
      -2     1     1     2     0   502 -1.498095293E+02 -2.804569066E+01  1.452968551E+02  2.105721538E+02  0.000000000E+00  0.00000E+00  9.000E+00
#rwgt            1           1  -4.3114168580767512E-002           1      296420           0
</event>
<event>
      5   9999  3.79277E-02  7.62800E+01 -1.00000E+00  1.29358E-01
      21    -1     0     0   502   511  0.000000000E+00  0.000000000E+00  2.044609053E+02  2.044609053E+02  0.000000000E+00  0.00000E+00  9.000E+00
      21    -1     0     0   501   502  0.000000000E+00  0.000000000E+00 -4.627110448E+02  4.627110448E+02  0.000000000E+00  0.00000E+00  9.000E+00
      25     1     1     2     0     0  1.244162356E+01  9.125921169E+01 -3.491624413E+02  3.821288371E+02  1.250000000E+02  0.00000E+00  9.000E+00
      25     1     1     2     0     0 -5.754661955E+01 -2.974354285E+01 -2.821408287E+01  1.435873471E+02  1.250000000E+02  0.00000E+00  9.000E+00
      21     1     1     2   501   511  4.510499599E+01 -6.151566884E+01  1.191263847E+02  1.414557659E+02  3.015782986E-06  0.00000E+00  9.000E+00
#rwgt            1           1   3.2648607732218698E-002           1      296510           0
</event>
<event>
      5   9999  3.79277E-02  4.71538E+01 -1.00000E+00  1.40543E-01
      21    -1     0     0   502   501  0.000000000E+00  0.000000000E+00  9.405714526E+02  9.405714526E+02  0.000000000E+00  0.00000E+00  9.000E+00
      21    -1     0     0   512   502  0.000000000E+00  0.000000000E+00 -1.491180507E+02  1.491180507E+02  0.000000000E+00  0.00000E+00  9.000E+00
      25     1     1     2     0     0  9.412774441E+01  4.008572360E+01  2.023749880E+02  2.589353844E+02  1.250000000E+02  0.00000E+00  9.000E+00
      25     1     1     2     0     0 -5.248686748E+01 -1.796058742E+01  6.984173949E+02  7.116806246E+02  1.250000000E+02  0.00000E+00  9.000E+00
      21     1     1     2   512   501 -4.164087694E+01 -2.212513618E+01 -1.093389810E+02  1.190734943E+02  3.568322551E-06  0.00000E+00  9.000E+00
#rwgt            1           1   6.0319600309383048E-002           1      296632           0
</event>
<event>
      5   9999  3.79277E-02  2.40483E+01 -1.00000E+00  1.60024E-01
      21    -1     0     0   502   501  0.000000000E+00  0.000000000E+00  3.677257105E+02  3.677257105E+02  0.000000000E+00  0.00000E+00  9.000E+00
      21    -1     0     0   501   511  0.000000000E+00  0.000000000E+00 -1.400072885E+02  1.400072885E+02  0.000000000E+00  0.00000E+00  9.000E+00
      25     1     1     2     0     0 -9.387890027E+01 -1.354279574E+02  4.405888471E+01  2.114714280E+02  1.250000000E+02  0.00000E+00  9.000E+00
      25     1     1     2     0     0  8.514778797E+01  1.130206162E+02  1.934306946E+02  2.703039753E+02  1.250000000E+02  0.00000E+00  9.000E+00
      21     1     1     2   502   511  8.731112306E+00  2.240734112E+01 -9.771157232E+00  2.595759565E+01  2.665600750E-07  0.00000E+00  9.000E+00
#rwgt            1           1   3.5237993640835512E-002           1      296714           0
</event>
<event>
      5   9999  3.79277E-02  5.30487E+01 -1.00000E+00  1.37625E-01
      21    -1     0     0   502   501  0.000000000E+00  0.000000000E+00  3.240071555E+02  3.240071555E+02  0.000000000E+00  0.00000E+00  9.000E+00
      21    -1     0     0   512   502  0.000000000E+00  0.000000000E+00 -9.628089219E+01  9.628089219E+01  0.000000000E+00  0.00000E+00  9.000E+00
      25     1     1     2     0     0 -9.381435381E+01  7.826624736E-01  7.639256677E+01  1.739614032E+02  1.250000000E+02  0.00000E+00  9.000E+00
      25     1     1     2     0     0  5.261034190E+01  3.262979433E+01  1.240608190E+02  1.866779001E+02  1.250000000E+02  0.00000E+00  9.000E+00
      21     1     1     2   512   501  4.120401191E+01 -3.341245681E+01  2.727287753E+01  5.964874446E+01  0.000000000E+00  0.00000E+00  9.000E+00
#rwgt            1           1   8.4134925505319341E-002           1      296869           0
</event>
<event>
      5   9999  3.79277E-02  5.77777E+01 -1.00000E+00  1.35585E-01
      21    -1     0     0   511   501  0.000000000E+00  0.000000000E+00  8.377143223E+01  8.377143223E+01  0.000000000E+00  0.00000E+00  9.000E+00
      21    -1     0     0   501   502  0.000000000E+00  0.000000000E+00 -1.114026983E+03  1.114026983E+03  0.000000000E+00  0.00000E+00  9.000E+00
      25     1     1     2     0     0  4.074443596E+01  1.252329683E+02 -8.328583633E+02  8.524209398E+02  1.250000000E+02  0.00000E+00  9.000E+00
      25     1     1     2     0     0 -7.535378892E+01 -1.714980053E+02 -1.492370348E+02  2.701600487E+02  1.250000000E+02  0.00000E+00  9.000E+00
      21     1     1     2   511   502  3.460935296E+01  4.626503702E+01 -4.816015244E+01  7.521742648E+01  1.507891493E-06  0.00000E+00  9.000E+00
#rwgt            1           1   5.1312595124158075E-002           1      297002           0
</event>
<event>
      5   9999  3.79277E-02  4.50995E+01 -1.00000E+00  1.41681E-01
      21    -1     0     0   502   512  0.000000000E+00  0.000000000E+00  4.882469834E+01  4.882469834E+01  0.000000000E+00  0.00000E+00  9.000E+00
      21    -1     0     0   501   502  0.000000000E+00  0.000000000E+00 -9.533718347E+02  9.533718347E+02  0.000000000E+00  0.00000E+00  9.000E+00
      25     1     1     2     0     0  1.191317528E+02 -3.374007635E+01 -4.867013046E+02  5.175267405E+02  1.250000000E+02  0.00000E+00  9.000E+00
      25     1     1     2     0     0 -1.291636913E+02  7.770964504E+01 -3.717994107E+02  4.202164322E+02  1.250000000E+02  0.00000E+00  9.000E+00
      21     1     1     2   501   512  1.003193848E+01 -4.396956870E+01 -4.604642106E+01  6.445336030E+01  9.536743164E-07  0.00000E+00  9.000E+00
#rwgt            1           1   4.3145962627056542E-002           1      297120           0
</event>
<event>
      5   9999 -3.79277E-02  4.71623E+01 -1.00000E+00  1.40539E-01
      21    -1     0     0   511   501  0.000000000E+00  0.000000000E+00  2.148574165E+02  2.148574165E+02  0.000000000E+00  0.00000E+00  9.000E+00
      21    -1     0     0   501   502  0.000000000E+00  0.000000000E+00 -4.668155586E+02  4.668155586E+02  0.000000000E+00  0.00000E+00  9.000E+00
      25     1     1     2     0     0 -7.576245783E+01  2.035856866E+02 -1.787448720E+02  3.078340642E+02  1.250000000E+02  0.00000E+00  9.000E+00
      25     1     1     2     0     0  1.043309398E+02 -1.660606583E+02 -1.549611032E+02  2.794620381E+02  1.250000000E+02  0.00000E+00  9.000E+00
      21     1     1     2   511   502 -2.856848193E+01 -3.752502831E+01  8.174783317E+01  9.437687290E+01  9.536743164E-07  0.00000E+00  9.000E+00
#rwgt            1           1  -6.5721978979298865E-002           1      297217           0
</event>
<event>
      5   9999  3.79277E-02  5.40632E+01 -1.00000E+00  1.37167E-01
      21    -1     0     0   502   501  0.000000000E+00  0.000000000E+00  1.231703688E+02  1.231703688E+02  0.000000000E+00  0.00000E+00  9.000E+00
      -4    -1     0     0     0   502  0.000000000E+00  0.000000000E+00 -1.359596570E+03  1.359596570E+03  0.000000000E+00  0.00000E+00  9.000E+00
      25     1     1     2     0     0  1.790704905E+02 -8.038754406E+00 -2.479607618E+01  2.199334162E+02  1.250000000E+02  0.00000E+00  9.000E+00
      25     1     1     2     0     0 -1.490849944E+02 -3.694674978E+01 -3.716701594E+02  4.211354951E+02  1.250000000E+02  0.00000E+00  9.000E+00
      -4     1     1     2     0   501 -2.998549612E+01  4.498550418E+01 -8.399599658E+02  8.416980276E+02  0.000000000E+00  0.00000E+00  9.000E+00
#rwgt            1           1   2.1991990775440430E-002           1      297355           0
</event>
<event>
      5   9999  3.79277E-02  3.95318E+01 -1.00000E+00  1.45158E-01
      21    -1     0     0   502   501  0.000000000E+00  0.000000000E+00  1.516528759E+02  1.516528759E+02  0.000000000E+00  0.00000E+00  9.000E+00
       3    -1     0     0   501     0  0.000000000E+00  0.000000000E+00 -1.591185186E+03  1.591185186E+03  0.000000000E+00  0.00000E+00  9.000E+00
      25     1     1     2     0     0  1.230389743E+02 -1.283125165E+02 -1.568290822E+02  2.679982316E+02  1.250000000E+02  0.00000E+00  9.000E+00
      25     1     1     2     0     0 -1.348646238E+02  9.059092607E+01 -1.394085860E+01  2.054617487E+02  1.250000000E+02  0.00000E+00  9.000E+00
       3     1     1     2   502     0  1.182564949E+01  3.772159041E+01 -1.268762370E+03  1.269378082E+03  2.157918644E-05  0.00000E+00  9.000E+00
#rwgt            1           1   3.9578515272138987E-002           1      297495           0
</event>
<event>
      5   9999  3.79277E-02  7.24174E+01 -1.00000E+00  1.30478E-01
      -5    -1     0     0     0   501  0.000000000E+00  0.000000000E+00  2.321688741E+02  2.321688741E+02  0.000000000E+00  0.00000E+00  9.000E+00
      21    -1     0     0   501   502  0.000000000E+00  0.000000000E+00 -9.079985704E+02  9.079985704E+02  0.000000000E+00  0.00000E+00  9.000E+00
      25     1     1     2     0     0  2.610331283E+02 -1.648608086E+02 -1.716914361E+02  3.747270067E+02  1.250000000E+02  0.00000E+00  9.000E+00
      25     1     1     2     0     0 -1.961337593E+02  1.327305307E+02 -5.930868536E+02  6.507402410E+02  1.250000000E+02  0.00000E+00  9.000E+00
      -5     1     1     2     0   502 -6.489936909E+01  3.213027795E+01  8.894859345E+01  1.147001968E+02  9.536743164E-07  0.00000E+00  9.000E+00
#rwgt            1           1   4.0092089891701287E-002           1      297614           0
</event>
<event>
      5   9999  3.79277E-02  9.39960E+01 -1.00000E+00  1.25050E-01
      21    -1     0     0   502   501  0.000000000E+00  0.000000000E+00  2.397060806E+03  2.397060806E+03  0.000000000E+00  0.00000E+00  9.000E+00
      21    -1     0     0   501   511  0.000000000E+00  0.000000000E+00 -2.774925588E+01  2.774925588E+01  0.000000000E+00  0.00000E+00  9.000E+00
      25     1     1     2     0     0  9.996028482E+01 -1.954856503E+01  1.332615264E+03  1.342334774E+03  1.250000000E+02  0.00000E+00  9.000E+00
      25     1     1     2     0     0 -1.462754523E+02  1.013418979E+02  7.272698493E+02  7.590870318E+02  1.250000000E+02  0.00000E+00  9.000E+00
      21     1     1     2   502   511  4.631516743E+01 -8.179333290E+01  3.094264374E+02  3.233882562E+02  5.394796609E-06  0.00000E+00  9.000E+00
#rwgt            1           1  0.11691659496302395                1      297700           0
</event>
<event>
      5   9999  3.79277E-02  1.27085E+01 -1.00000E+00  1.84446E-01
      21    -1     0     0   502   501  0.000000000E+00  0.000000000E+00  4.629334581E+01  4.629334581E+01  0.000000000E+00  0.00000E+00  9.000E+00
      21    -1     0     0   512   502  0.000000000E+00  0.000000000E+00 -1.626187421E+03  1.626187421E+03  0.000000000E+00  0.00000E+00  9.000E+00
      25     1     1     2     0     0 -9.162126648E+01  2.658434600E+01 -1.228701207E+02  1.995576370E+02  1.250000000E+02  0.00000E+00  9.000E+00
      25     1     1     2     0     0  7.917119477E+01 -2.913396655E+01 -7.122048470E+02  7.279956113E+02  1.250000000E+02  0.00000E+00  9.000E+00
      21     1     1     2   512   501  1.245007172E+01  2.549620549E+00 -7.448191077E+02  7.449275187E+02  1.078959322E-05  0.00000E+00  9.000E+00
#rwgt            1           1   4.3276474685400530E-002           1      297821           0
</event>
<event>
      5   9999  3.79277E-02  4.69461E+01 -1.00000E+00  1.40655E-01
      21    -1     0     0   502   511  0.000000000E+00  0.000000000E+00  3.724826437E+02  3.724826437E+02  0.000000000E+00  0.00000E+00  9.000E+00
      21    -1     0     0   501   502  0.000000000E+00  0.000000000E+00 -1.447902961E+02  1.447902961E+02  0.000000000E+00  0.00000E+00  9.000E+00
      25     1     1     2     0     0 -1.202162757E+02  5.025526522E+01  1.690027136E+02  2.473144998E+02  1.250000000E+02  0.00000E+00  9.000E+00
      25     1     1     2     0     0  1.596051158E+02 -2.471198089E+01  1.330583211E+01  2.046619656E+02  1.250000000E+02  0.00000E+00  9.000E+00
      21     1     1     2   501   511 -3.938884013E+01 -2.554328433E+01  4.538380191E+01  6.529647446E+01  9.536743164E-07  0.00000E+00  9.000E+00
#rwgt            1           1   4.5565350076578442E-002           1      298113           0
</event>
<event>
      5   9999  3.79277E-02  1.17717E+02 -1.00000E+00  1.20724E-01
      21    -1     0     0   502   501  0.000000000E+00  0.000000000E+00  7.435430345E+02  7.435430345E+02  0.000000000E+00  0.00000E+00  9.000E+00
      21    -1     0     0   512   502  0.000000000E+00  0.000000000E+00 -6.645069223E+02  6.645069223E+02  0.000000000E+00  0.00000E+00  9.000E+00
      25     1     1     2     0     0  5.434498945E+02 -9.038456017E+01  1.215905094E+02  5.778550065E+02  1.250000000E+02  0.00000E+00  9.000E+00
      25     1     1     2     0     0 -4.789799084E+02  1.888772644E+02  1.954005319E+02  5.647147435E+02  1.250000000E+02  0.00000E+00  9.000E+00
      21     1     1     2   512   501 -6.446998614E+01 -9.849270420E+01 -2.379549292E+02  2.654802068E+02  2.697398305E-06  0.00000E+00  9.000E+00
#rwgt            1           1   8.1918986078036535E-002           1      298284           0
</event>
<event>
      5   9999  3.79277E-02  1.27659E+02 -1.00000E+00  1.19239E-01
       2    -1     0     0   502     0  0.000000000E+00  0.000000000E+00  3.619478556E+03  3.619478556E+03  0.000000000E+00  0.00000E+00  9.000E+00
      21    -1     0     0   501   502  0.000000000E+00  0.000000000E+00 -4.137140060E+01  4.137140060E+01  0.000000000E+00  0.00000E+00  9.000E+00
      25     1     1     2     0     0  3.536193934E+01 -6.823151859E+01  8.489070758E+02  8.614953454E+02  1.250000000E+02  0.00000E+00  9.000E+00
      25     1     1     2     0     0 -1.069118152E+02  1.739554512E+02  3.965530467E+02  4.632169622E+02  1.250000000E+02  0.00000E+00  9.000E+00
       2     1     1     2   501     0  7.154987588E+01 -1.057239327E+02  2.332647033E+03  2.336137649E+03  3.051757812E-05  0.00000E+00  9.000E+00
#rwgt            2          18   3.8162081065624428E-004           1      298449           0
</event>
<event>
      5   9999  3.79277E-02  4.40925E+01 -1.00000E+00  1.42264E-01
      21    -1     0     0   502   501  0.000000000E+00  0.000000000E+00  1.411619193E+02  1.411619193E+02  0.000000000E+00  0.00000E+00  9.000E+00
      21    -1     0     0   501   511  0.000000000E+00  0.000000000E+00 -1.304294168E+03  1.304294168E+03  0.000000000E+00  0.00000E+00  9.000E+00
      25     1     1     2     0     0  4.235408605E+01 -4.037635929E+01 -7.644311292E+02  7.767908794E+02  1.250000000E+02  0.00000E+00  9.000E+00
      25     1     1     2     0     0  1.228793670E+00  4.706089491E+01  1.007275236E+02  1.672939682E+02  1.250000000E+02  0.00000E+00  9.000E+00
      21     1     1     2   502   511 -4.358287972E+01 -6.684535623E+00 -4.994286434E+02  5.013712400E+02  1.206313194E-05  0.00000E+00  9.000E+00
#rwgt            1           1   4.2192396106712091E-002           1      298513           0
</event>
<event>
      5   9999  3.79277E-02  4.19563E+01 -1.00000E+00  1.43566E-01
      21    -1     0     0   502   501  0.000000000E+00  0.000000000E+00  3.622352025E+02  3.622352025E+02  0.000000000E+00  0.00000E+00  9.000E+00
       2    -1     0     0   501     0  0.000000000E+00  0.000000000E+00 -6.784871062E+02  6.784871062E+02  0.000000000E+00  0.00000E+00  9.000E+00
      25     1     1     2     0     0  5.860751090E+01  3.074618413E+02  8.871090715E+01  3.485143458E+02  1.250000000E+02  0.00000E+00  9.000E+00
      25     1     1     2     0     0 -2.142298344E+01 -2.880287734E+02 -3.137714733E+01  3.162736851E+02  1.250000000E+02  0.00000E+00  9.000E+00
       2     1     1     2   502     0 -3.718452746E+01 -1.943306792E+01 -3.735856635E+02  3.759342777E+02  5.394796609E-06  0.00000E+00  9.000E+00
#rwgt            1           1   3.7889785400225112E-002           1      298628           0
</event>
<event>
      5   9999  3.79277E-02  3.78656E+01 -1.00000E+00  1.46333E-01
      21    -1     0     0   502   511  0.000000000E+00  0.000000000E+00  8.440354607E+01  8.440354607E+01  0.000000000E+00  0.00000E+00  9.000E+00
      21    -1     0     0   501   502  0.000000000E+00  0.000000000E+00 -9.791207145E+02  9.791207145E+02  0.000000000E+00  0.00000E+00  9.000E+00
      25     1     1     2     0     0  1.432093368E+02 -8.575017488E+01 -1.308621287E+02  2.461948484E+02  1.250000000E+02  0.00000E+00  9.000E+00
      25     1     1     2     0     0 -1.176565319E+02  1.136940240E+02 -7.487802149E+02  7.765733711E+02  1.250000000E+02  0.00000E+00  9.000E+00
      21     1     1     2   501   511 -2.555280485E+01 -2.794384912E+01 -1.507482485E+01  4.075604107E+01  9.078709013E-07  0.00000E+00  9.000E+00
#rwgt            1           1   4.4105006119771507E-002           1      298928           0
</event>
<event>
      5   9999  3.79277E-02  8.59003E+01 -1.00000E+00  1.26871E-01
      21    -1     0     0   502   501  0.000000000E+00  0.000000000E+00  5.437598914E+02  5.437598914E+02  0.000000000E+00  0.00000E+00  9.000E+00
      21    -1     0     0   501   512  0.000000000E+00  0.000000000E+00 -1.471986430E+02  1.471986430E+02  0.000000000E+00  0.00000E+00  9.000E+00
      25     1     1     2     0     0  9.129855038E+00  1.199353762E+02  3.057506815E+02  3.515342486E+02  1.250000000E+02  0.00000E+00  9.000E+00
      25     1     1     2     0     0 -1.612871374E+01 -2.055500765E+02  6.918572649E+01  2.508438441E+02  1.250000000E+02  0.00000E+00  9.000E+00
      21     1     1     2   502   512  6.998858702E+00  8.561470028E+01  2.162484048E+01  8.858044170E+01  1.092571186E-06  0.00000E+00  9.000E+00
#rwgt            1           1   4.9499213057553219E-002           1      299112           0
</event>
<event>
      5   9999  3.79277E-02  1.52619E+01 -1.00000E+00  1.76678E-01
      21    -1     0     0   502   501  0.000000000E+00  0.000000000E+00  1.656308379E+02  1.656308379E+02  0.000000000E+00  0.00000E+00  9.000E+00
      21    -1     0     0   511   502  0.000000000E+00  0.000000000E+00 -8.231328126E+02  8.231328126E+02  0.000000000E+00  0.00000E+00  9.000E+00
      25     1     1     2     0     0  1.904645328E+02  2.712980177E+02 -4.548025233E+02  5.764977778E+02  1.250000000E+02  0.00000E+00  9.000E+00
      25     1     1     2     0     0 -1.891684558E+02 -2.560912891E+02 -1.849003017E+02  3.888194627E+02  1.250000000E+02  0.00000E+00  9.000E+00
      21     1     1     2   511   501 -1.296076983E+00 -1.520672854E+01 -1.779914978E+01  2.344640999E+01  3.371747881E-07  0.00000E+00  9.000E+00
#rwgt            1           1   4.0224588843432302E-002           1      299177           0
</event>
<event>
      5   9999  3.79277E-02  5.87464E+01 -1.00000E+00  1.35195E-01
       2    -1     0     0   502     0  0.000000000E+00  0.000000000E+00  1.839046425E+03  1.839046425E+03  0.000000000E+00  0.00000E+00  9.000E+00
      21    -1     0     0   501   502  0.000000000E+00  0.000000000E+00 -4.117874210E+01  4.117874210E+01  0.000000000E+00  0.00000E+00  9.000E+00
      25     1     1     2     0     0 -8.287408794E-01 -5.712234546E+01  3.477290915E+02  3.739039586E+02  1.250000000E+02  0.00000E+00  9.000E+00
      25     1     1     2     0     0  4.682951859E+01  9.366091093E+01  2.152817497E+02  2.700677726E+02  1.250000000E+02  0.00000E+00  9.000E+00
       2     1     1     2   501     0 -4.600077771E+01 -3.653856547E+01  1.234856841E+03  1.236253436E+03  0.000000000E+00  0.00000E+00  9.000E+00
#rwgt            1           1   4.1325911052825633E-002           1      299377           0
</event>
<event>
      5   9999  3.79277E-02  8.64054E+01 -1.00000E+00  1.26751E-01
      21    -1     0     0   502   501  0.000000000E+00  0.000000000E+00  4.880650913E+01  4.880650913E+01  0.000000000E+00  0.00000E+00  9.000E+00
       2    -1     0     0   501     0  0.000000000E+00  0.000000000E+00 -4.033108966E+03  4.033108966E+03  0.000000000E+00  0.00000E+00  9.000E+00
      25     1     1     2     0     0  4.335324821E+01 -1.267935646E+02 -9.642092785E+02  9.814686163E+02  1.250000000E+02  0.00000E+00  9.000E+00
      25     1     1     2     0     0 -1.139272856E+02  1.766452958E+02 -3.392348586E+02  4.181964565E+02  1.250000000E+02  0.00000E+00  9.000E+00
       2     1     1     2   502     0  7.057403739E+01 -4.985173121E+01 -2.680858320E+03  2.682250402E+03  0.000000000E+00  0.00000E+00  9.000E+00
#rwgt            1           1   3.9165191422284432E-002           1      299578           0
</event>
<event>
      5   9999 -3.79277E-02  5.53095E+01 -1.00000E+00  1.36620E-01
      -1    -1     0     0     0   501  0.000000000E+00  0.000000000E+00  1.318502831E+02  1.318502831E+02  0.000000000E+00  0.00000E+00  9.000E+00
      21    -1     0     0   501   502  0.000000000E+00  0.000000000E+00 -3.431396450E+02  3.431396450E+02  0.000000000E+00  0.00000E+00  9.000E+00
      25     1     1     2     0     0 -1.198268980E+02  5.734738472E+01 -1.447222421E+02  2.328448740E+02  1.250000000E+02  0.00000E+00  9.000E+00
      25     1     1     2     0     0  6.563092187E+01 -6.838998875E+01 -9.135379806E+01  1.815354645E+02  1.250000000E+02  0.00000E+00  9.000E+00
      -1     1     1     2     0   502  5.419597609E+01  1.104260403E+01  2.478667828E+01  6.060958957E+01  5.840038640E-07  0.00000E+00  9.000E+00
#rwgt            1           1 -0.14658786623365908                1      299668           0
</event>
<event>
      5   9999  3.90189E-02  7.30388E+00 -1.00000E+00  2.12978E-01
      21    -1     0     0   502   511  0.000000000E+00  0.000000000E+00  1.606235237E+02  1.606235237E+02  0.000000000E+00  0.00000E+00  9.000E+00
      21    -1     0     0   501   502  0.000000000E+00  0.000000000E+00 -1.515488854E+02  1.515488854E+02  0.000000000E+00  0.00000E+00  9.000E+00
      25     1     1     2     0     0  6.355442310E+01 -3.250883680E+01 -4.077893096E+01  1.496125342E+02  1.250000000E+02  0.00000E+00  9.000E+00
      25     1     1     2     0     0 -7.071077596E+01  3.104827567E+01  4.456271870E+01  1.535410211E+02  1.250000000E+02  0.00000E+00  9.000E+00
      21     1     1     2   501   511  7.156352855E+00  1.460561129E+00  5.290850529E+00  9.018853825E+00  1.788139343E-07  0.00000E+00  9.000E+00
#rwgt            1           1  0.14890331342225449                1      299815           0
</event>
<event>
      5   9999  3.79277E-02  1.06083E+02 -1.00000E+00  1.22685E-01
      21    -1     0     0   502   501  0.000000000E+00  0.000000000E+00  3.188646760E+02  3.188646760E+02  0.000000000E+00  0.00000E+00  9.000E+00
      21    -1     0     0   501   512  0.000000000E+00  0.000000000E+00 -2.712898168E+02  2.712898168E+02  0.000000000E+00  0.00000E+00  9.000E+00
      25     1     1     2     0     0 -7.329156813E+00 -2.307009053E+02  2.668498145E+01  2.638441064E+02  1.250000000E+02  0.00000E+00  9.000E+00
      25     1     1     2     0     0  1.074105457E+01  1.246723873E+02  9.124166960E+01  1.990191365E+02  1.250000000E+02  0.00000E+00  9.000E+00
      21     1     1     2   502   512 -3.411897753E+00  1.060285180E+02 -7.035179185E+01  1.272912498E+02  1.651812370E-06  0.00000E+00  9.000E+00
#rwgt            1           1   3.9611195913694087E-002           1      300081           0
</event>
<event>
      5   9999  3.79277E-02  4.45019E+01 -1.00000E+00  1.42025E-01
      21    -1     0     0   502   511  0.000000000E+00  0.000000000E+00  1.017332061E+03  1.017332061E+03  0.000000000E+00  0.00000E+00  9.000E+00
      21    -1     0     0   501   502  0.000000000E+00  0.000000000E+00 -5.816678768E+02  5.816678768E+02  0.000000000E+00  0.00000E+00  9.000E+00
      25     1     1     2     0     0  1.466344276E+02 -2.063197460E+01 -5.236786030E+01  2.007354640E+02  1.250000000E+02  0.00000E+00  9.000E+00
      25     1     1     2     0     0 -1.145014319E+02 -1.015586647E+01 -4.387222761E+02  4.704422973E+02  1.250000000E+02  0.00000E+00  9.000E+00
      21     1     1     2   501   511 -3.213299566E+01  3.078784107E+01  9.267543208E+02  9.278221768E+02  1.078959322E-05  0.00000E+00  9.000E+00
#rwgt            1           1   4.6959380052280467E-002           1      300136           0
</event>
<event>
      5   9999  3.79277E-02  2.56149E+01 -1.00000E+00  1.57964E-01
      21    -1     0     0   502   512  0.000000000E+00  0.000000000E+00  1.992124140E+03  1.992124140E+03  0.000000000E+00  0.00000E+00  9.000E+00
      21    -1     0     0   501   502  0.000000000E+00  0.000000000E+00 -1.993209911E+01  1.993209911E+01  0.000000000E+00  0.00000E+00  9.000E+00
      25     1     1     2     0     0  8.265203052E+01  2.815637402E+01  1.190241742E+03  1.199968560E+03  1.250000000E+02  0.00000E+00  9.000E+00
      25     1     1     2     0     0 -5.829394243E+01 -3.608155504E+01  3.308326760E+02  3.602434202E+02  1.250000000E+02  0.00000E+00  9.000E+00
      21     1     1     2   501   512 -2.435808809E+01  7.925181024E+00  4.511176223E+02  4.518442587E+02  5.394796609E-06  0.00000E+00  9.000E+00
#rwgt            1           1   4.8925797821935499E-002           1      300277           0
</event>
<event>
      5   9999  3.79277E-02  5.07277E+01 -1.00000E+00  1.38718E-01
      21    -1     0     0   502   501  0.000000000E+00  0.000000000E+00  5.295888911E+02  5.295888911E+02  0.000000000E+00  0.00000E+00  9.000E+00
      21    -1     0     0   511   502  0.000000000E+00  0.000000000E+00 -1.517057838E+02  1.517057838E+02  0.000000000E+00  0.00000E+00  9.000E+00
      25     1     1     2     0     0 -1.777192232E+02  1.182979048E+02  2.288522976E+02  3.370117070E+02  1.250000000E+02  0.00000E+00  9.000E+00
      25     1     1     2     0     0  2.123378423E+02 -8.121888262E+01  1.290335775E+02  2.897559840E+02  1.250000000E+02  0.00000E+00  9.000E+00
      21     1     1     2   511   501 -3.461861905E+01 -3.707902213E+01  1.999723232E+01  5.452698385E+01  8.920806376E-07  0.00000E+00  9.000E+00
#rwgt            1           1   3.6914960031997596E-002           1      300446           0
</event>
<event>
      5   9999  3.79277E-02  8.24422E+01 -1.00000E+00  1.27721E-01
      21    -1     0     0   502   501  0.000000000E+00  0.000000000E+00  1.042671965E+03  1.042671965E+03  0.000000000E+00  0.00000E+00  9.000E+00
      21    -1     0     0   501   512  0.000000000E+00  0.000000000E+00 -1.360526354E+02  1.360526354E+02  0.000000000E+00  0.00000E+00  9.000E+00
      25     1     1     2     0     0 -1.449650061E+02 -8.631239137E+01  8.659482137E+02  8.910420813E+02  1.250000000E+02  0.00000E+00  9.000E+00
      25     1     1     2     0     0  8.328608624E+01  3.160936605E+01  1.025511000E+02  1.846007917E+02  1.250000000E+02  0.00000E+00  9.000E+00
      21     1     1     2   502   512  6.167891986E+01  5.470302532E+01 -6.187998398E+01  1.030817275E+02  3.693564745E-06  0.00000E+00  9.000E+00
#rwgt            1           1   2.6798206519532221E-002           1      300601           0
</event>
<event>
      5   9999  3.79277E-02  4.47514E+01 -1.00000E+00  1.41880E-01
      21    -1     0     0   502   511  0.000000000E+00  0.000000000E+00  9.106773560E+01  9.106773560E+01  0.000000000E+00  0.00000E+00  9.000E+00
      21    -1     0     0   501   502  0.000000000E+00  0.000000000E+00 -7.219844030E+02  7.219844030E+02  0.000000000E+00  0.00000E+00  9.000E+00
      25     1     1     2     0     0 -8.091714759E+01 -5.288407290E+01 -5.935395593E+02  6.142137400E+02  1.250000000E+02  0.00000E+00  9.000E+00
      25     1     1     2     0     0  3.616620655E+01  5.268965845E+01  2.204465539E-01  1.403896122E+02  1.250000000E+02  0.00000E+00  9.000E+00
      21     1     1     2   501   511  4.475094105E+01  1.944144516E-01 -3.759755465E+01  5.844878645E+01  6.743495762E-07  0.00000E+00  9.000E+00
#rwgt            1           1   4.5191946683345960E-002           1      300694           0
</event>
<event>
      5   9999  3.79277E-02  8.14768E+01 -1.00000E+00  1.27966E-01
      21    -1     0     0   502   501  0.000000000E+00  0.000000000E+00  5.550682100E+02  5.550682100E+02  0.000000000E+00  0.00000E+00  9.000E+00
      21    -1     0     0   512   502  0.000000000E+00  0.000000000E+00 -1.101787194E+02  1.101787194E+02  0.000000000E+00  0.00000E+00  9.000E+00
      25     1     1     2     0     0 -4.129462747E+00  1.193835795E+02  9.933630620E+01  1.994045969E+02  1.250000000E+02  0.00000E+00  9.000E+00
      25     1     1     2     0     0  6.578533989E+01 -1.726473493E+02  2.954120342E+02  3.701730516E+02  1.250000000E+02  0.00000E+00  9.000E+00
      21     1     1     2   512   501 -6.165587715E+01  5.326376981E+01  5.014115025E+01  9.566928090E+01  1.348699152E-06  0.00000E+00  9.000E+00
#rwgt            1           1   1.6505750796183306E-002           1      300807           0
</event>
<event>
      5   9999  3.79277E-02  3.18316E+01 -1.00000E+00  1.51274E-01
      21    -1     0     0   511   501  0.000000000E+00  0.000000000E+00  1.424023941E+02  1.424023941E+02  0.000000000E+00  0.00000E+00  9.000E+00
      21    -1     0     0   501   502  0.000000000E+00  0.000000000E+00 -8.328808808E+02  8.328808808E+02  0.000000000E+00  0.00000E+00  9.000E+00
      25     1     1     2     0     0  1.048339881E+02 -1.752879090E+02 -3.187940833E+02  3.987112786E+02  1.250000000E+02  0.00000E+00  9.000E+00
      25     1     1     2     0     0 -1.182066356E+02  1.464015808E+02 -4.436660168E+02  4.978662130E+02  1.250000000E+02  0.00000E+00  9.000E+00
      21     1     1     2   511   502  1.337264750E+01  2.888632812E+01  7.198161344E+01  7.870578331E+01  9.536743164E-07  0.00000E+00  9.000E+00
#rwgt            1           1   3.3922308481400751E-002           1      300874           0
</event>
<event>
      5   9999 -3.79277E-02  8.84660E+00 -1.00000E+00  2.02118E-01
      21    -1     0     0   502   501  0.000000000E+00  0.000000000E+00  9.191568130E+01  9.191568130E+01  0.000000000E+00  0.00000E+00  9.000E+00
      21    -1     0     0   512   502  0.000000000E+00  0.000000000E+00 -8.144285146E+02  8.144285146E+02  0.000000000E+00  0.00000E+00  9.000E+00
      25     1     1     2     0     0 -9.001873063E+01 -1.876192254E+02 -2.582908206E+02  3.544622598E+02  1.250000000E+02  0.00000E+00  9.000E+00
      25     1     1     2     0     0  8.882471616E+01  1.963848810E+02 -3.114410278E+02  3.988450394E+02  1.250000000E+02  0.00000E+00  9.000E+00
      21     1     1     2   512   501  1.194014464E+00 -8.765655603E+00 -1.527809849E+02  1.530368966E+02  0.000000000E+00  0.00000E+00  9.000E+00
#rwgt            1           1 -0.14289419869218237                1      300996           0
</event>
<event>
      5   9999  3.79277E-02  3.91141E+01 -1.00000E+00  1.45446E-01
      21    -1     0     0   502   511  0.000000000E+00  0.000000000E+00  6.235467338E+01  6.235467338E+01  0.000000000E+00  0.00000E+00  9.000E+00
      21    -1     0     0   501   502  0.000000000E+00  0.000000000E+00 -1.121988027E+03  1.121988027E+03  0.000000000E+00  0.00000E+00  9.000E+00
      25     1     1     2     0     0  1.409939654E+02  1.145121712E+02 -2.403841543E+02  3.261930062E+02  1.250000000E+02  0.00000E+00  9.000E+00
      25     1     1     2     0     0 -1.473724190E+02 -7.592169978E+01 -7.541048807E+02  7.821648838E+02  1.250000000E+02  0.00000E+00  9.000E+00
      21     1     1     2   501   511  6.378453610E+00 -3.859047146E+01 -6.514431840E+01  7.598481018E+01  0.000000000E+00  0.00000E+00  9.000E+00
#rwgt            1           1   4.7730057117903235E-002           1      301317           0
</event>
<event>
      5   9999  3.79277E-02  4.06407E+01 -1.00000E+00  1.44413E-01
      21    -1     0     0   502   501  0.000000000E+00  0.000000000E+00  1.224499628E+03  1.224499628E+03  0.000000000E+00  0.00000E+00  9.000E+00
      21    -1     0     0   501   512  0.000000000E+00  0.000000000E+00 -1.706321808E+02  1.706321808E+02  0.000000000E+00  0.00000E+00  9.000E+00
      25     1     1     2     0     0  2.041527267E+02  3.233640122E+02  7.021774187E+02  8.092717390E+02  1.250000000E+02  0.00000E+00  9.000E+00
      25     1     1     2     0     0 -1.910403148E+02 -3.618313204E+02  3.242008141E+02  5.367955609E+02  1.250000000E+02  0.00000E+00  9.000E+00
      21     1     1     2   502   512 -1.311241185E+01  3.846730813E+01  2.748921483E+01  4.906450928E+01  4.768371582E-07  0.00000E+00  9.000E+00
#rwgt            1           1   2.9135656379264064E-002           1      301407           0
</event>
<event>
      5   9999  3.79277E-02  1.41537E+01 -1.00000E+00  1.79793E-01
      21    -1     0     0   511   501  0.000000000E+00  0.000000000E+00  2.479288990E+02  2.479288990E+02  0.000000000E+00  0.00000E+00  9.000E+00
      21    -1     0     0   501   502  0.000000000E+00  0.000000000E+00 -1.528058947E+02  1.528058947E+02  0.000000000E+00  0.00000E+00  9.000E+00
      25     1     1     2     0     0 -1.218036131E+02  2.497688803E+01  1.754669469E+01  1.771802799E+02  1.250000000E+02  0.00000E+00  9.000E+00
      25     1     1     2     0     0  1.358195365E+02 -2.300670410E+01  5.009341394E+01  1.926411302E+02  1.250000000E+02  0.00000E+00  9.000E+00
      21     1     1     2   511   502 -1.401592340E+01 -1.970183927E+00  2.748289568E+01  3.091338364E+01  0.000000000E+00  0.00000E+00  9.000E+00
#rwgt            1           1   3.9358131151428853E-002           1      301551           0
</event>
<event>
      5   9999  3.79277E-02  1.54299E+02 -1.00000E+00  1.15909E-01
      21    -1     0     0   502   512  0.000000000E+00  0.000000000E+00  7.705521377E+01  7.705521377E+01  0.000000000E+00  0.00000E+00  9.000E+00
      21    -1     0     0   501   502  0.000000000E+00  0.000000000E+00 -1.474588646E+03  1.474588646E+03  0.000000000E+00  0.00000E+00  9.000E+00
      25     1     1     2     0     0 -6.109359990E+01 -1.384344277E+02 -2.534063082E+02  3.205250002E+02  1.250000000E+02  0.00000E+00  9.000E+00
      25     1     1     2     0     0 -8.301074382E+01  8.328033393E+01 -1.016477981E+03  1.030863174E+03  1.250000000E+02  0.00000E+00  9.000E+00
      21     1     1     2   501   512  1.441043437E+02  5.515409372E+01 -1.276491433E+02  2.002556859E+02  3.303624740E-06  0.00000E+00  9.000E+00
#rwgt            1           1   4.5095439294422175E-002           1      301764           0
</event>
<event>
      5   9999  4.13600E-02  1.43182E+01 -1.00000E+00  1.79308E-01
      21    -1     0     0   511   501  0.000000000E+00  0.000000000E+00  1.235549386E+02  1.235549386E+02  0.000000000E+00  0.00000E+00  9.000E+00
      21    -1     0     0   501   502  0.000000000E+00  0.000000000E+00 -4.541388923E+02  4.541388923E+02  0.000000000E+00  0.00000E+00  9.000E+00
      25     1     1     2     0     0  8.347453761E+01  1.556957158E+02 -2.525361236E+02  3.325787848E+02  1.250000000E+02  0.00000E+00  9.000E+00
      25     1     1     2     0     0 -7.481282392E+01 -1.442946045E+02 -9.234686967E+01  2.248796030E+02  1.250000000E+02  0.00000E+00  9.000E+00
      21     1     1     2   511   502 -8.661713694E+00 -1.140111128E+01  1.429903959E+01  2.023544306E+01  3.769728732E-07  0.00000E+00  9.000E+00
#rwgt            1           1  0.45088627182320629                1      301871           0
</event>
<event>
      5   9999 -3.79277E-02  1.59290E+01 -1.00000E+00  1.74960E-01
      21    -1     0     0   502   512  0.000000000E+00  0.000000000E+00  1.670409278E+03  1.670409278E+03  0.000000000E+00  0.00000E+00  9.000E+00
      21    -1     0     0   501   502  0.000000000E+00  0.000000000E+00 -2.857784241E+02  2.857784241E+02  0.000000000E+00  0.00000E+00  9.000E+00
      25     1     1     2     0     0  2.701155130E+02 -8.634514890E+01 -8.719533483E+00  3.100304910E+02  1.250000000E+02  0.00000E+00  9.000E+00
      25     1     1     2     0     0 -2.591271906E+02  7.481298668E+01  4.848450439E+01  3.011969971E+02  1.250000000E+02  0.00000E+00  9.000E+00
      21     1     1     2   501   512 -1.098832238E+01  1.153216222E+01  1.344865883E+03  1.344960214E+03  0.000000000E+00  0.00000E+00  9.000E+00
#rwgt            1           1  -3.9885776161531293E-002           1      302119           0
</event>
<event>
      5   9999  3.79277E-02  2.01779E+02 -1.00000E+00  1.11508E-01
      21    -1     0     0   502   501  0.000000000E+00  0.000000000E+00  3.230717142E+02  3.230717142E+02  0.000000000E+00  0.00000E+00  9.000E+00
      21    -1     0     0   511   502  0.000000000E+00  0.000000000E+00 -5.792224748E+02  5.792224748E+02  0.000000000E+00  0.00000E+00  9.000E+00
      25     1     1     2     0     0 -8.271940959E+01  7.586379481E+00  1.723291605E+02  2.285221946E+02  1.250000000E+02  0.00000E+00  9.000E+00
      25     1     1     2     0     0  2.178681224E+02  1.422456842E+02 -1.376558401E+02  3.198038208E+02  1.250000000E+02  0.00000E+00  9.000E+00
      21     1     1     2   511   501 -1.351487128E+02 -1.498320637E+02 -2.908240809E+02  3.539681736E+02  0.000000000E+00  0.00000E+00  9.000E+00
#rwgt            1           1   3.7757044272627112E-002           1      302408           0
</event>
<event>
      5   9999  3.79277E-02  2.43904E+01 -1.00000E+00  1.59558E-01
      21    -1     0     0   502   501  0.000000000E+00  0.000000000E+00  9.332527239E+02  9.332527239E+02  0.000000000E+00  0.00000E+00  9.000E+00
      21    -1     0     0   501   512  0.000000000E+00  0.000000000E+00 -1.098811330E+02  1.098811330E+02  0.000000000E+00  0.00000E+00  9.000E+00
      25     1     1     2     0     0 -8.443782640E+01 -1.322848411E+02  3.350981786E+02  3.905698593E+02  1.250000000E+02  0.00000E+00  9.000E+00
      25     1     1     2     0     0  1.043988427E+02  1.182688474E+02  5.502789097E+02  5.859338846E+02  1.250000000E+02  0.00000E+00  9.000E+00
      21     1     1     2   502   512 -1.996101625E+01  1.401599378E+01 -6.200549736E+01  6.663011297E+01  1.784161275E-06  0.00000E+00  9.000E+00
#rwgt            1           1   3.7137875887798551E-002           1      302490           0
</event>
<event>
      5   9999  3.79277E-02  5.16301E+01 -1.00000E+00  1.38285E-01
      21    -1     0     0   502   511  0.000000000E+00  0.000000000E+00  6.206809448E+01  6.206809448E+01  0.000000000E+00  0.00000E+00  9.000E+00
      21    -1     0     0   501   502  0.000000000E+00  0.000000000E+00 -1.298737242E+03  1.298737242E+03  0.000000000E+00  0.00000E+00  9.000E+00
      25     1     1     2     0     0  1.644233168E+02  1.636592158E+02 -6.227174775E+02  6.761815014E+02  1.250000000E+02  0.00000E+00  9.000E+00
      25     1     1     2     0     0 -1.153869132E+02 -1.475008361E+02 -5.816828788E+02  6.237392147E+02  1.250000000E+02  0.00000E+00  9.000E+00
      21     1     1     2   501   511 -4.903640353E+01 -1.615837971E+01 -3.226879092E+01  6.088462018E+01  8.259061849E-07  0.00000E+00  9.000E+00
#rwgt            1           1   3.2733696081338005E-002           1      302628           0
</event>
<event>
      5   9999  3.79277E-02  4.36763E+01 -1.00000E+00  1.42511E-01
      21    -1     0     0   512   501  0.000000000E+00  0.000000000E+00  2.252756710E+02  2.252756710E+02  0.000000000E+00  0.00000E+00  9.000E+00
      21    -1     0     0   501   502  0.000000000E+00  0.000000000E+00 -2.460103996E+02  2.460103996E+02  0.000000000E+00  0.00000E+00  9.000E+00
      25     1     1     2     0     0  1.270262943E+02  4.765893442E+01 -8.315820806E+01  2.023544935E+02  1.250000000E+02  0.00000E+00  9.000E+00
      25     1     1     2     0     0 -1.615640455E+02 -7.439402320E+01  4.561876212E+01  2.221339302E+02  1.250000000E+02  0.00000E+00  9.000E+00
      21     1     1     2   512   502  3.453775120E+01  2.673508878E+01  1.680471730E+01  4.679764688E+01  2.384185791E-07  0.00000E+00  9.000E+00
#rwgt            1           1   6.8978083969104945E-002           1      302754           0
</event>
<event>
      5   9999  3.79277E-02  7.68714E+01 -1.00000E+00  1.29194E-01
      21    -1     0     0   502   501  0.000000000E+00  0.000000000E+00  2.140993664E+02  2.140993664E+02  0.000000000E+00  0.00000E+00  9.000E+00
      21    -1     0     0   501   511  0.000000000E+00  0.000000000E+00 -3.489294567E+02  3.489294567E+02  0.000000000E+00  0.00000E+00  9.000E+00
      25     1     1     2     0     0  9.281254208E+01 -1.696502303E+02 -1.819961078E+02  2.935011957E+02  1.250000000E+02  0.00000E+00  9.000E+00
      25     1     1     2     0     0 -4.737016391E+01  1.076485440E+02  7.563019862E+01  1.875555075E+02  1.250000000E+02  0.00000E+00  9.000E+00
      21     1     1     2   502   511 -4.544237817E+01  6.200168628E+01 -2.846418113E+01  8.197211991E+01  1.507891493E-06  0.00000E+00  9.000E+00
#rwgt            1           1   9.8091259325669103E-002           1      302868           0
</event>
<event>
      5   9999  3.79277E-02  6.70075E+01 -1.00000E+00  1.32189E-01
      21    -1     0     0   502   501  0.000000000E+00  0.000000000E+00  3.087174782E+01  3.087174782E+01  0.000000000E+00  0.00000E+00  9.000E+00
      21    -1     0     0   512   502  0.000000000E+00  0.000000000E+00 -2.680405706E+03  2.680405706E+03  0.000000000E+00  0.00000E+00  9.000E+00
      25     1     1     2     0     0 -6.570685032E+01 -1.561027533E+02 -6.286744856E+02  6.629796894E+02  1.250000000E+02  0.00000E+00  9.000E+00
      25     1     1     2     0     0  3.942571914E+01  2.177412967E+02 -1.320086252E+03  1.344328223E+03  1.250000000E+02  0.00000E+00  9.000E+00
      21     1     1     2   512   501  2.628113117E+01 -6.163854333E+01 -7.007732204E+02  7.039695408E+02  0.000000000E+00  0.00000E+00  9.000E+00
#rwgt            1           1  0.11263687696774234                1      303010           0
</event>
<event>
      5   9999  3.79277E-02  8.58981E+01 -1.00000E+00  1.26872E-01
      21    -1     0     0   511   501  0.000000000E+00  0.000000000E+00  2.429614933E+02  2.429614933E+02  0.000000000E+00  0.00000E+00  9.000E+00
      21    -1     0     0   501   502  0.000000000E+00  0.000000000E+00 -2.335853572E+02  2.335853572E+02  0.000000000E+00  0.00000E+00  9.000E+00
      25     1     1     2     0     0  6.716768163E+01 -3.346574127E+01 -5.693674062E+01  1.565191545E+02  1.250000000E+02  0.00000E+00  9.000E+00
      25     1     1     2     0     0 -8.714829073E+01  1.170077292E+02 -2.606826626E+01  1.938818913E+02  1.250000000E+02  0.00000E+00  9.000E+00
      21     1     1     2   511   502  1.998060910E+01 -8.354198790E+01  9.238114292E+01  1.261458047E+02  2.336015456E-06  0.00000E+00  9.000E+00
#rwgt            1           1   4.5155115769817462E-002           1      303119           0
</event>
<event>
      5   9999  3.79277E-02  5.24185E+01 -1.00000E+00  1.37915E-01
       2    -1     0     0   502     0  0.000000000E+00  0.000000000E+00  1.850557926E+03  1.850557926E+03  0.000000000E+00  0.00000E+00  9.000E+00
      21    -1     0     0   501   502  0.000000000E+00  0.000000000E+00 -1.766105277E+02  1.766105277E+02  0.000000000E+00  0.00000E+00  9.000E+00
      25     1     1     2     0     0  4.131003418E+01 -1.715407782E+02  1.508855138E+01  2.167612094E+02  1.250000000E+02  0.00000E+00  9.000E+00
      25     1     1     2     0     0 -1.158448805E+01  1.283656972E+02  3.160211916E+01  1.823064631E+02  1.250000000E+02  0.00000E+00  9.000E+00
       2     1     1     2   501     0 -2.972554614E+01  4.317508108E+01  1.627256728E+03  1.628100781E+03  0.000000000E+00  0.00000E+00  9.000E+00
#rwgt            1           1   4.5113644794999096E-002           1      303186           0
</event>
<event>
      5   9999  3.79277E-02  1.22818E+02 -1.00000E+00  1.19942E-01
      21    -1     0     0   502   511  0.000000000E+00  0.000000000E+00  6.188216704E+02  6.188216704E+02  0.000000000E+00  0.00000E+00  9.000E+00
      21    -1     0     0   501   502  0.000000000E+00  0.000000000E+00 -1.467026300E+03  1.467026300E+03  0.000000000E+00  0.00000E+00  9.000E+00
      25     1     1     2     0     0 -1.769215466E+02  2.576390360E+02 -7.284996879E+02  8.025060136E+02  1.250000000E+02  0.00000E+00  9.000E+00
      25     1     1     2     0     0  9.631353695E+01 -3.503027402E+02 -6.412454765E+02  7.475353292E+02  1.250000000E+02  0.00000E+00  9.000E+00
      21     1     1     2   501   511  8.060800965E+01  9.266370418E+01  5.215405346E+02  5.358066279E+02  7.629394531E-06  0.00000E+00  9.000E+00
#rwgt            1           1   4.2042676679015664E-002           1      303345           0
</event>
<event>
      5   9999  3.79277E-02  2.46002E+01 -1.00000E+00  1.59277E-01
      21    -1     0     0   502   501  0.000000000E+00  0.000000000E+00  9.556287579E+02  9.556287579E+02  0.000000000E+00  0.00000E+00  9.000E+00
      21    -1     0     0   512   502  0.000000000E+00  0.000000000E+00 -1.163289734E+02  1.163289734E+02  0.000000000E+00  0.00000E+00  9.000E+00
      25     1     1     2     0     0 -8.982297401E+01 -3.112293290E+01  8.693797753E+02  8.834494877E+02  1.250000000E+02  0.00000E+00  9.000E+00
      25     1     1     2     0     0  6.666153578E+01  3.941244475E+01  3.252981208E+00  1.470805325E+02  1.250000000E+02  0.00000E+00  9.000E+00
      21     1     1     2   512   501  2.316143823E+01 -8.289511843E+00 -3.333297199E+01  4.142771113E+01  1.066240300E-06  0.00000E+00  9.000E+00
#rwgt            1           1   4.0292980670026929E-002           1      303575           0
</event>
<event>
      5   9999  3.79277E-02  5.94795E+01 -1.00000E+00  1.34906E-01
       2    -1     0     0   502     0  0.000000000E+00  0.000000000E+00  2.001265762E+03  2.001265762E+03  0.000000000E+00  0.00000E+00  9.000E+00
      21    -1     0     0   501   502  0.000000000E+00  0.000000000E+00 -4.767515334E+01  4.767515334E+01  0.000000000E+00  0.00000E+00  9.000E+00
      25     1     1     2     0     0 -1.360113920E+02 -2.303595095E+00  4.044206990E+02  4.446183836E+02  1.250000000E+02  0.00000E+00  9.000E+00
      25     1     1     2     0     0  1.383780599E+02 -5.712880349E+01  3.272725574E+02  3.809783649E+02  1.250000000E+02  0.00000E+00  9.000E+00
       2     1     1     2   501     0 -2.366667952E+00  5.943239858E+01  1.221897352E+03  1.223344167E+03  2.157918644E-05  0.00000E+00  9.000E+00
#rwgt            1           1   5.3352336069241224E-002           1      303730           0
</event>
<event>
      5   9999  3.79277E-02  6.55426E+01 -1.00000E+00  1.32684E-01
      21    -1     0     0   502   501  0.000000000E+00  0.000000000E+00  5.174833572E+02  5.174833572E+02  0.000000000E+00  0.00000E+00  9.000E+00
       2    -1     0     0   501     0  0.000000000E+00  0.000000000E+00 -1.411977194E+02  1.411977194E+02  0.000000000E+00  0.00000E+00  9.000E+00
      25     1     1     2     0     0 -4.884992544E+01  6.347518506E+01  3.494902666E+02  3.797154998E+02  1.250000000E+02  0.00000E+00  9.000E+00
      25     1     1     2     0     0  6.892526657E+01 -1.258676486E+02  6.736591858E+01  2.018824518E+02  1.250000000E+02  0.00000E+00  9.000E+00
       2     1     1     2   502     0 -2.007534113E+01  6.239246358E+01 -4.057054744E+01  7.708312495E+01  1.066240300E-06  0.00000E+00  9.000E+00
#rwgt            1           1   2.6182111570281132E-002           1      303810           0
</event>
<event>
      5   9999  3.79277E-02  3.56517E+01 -1.00000E+00  1.48010E-01
      21    -1     0     0   511   501  0.000000000E+00  0.000000000E+00  1.186872912E+03  1.186872912E+03  0.000000000E+00  0.00000E+00  9.000E+00
      21    -1     0     0   501   502  0.000000000E+00  0.000000000E+00 -2.155494347E+02  2.155494347E+02  0.000000000E+00  0.00000E+00  9.000E+00
      25     1     1     2     0     0  1.644550428E+02  2.182662777E+02  7.794099394E+00  3.006183246E+02  1.250000000E+02  0.00000E+00  9.000E+00
      25     1     1     2     0     0 -1.455458204E+02 -1.880423898E+02  1.938028150E+02  3.312522563E+02  1.250000000E+02  0.00000E+00  9.000E+00
      21     1     1     2   511   502 -1.890922236E+01 -3.022388793E+01  7.697265628E+02  7.705517657E+02  1.525878906E-05  0.00000E+00  9.000E+00
#rwgt            1           1   1.1163325905099315E-002           1      303922           0
</event>
<event>
      5   9999  3.79277E-02  9.59235E+00 -1.00000E+00  1.97870E-01
      21    -1     0     0   512   501  0.000000000E+00  0.000000000E+00  3.461273466E+01  3.461273466E+01  0.000000000E+00  0.00000E+00  9.000E+00
      21    -1     0     0   501   502  0.000000000E+00  0.000000000E+00 -1.462997765E+03  1.462997765E+03  0.000000000E+00  0.00000E+00  9.000E+00
      25     1     1     2     0     0 -2.015647753E+01  1.283825410E+02 -1.055439836E+03  1.070731810E+03  1.250000000E+02  0.00000E+00  9.000E+00
      25     1     1     2     0     0  2.111908897E+01 -1.379264675E+02 -3.728711925E+02  4.172860560E+02  1.250000000E+02  0.00000E+00  9.000E+00
      21     1     1     2   512   502 -9.626114407E-01  9.543926411E+00 -7.400174962E-02  9.592634069E+00  4.768207870E-07  0.00000E+00  9.000E+00
#rwgt            1           1   4.0577379510388929E-002           1      304144           0
</event>
<event>
      5   9999  3.79277E-02  5.19849E+01 -1.00000E+00  1.38118E-01
      21    -1     0     0   502   511  0.000000000E+00  0.000000000E+00  6.957292412E+02  6.957292412E+02  0.000000000E+00  0.00000E+00  9.000E+00
      21    -1     0     0   501   502  0.000000000E+00  0.000000000E+00 -1.630496709E+02  1.630496709E+02  0.000000000E+00  0.00000E+00  9.000E+00
      25     1     1     2     0     0  3.384035334E+01  1.134990225E+02 -7.726193065E+01  1.887368633E+02  1.250000000E+02  0.00000E+00  9.000E+00
      25     1     1     2     0     0 -2.824089675E+01 -1.651814397E+02  3.742401929E+02  4.286760762E+02  1.250000000E+02  0.00000E+00  9.000E+00
      21     1     1     2   501   511 -5.599456581E+00  5.168241717E+01  2.357013080E+02  2.413659726E+02  2.697398305E-06  0.00000E+00  9.000E+00
#rwgt            1           1   3.2679450769844035E-002           1      304466           0
</event>
<event>
      5   9999 -3.79277E-02  5.26285E+01 -1.00000E+00  1.37818E-01
      21    -1     0     0   502   501  0.000000000E+00  0.000000000E+00  3.211012786E+03  3.211012786E+03  0.000000000E+00  0.00000E+00  9.000E+00
      21    -1     0     0   512   502  0.000000000E+00  0.000000000E+00 -3.990861438E+01  3.990861438E+01  0.000000000E+00  0.00000E+00  9.000E+00
      25     1     1     2     0     0 -1.472889863E+02 -2.209313390E+02  1.435585339E+03  1.465276413E+03  1.250000000E+02  0.00000E+00  9.000E+00
      25     1     1     2     0     0  1.984617643E+02  2.086387823E+02  1.680269452E+03  1.709341290E+03  1.250000000E+02  0.00000E+00  9.000E+00
      21     1     1     2   512   501 -5.117277808E+01  1.229255670E+01  5.524938072E+01  7.630369740E+01  2.236564522E-06  0.00000E+00  9.000E+00
#rwgt            1           1  -3.9558727472687100E-002           1      304607           0
</event>
<event>
      5   9999  3.79277E-02  1.22757E+01 -1.00000E+00  1.85997E-01
      21    -1     0     0   511   501  0.000000000E+00  0.000000000E+00  7.915946319E+02  7.915946319E+02  0.000000000E+00  0.00000E+00  9.000E+00
      21    -1     0     0   501   502  0.000000000E+00  0.000000000E+00 -1.956794758E+02  1.956794758E+02  0.000000000E+00  0.00000E+00  9.000E+00
      25     1     1     2     0     0 -6.669000992E+01  4.914787187E+01 -1.254648422E+02  1.955236491E+02  1.250000000E+02  0.00000E+00  9.000E+00
      25     1     1     2     0     0  7.216566130E+01 -3.816100352E+01  1.235319285E+02  1.937763716E+02  1.250000000E+02  0.00000E+00  9.000E+00
      21     1     1     2   511   502 -5.475651385E+00 -1.098686835E+01  5.978480698E+02  5.979740869E+02  7.629394531E-06  0.00000E+00  9.000E+00
#rwgt            1           1   3.4985891193366772E-002           1      304728           0
</event>
<event>
      5   9999  3.79277E-02  1.71787E+02 -1.00000E+00  1.14106E-01
      21    -1     0     0   502   501  0.000000000E+00  0.000000000E+00  3.793700321E+02  3.793700321E+02  0.000000000E+00  0.00000E+00  9.000E+00
      21    -1     0     0   501   512  0.000000000E+00  0.000000000E+00 -3.365521387E+02  3.365521387E+02  0.000000000E+00  0.00000E+00  9.000E+00
      25     1     1     2     0     0 -1.114498838E+02 -9.108708960E+01  2.170159189E+01  1.918694702E+02  1.250000000E+02  0.00000E+00  9.000E+00
      25     1     1     2     0     0  2.799897762E+02  1.243309255E+02  8.357114802E+01  3.412646929E+02  1.250000000E+02  0.00000E+00  9.000E+00
      21     1     1     2   502   512 -1.685398924E+02 -3.324383586E+01 -6.245484643E+01  1.827880078E+02  4.815819234E-06  0.00000E+00  9.000E+00
#rwgt            1           1   2.5960593699277959E-002           1      305091           0
</event>
<event>
      5   9999  3.79277E-02  3.28003E+01 -1.00000E+00  1.50396E-01
      21    -1     0     0   502   501  0.000000000E+00  0.000000000E+00  5.729051742E+02  5.729051742E+02  0.000000000E+00  0.00000E+00  9.000E+00
      21    -1     0     0   511   502  0.000000000E+00  0.000000000E+00 -1.395945855E+02  1.395945855E+02  0.000000000E+00  0.00000E+00  9.000E+00
      25     1     1     2     0     0  1.286892137E+02  1.954832716E+02  2.275100579E+02  3.495145915E+02  1.250000000E+02  0.00000E+00  9.000E+00
      25     1     1     2     0     0 -1.529354021E+02 -1.733928822E+02  1.985434200E+02  3.293915883E+02  1.250000000E+02  0.00000E+00  9.000E+00
      21     1     1     2   511   501  2.424618843E+01 -2.209038943E+01  7.257110746E+00  3.359357996E+01  3.264680848E-07  0.00000E+00  9.000E+00
#rwgt            1           1   4.9408925494561988E-002           1      305134           0
</event>
<event>
      5   9999  3.79277E-02  2.97142E+01 -1.00000E+00  1.53329E-01
      21    -1     0     0   502   501  0.000000000E+00  0.000000000E+00  1.441619837E+02  1.441619837E+02  0.000000000E+00  0.00000E+00  9.000E+00
      21    -1     0     0   501   512  0.000000000E+00  0.000000000E+00 -3.508085430E+02  3.508085430E+02  0.000000000E+00  0.00000E+00  9.000E+00
      25     1     1     2     0     0  1.253505762E+02 -7.415020876E+01  1.158515070E+01  1.922764576E+02  1.250000000E+02  0.00000E+00  9.000E+00
      25     1     1     2     0     0 -1.029256491E+02  5.465510253E+01 -1.466626133E+02  2.252016688E+02  1.250000000E+02  0.00000E+00  9.000E+00
      21     1     1     2   502   512 -2.242492711E+01  1.949510624E+01 -7.156909658E+01  7.749240032E+01  1.348699152E-06  0.00000E+00  9.000E+00
#rwgt            1           1   4.0047519537841067E-002           1      305277           0
</event>
<event>
      5   9999  3.79277E-02  2.70397E+01 -1.00000E+00  1.56241E-01
      21    -1     0     0   511   501  0.000000000E+00  0.000000000E+00  1.021810296E+03  1.021810296E+03  0.000000000E+00  0.00000E+00  9.000E+00
      21    -1     0     0   501   502  0.000000000E+00  0.000000000E+00 -1.511038545E+02  1.511038545E+02  0.000000000E+00  0.00000E+00  9.000E+00
      25     1     1     2     0     0 -2.146889286E+02 -1.163389974E+02  2.169141393E+01  2.751756091E+02  1.250000000E+02  0.00000E+00  9.000E+00
      25     1     1     2     0     0  2.009501439E+02  9.304975103E+01  6.689086709E+02  7.156137411E+02  1.250000000E+02  0.00000E+00  9.000E+00
      21     1     1     2   511   502  1.373878474E+01  2.328924636E+01  1.801063567E+02  1.821248004E+02  1.907348633E-06  0.00000E+00  9.000E+00
#rwgt            1           1   3.2101385342501079E-002           1      305386           0
</event>
<event>
      5   9999  3.79277E-02  6.41923E+01 -1.00000E+00  1.33154E-01
      21    -1     0     0   502   512  0.000000000E+00  0.000000000E+00  1.673956450E+03  1.673956450E+03  0.000000000E+00  0.00000E+00  9.000E+00
      21    -1     0     0   501   502  0.000000000E+00  0.000000000E+00 -3.456285993E+01  3.456285993E+01  0.000000000E+00  0.00000E+00  9.000E+00
      25     1     1     2     0     0 -9.728768542E+01 -8.952707457E+01  4.954899540E+02  5.278402081E+02  1.250000000E+02  0.00000E+00  9.000E+00
      25     1     1     2     0     0  1.608840686E+02  8.080057781E+01  7.424233613E+02  7.740993891E+02  1.250000000E+02  0.00000E+00  9.000E+00
      21     1     1     2   501   512 -6.359638316E+01  8.726496769E+00  4.014802753E+02  4.065797131E+02  7.629394531E-06  0.00000E+00  9.000E+00
#rwgt            1           1   3.6134064568960095E-002           1      305678           0
</event>
<event>
      5   9999  3.79277E-02  1.90584E+02 -1.00000E+00  1.12416E-01
      21    -1     0     0   502   511  0.000000000E+00  0.000000000E+00  1.669825227E+02  1.669825227E+02  0.000000000E+00  0.00000E+00  9.000E+00
      21    -1     0     0   501   502  0.000000000E+00  0.000000000E+00 -8.336594890E+02  8.336594890E+02  0.000000000E+00  0.00000E+00  9.000E+00
      25     1     1     2     0     0  2.718094575E+02 -1.486036917E+02 -4.982229862E+02  5.998454654E+02  1.250000000E+02  0.00000E+00  9.000E+00
      25     1     1     2     0     0 -1.087989585E+02  4.986193943E+01 -8.301709358E+01  1.919381780E+02  1.250000000E+02  0.00000E+00  9.000E+00
      21     1     1     2   501   511 -1.630104990E+02  9.874175228E+01 -8.543688651E+01  2.088583683E+02  2.523185073E-06  0.00000E+00  9.000E+00
#rwgt            1           1   3.7555745111453001E-002           1      305819           0
</event>
<event>
      5   9999  3.79277E-02  6.72592E+01 -1.00000E+00  1.32105E-01
      21    -1     0     0   512   501  0.000000000E+00  0.000000000E+00  6.566732637E+01  6.566732637E+01  0.000000000E+00  0.00000E+00  9.000E+00
      21    -1     0     0   501   502  0.000000000E+00  0.000000000E+00 -1.328898304E+03  1.328898304E+03  0.000000000E+00  0.00000E+00  9.000E+00
      25     1     1     2     0     0  2.039327756E+02  1.211997254E+02 -6.674231941E+02  7.192751007E+02  1.250000000E+02  0.00000E+00  9.000E+00
      25     1     1     2     0     0 -1.397065562E+02 -1.012300397E+02 -5.598606659E+02  5.990278858E+02  1.250000000E+02  0.00000E+00  9.000E+00
      21     1     1     2   512   502 -6.422621939E+01 -1.996968571E+01 -3.594711785E+01  7.626264411E+01  1.261592536E-06  0.00000E+00  9.000E+00
#rwgt            1           1   7.1928017683746473E-002           1      306022           0
</event>
<event>
      5   9999  3.79277E-02  7.75706E+00 -1.00000E+00  2.09437E-01
      21    -1     0     0   502   511  0.000000000E+00  0.000000000E+00  5.589187937E+01  5.589187937E+01  0.000000000E+00  0.00000E+00  9.000E+00
      21    -1     0     0   501   502  0.000000000E+00  0.000000000E+00 -6.575421363E+02  6.575421363E+02  0.000000000E+00  0.00000E+00  9.000E+00
      25     1     1     2     0     0  7.700798681E+01  4.212492726E+01 -4.958703151E+02  5.188613581E+02  1.250000000E+02  0.00000E+00  9.000E+00
      25     1     1     2     0     0 -8.351987661E+01 -3.790980780E+01 -1.037566687E+02  1.865560763E+02  1.250000000E+02  0.00000E+00  9.000E+00
      21     1     1     2   501   511  6.511889793E+00 -4.215119458E+00 -2.023273133E+00  8.016581247E+00  1.812804499E-07  0.00000E+00  9.000E+00
#rwgt            1           1   3.6529304979114725E-002           1      306195           0
</event>
<event>
      5   9999  3.79277E-02  1.65225E+02 -1.00000E+00  1.14754E-01
       2    -1     0     0   502     0  0.000000000E+00  0.000000000E+00  1.604257011E+03  1.604257011E+03  0.000000000E+00  0.00000E+00  9.000E+00
      21    -1     0     0   501   502  0.000000000E+00  0.000000000E+00 -5.065048787E+02  5.065048787E+02  0.000000000E+00  0.00000E+00  9.000E+00
      25     1     1     2     0     0  7.984232290E+01 -1.538169026E+02 -9.344661906E+01  2.332202964E+02  1.250000000E+02  0.00000E+00  9.000E+00
      25     1     1     2     0     0 -2.417232485E+02  1.868885172E+02 -2.579825448E+02  4.189718847E+02  1.250000000E+02  0.00000E+00  9.000E+00
       2     1     1     2   501     0  1.618809256E+02 -3.307161463E+01  1.449181296E+03  1.458569709E+03  2.157918644E-05  0.00000E+00  9.000E+00
#rwgt            1           1   4.1933469942004177E-002           1      306479           0
</event>
<event>
      5   9999  3.79277E-02  1.66265E+02 -1.00000E+00  1.14649E-01
      21    -1     0     0   502   501  0.000000000E+00  0.000000000E+00  1.000360876E+03  1.000360876E+03  0.000000000E+00  0.00000E+00  9.000E+00
       1    -1     0     0   501     0  0.000000000E+00  0.000000000E+00 -2.704595235E+02  2.704595235E+02  0.000000000E+00  0.00000E+00  9.000E+00
      25     1     1     2     0     0 -1.329635241E+02 -1.164795919E+02  3.952784183E+02  4.506848367E+02  1.250000000E+02  0.00000E+00  9.000E+00
      25     1     1     2     0     0  2.963731122E+02  1.471602880E+02  4.820617725E+02  5.979144793E+02  1.250000000E+02  0.00000E+00  9.000E+00
       1     1     1     2   502     0 -1.634095881E+02 -3.068069609E+01 -1.474388388E+02  2.222210831E+02  0.000000000E+00  0.00000E+00  9.000E+00
#rwgt            1           1   2.9801816793926527E-002           1      306516           0
</event>
<event>
      5   9999  3.79277E-02  9.27540E+01 -1.00000E+00  1.25315E-01
      21    -1     0     0   511   501  0.000000000E+00  0.000000000E+00  2.713496349E+02  2.713496349E+02  0.000000000E+00  0.00000E+00  9.000E+00
      21    -1     0     0   501   502  0.000000000E+00  0.000000000E+00 -7.189727685E+02  7.189727685E+02  0.000000000E+00  0.00000E+00  9.000E+00
      25     1     1     2     0     0 -3.156585036E+02  2.035853665E+02 -8.343092016E+01  4.045652120E+02  1.250000000E+02  0.00000E+00  9.000E+00
      25     1     1     2     0     0  2.229671656E+02 -2.001775088E+02 -3.706981803E+02  4.927753371E+02  1.250000000E+02  0.00000E+00  9.000E+00
      21     1     1     2   511   502  9.269133800E+01 -3.407857694E+00  6.505966895E+00  9.298185435E+01  1.556583030E-06  0.00000E+00  9.000E+00
#rwgt            1           1   3.3422802775036453E-002           1      306708           0
</event>
<event>
      5   9999  3.79277E-02  4.78726E+00 -1.00000E+00  2.46344E-01
      21    -1     0     0   512   501  0.000000000E+00  0.000000000E+00  2.994155082E+02  2.994155082E+02  0.000000000E+00  0.00000E+00  9.000E+00
      21    -1     0     0   501   502  0.000000000E+00  0.000000000E+00 -1.639408134E+02  1.639408134E+02  0.000000000E+00  0.00000E+00  9.000E+00
      25     1     1     2     0     0 -6.809570181E+01 -1.598010821E+02  2.027321337E+01  2.149637496E+02  1.250000000E+02  0.00000E+00  9.000E+00
      25     1     1     2     0     0  7.052215209E+01  1.556743116E+02  1.033572634E+02  2.356174635E+02  1.250000000E+02  0.00000E+00  9.000E+00
      21     1     1     2   512   502 -2.426450287E+00  4.126770550E+00  1.184421809E+01  1.277510854E+01  0.000000000E+00  0.00000E+00  9.000E+00
#rwgt            1           1   4.5959200305622970E-002           1      306810           0
</event>
<event>
      5   9999  3.79277E-02  1.34985E+02 -1.00000E+00  1.18238E-01
      21    -1     0     0   511   501  0.000000000E+00  0.000000000E+00  6.631037786E+02  6.631037786E+02  0.000000000E+00  0.00000E+00  9.000E+00
      21    -1     0     0   501   502  0.000000000E+00  0.000000000E+00 -3.065441054E+02  3.065441054E+02  0.000000000E+00  0.00000E+00  9.000E+00
      25     1     1     2     0     0 -9.177804789E+01 -2.238920592E+02 -8.062569382E+01  2.840358547E+02  1.250000000E+02  0.00000E+00  9.000E+00
      25     1     1     2     0     0  1.349345109E+01  1.139259694E+02 -5.254802901E+01  1.776161453E+02  1.250000000E+02  0.00000E+00  9.000E+00
      21     1     1     2   511   502  7.828459680E+01  1.099660898E+02  4.897333960E+02  5.079958840E+02  0.000000000E+00  0.00000E+00  9.000E+00
#rwgt            1           1   4.8723056451647331E-002           1      307144           0
</event>
<event>
      5   9999 -3.79277E-02  2.14505E+01 -1.00000E+00  1.63899E-01
      21    -1     0     0   502   501  0.000000000E+00  0.000000000E+00  1.327402905E+02  1.327402905E+02  0.000000000E+00  0.00000E+00  9.000E+00
      21    -1     0     0   501   512  0.000000000E+00  0.000000000E+00 -3.626782322E+02  3.626782322E+02  0.000000000E+00  0.00000E+00  9.000E+00
      25     1     1     2     0     0  1.717542284E+02  1.742053868E+01 -1.407614717E+02  2.554247092E+02  1.250000000E+02  0.00000E+00  9.000E+00
      25     1     1     2     0     0 -1.574666128E+02 -1.420926681E+00 -7.675972632E+01  2.152087562E+02  1.250000000E+02  0.00000E+00  9.000E+00
      21     1     1     2   502   512 -1.428761563E+01 -1.599961199E+01 -1.241674372E+01  2.478505737E+01  0.000000000E+00  0.00000E+00  9.000E+00
#rwgt            1           1  -8.8086896578455962E-002           1      307332           0
</event>
<event>
      5   9999  3.79277E-02  1.28671E+02 -1.00000E+00  1.19096E-01
      21    -1     0     0   502   501  0.000000000E+00  0.000000000E+00  3.833561940E+02  3.833561940E+02  0.000000000E+00  0.00000E+00  9.000E+00
       2    -1     0     0   501     0  0.000000000E+00  0.000000000E+00 -5.835469314E+02  5.835469314E+02  0.000000000E+00  0.00000E+00  9.000E+00
      25     1     1     2     0     0  6.828997263E+01  7.649776658E+01 -8.642900773E+01  1.833313995E+02  1.250000000E+02  0.00000E+00  9.000E+00
      25     1     1     2     0     0 -9.517691467E+00 -1.909619946E+02  2.846044685E+02  3.649407806E+02  1.250000000E+02  0.00000E+00  9.000E+00
       2     1     1     2   502     0 -5.877228116E+01  1.144642280E+02 -3.983661982E+02  4.186309453E+02  5.394796609E-06  0.00000E+00  9.000E+00
#rwgt            1           1   4.4514190221995292E-002           1      307573           0
</event>
<event>
      5   9999  3.79277E-02  2.29104E+01 -1.00000E+00  1.61644E-01
      21    -1     0     0   511   501  0.000000000E+00  0.000000000E+00  1.656088475E+02  1.656088475E+02  0.000000000E+00  0.00000E+00  9.000E+00
      21    -1     0     0   501   502  0.000000000E+00  0.000000000E+00 -2.276109114E+02  2.276109114E+02  0.000000000E+00  0.00000E+00  9.000E+00
      25     1     1     2     0     0 -6.679769205E+00 -8.269711488E+01 -1.289000062E+02  1.977969761E+02  1.250000000E+02  0.00000E+00  9.000E+00
      25     1     1     2     0     0  6.868629768E+00  5.978754019E+01  1.605760649E+01  1.396587798E+02  1.250000000E+02  0.00000E+00  9.000E+00
      21     1     1     2   511   502 -1.888605630E-01  2.290957468E+01  5.084033590E+01  5.576400303E+01  6.743495762E-07  0.00000E+00  9.000E+00
#rwgt            1           1   3.2129585222328616E-002           1      307674           0
</event>
<event>
      5   9999  3.79277E-02  2.49491E+01 -1.00000E+00  1.58817E-01
      21    -1     0     0   502   501  0.000000000E+00  0.000000000E+00  3.713380272E+02  3.713380272E+02  0.000000000E+00  0.00000E+00  9.000E+00
      21    -1     0     0   501   512  0.000000000E+00  0.000000000E+00 -1.508416756E+02  1.508416756E+02  0.000000000E+00  0.00000E+00  9.000E+00
      25     1     1     2     0     0 -3.193628942E+00 -1.580291234E+02  1.775529535E+02  2.685767197E+02  1.250000000E+02  0.00000E+00  9.000E+00
      25     1     1     2     0     0  2.791439437E+01  1.613967982E+02  6.923022480E+01  2.173613671E+02  1.250000000E+02  0.00000E+00  9.000E+00
      21     1     1     2   502   512 -2.472076543E+01 -3.367674793E+00 -2.628682669E+01  3.624161605E+01  3.371747881E-07  0.00000E+00  9.000E+00
#rwgt            1           1   3.4317256909783836E-002           1      307808           0
</event>
<event>
      5   9999  3.79277E-02  5.57288E+01 -1.00000E+00  1.36440E-01
      21    -1     0     0   502   511  0.000000000E+00  0.000000000E+00  2.049868776E+02  2.049868776E+02  0.000000000E+00  0.00000E+00  9.000E+00
      21    -1     0     0   501   502  0.000000000E+00  0.000000000E+00 -3.156803679E+02  3.156803679E+02  0.000000000E+00  0.00000E+00  9.000E+00
      25     1     1     2     0     0 -1.519670111E+02  4.185834666E+01  6.116160385E+00  2.012672380E+02  1.250000000E+02  0.00000E+00  9.000E+00
      25     1     1     2     0     0  1.267720500E+02  7.849919861E+00 -1.671290295E+02  2.443151375E+02  1.250000000E+02  0.00000E+00  9.000E+00
      21     1     1     2   501   511  2.519496110E+01 -4.970826652E+01  5.031937886E+01  7.508487007E+01  9.536743164E-07  0.00000E+00  9.000E+00
#rwgt            1           1   2.9109669877389530E-002           1      307940           0
</event>
<event>
      5   9999  3.79277E-02  2.88053E+01 -1.00000E+00  1.54276E-01
      21    -1     0     0   502   501  0.000000000E+00  0.000000000E+00  1.186361063E+02  1.186361063E+02  0.000000000E+00  0.00000E+00  9.000E+00
      21    -1     0     0   501   512  0.000000000E+00  0.000000000E+00 -2.928987737E+02  2.928987737E+02  0.000000000E+00  0.00000E+00  9.000E+00
      25     1     1     2     0     0  6.355220342E+01 -8.567893326E+01 -4.739145186E+01  1.710283949E+02  1.250000000E+02  0.00000E+00  9.000E+00
      25     1     1     2     0     0 -4.405288106E+01  1.068808179E+02 -8.667371396E+01  1.910536528E+02  1.250000000E+02  0.00000E+00  9.000E+00
      21     1     1     2   502   512 -1.949932236E+01 -2.120188467E+01 -4.019750159E+01  4.945283228E+01  4.768371582E-07  0.00000E+00  9.000E+00
#rwgt            1           1   3.6728806257874370E-002           1      308036           0
</event>
<event>
      5   9999  3.79277E-02  6.87202E+01 -1.00000E+00  1.31628E-01
      21    -1     0     0   502   501  0.000000000E+00  0.000000000E+00  1.061874233E+03  1.061874233E+03  0.000000000E+00  0.00000E+00  9.000E+00
      21    -1     0     0   501   511  0.000000000E+00  0.000000000E+00 -1.060411405E+02  1.060411405E+02  0.000000000E+00  0.00000E+00  9.000E+00
      25     1     1     2     0     0 -9.972964476E+01 -2.294366174E+02  1.948929427E+02  3.408744968E+02  1.250000000E+02  0.00000E+00  9.000E+00
      25     1     1     2     0     0  9.667884428E+01  1.607841396E+02  6.992494936E+02  7.346925839E+02  1.250000000E+02  0.00000E+00  9.000E+00
      21     1     1     2   502   511  3.050800477E+00  6.865247777E+01  6.169065577E+01  9.234829233E+01  0.000000000E+00  0.00000E+00  9.000E+00
#rwgt            1           1   4.6671946801270334E-002           1      308196           0
</event>
<event>
      5   9999  3.79277E-02  2.74021E+01 -1.00000E+00  1.55823E-01
      21    -1     0     0   502   501  0.000000000E+00  0.000000000E+00  9.486171538E+01  9.486171538E+01  0.000000000E+00  0.00000E+00  9.000E+00
       2    -1     0     0   501     0  0.000000000E+00  0.000000000E+00 -5.576075538E+02  5.576075538E+02  0.000000000E+00  0.00000E+00  9.000E+00
      25     1     1     2     0     0  8.943402843E+01  1.540655948E+02 -2.436911840E+02  3.267186039E+02  1.250000000E+02  0.00000E+00  9.000E+00
      25     1     1     2     0     0 -6.235789798E+01 -1.498512840E+02 -2.167621127E+02  2.982527925E+02  1.250000000E+02  0.00000E+00  9.000E+00
       2     1     1     2   502     0 -2.707613045E+01 -4.214310821E+00 -2.292541647E+00  2.749787270E+01  4.616955931E-07  0.00000E+00  9.000E+00
#rwgt            1           1   4.4663821191611837E-002           1      308360           0
</event>
<event>
      5   9999  3.79277E-02  7.21179E+01 -1.00000E+00  1.30568E-01
      21    -1     0     0   502   511  0.000000000E+00  0.000000000E+00  3.098317063E+02  3.098317063E+02  0.000000000E+00  0.00000E+00  9.000E+00
      21    -1     0     0   501   502  0.000000000E+00  0.000000000E+00 -4.090921359E+02  4.090921359E+02  0.000000000E+00  0.00000E+00  9.000E+00
      25     1     1     2     0     0  5.349120877E+01  2.306650456E+01  8.902807429E+01  1.641474065E+02  1.250000000E+02  0.00000E+00  9.000E+00
      25     1     1     2     0     0 -4.216713455E+01  4.815683147E+01 -3.503198719E+02  3.774204026E+02  1.250000000E+02  0.00000E+00  9.000E+00
      21     1     1     2   501   511 -1.132407422E+01 -7.122333603E+01  1.620313680E+02  1.773560331E+02  0.000000000E+00  0.00000E+00  9.000E+00
#rwgt            1           1   4.5582499256327645E-002           1      308652           0
</event>
<event>
      5   9999  3.79277E-02  9.29767E+01 -1.00000E+00  1.25267E-01
       1    -1     0     0   502     0  0.000000000E+00  0.000000000E+00  2.261402877E+03  2.261402877E+03  0.000000000E+00  0.00000E+00  9.000E+00
      21    -1     0     0   501   502  0.000000000E+00  0.000000000E+00 -1.916145395E+02  1.916145395E+02  0.000000000E+00  0.00000E+00  9.000E+00
      25     1     1     2     0     0 -1.942618223E+02 -3.216565995E+02  4.417012275E+02  5.932331734E+02  1.250000000E+02  0.00000E+00  9.000E+00
      25     1     1     2     0     0  2.719059444E+02  2.705091323E+02  2.416689856E+02  4.702519877E+02  1.250000000E+02  0.00000E+00  9.000E+00
       1     1     1     2   501     0 -7.764412212E+01  5.114746719E+01  1.386418124E+03  1.389532255E+03  1.525878906E-05  0.00000E+00  9.000E+00
#rwgt            1           1   2.5584535849998133E-002           1      308809           0
</event>
<event>
      5   9999  3.79277E-02  9.69231E+01 -1.00000E+00  1.24441E-01
      21    -1     0     0   511   501  0.000000000E+00  0.000000000E+00  3.473847885E+02  3.473847885E+02  0.000000000E+00  0.00000E+00  9.000E+00
      21    -1     0     0   501   502  0.000000000E+00  0.000000000E+00 -3.805142885E+02  3.805142885E+02  0.000000000E+00  0.00000E+00  9.000E+00
      25     1     1     2     0     0  4.381967720E+01 -1.761036162E+02 -2.089357190E+02  3.036639300E+02  1.250000000E+02  0.00000E+00  9.000E+00
      25     1     1     2     0     0 -8.862354181E+01  9.015773601E+01 -4.474260837E+01  1.833288044E+02  1.250000000E+02  0.00000E+00  9.000E+00
      21     1     1     2   511   502  4.480386461E+01  8.594588016E+01  2.205488273E+02  2.409063425E+02  4.672030912E-06  0.00000E+00  9.000E+00
#rwgt            1           1   3.1476079248926286E-002           1      309047           0
</event>
<event>
      5   9999  3.79277E-02  3.77847E+01 -1.00000E+00  1.46392E-01
      21    -1     0     0   512   501  0.000000000E+00  0.000000000E+00  9.198400335E+02  9.198400335E+02  0.000000000E+00  0.00000E+00  9.000E+00
      21    -1     0     0   501   502  0.000000000E+00  0.000000000E+00 -5.841508167E+01  5.841508167E+01  0.000000000E+00  0.00000E+00  9.000E+00
      25     1     1     2     0     0 -1.053786938E+02 -1.503157890E+02  3.350399092E+02  4.019654790E+02  1.250000000E+02  0.00000E+00  9.000E+00
      25     1     1     2     0     0  7.896487762E+01  1.232973697E+02  3.924466450E+02  4.371236237E+02  1.250000000E+02  0.00000E+00  9.000E+00
      21     1     1     2   512   502  2.641381616E+01  2.701841931E+01  1.339383977E+02  1.391660125E+02  1.907348633E-06  0.00000E+00  9.000E+00
#rwgt            1           1   3.8770692741418186E-002           1      309171           0
</event>
<event>
      5   9999  3.79277E-02  2.06465E+01 -1.00000E+00  1.65237E-01
      21    -1     0     0   502   501  0.000000000E+00  0.000000000E+00  1.464198955E+03  1.464198955E+03  0.000000000E+00  0.00000E+00  9.000E+00
      21    -1     0     0   501   511  0.000000000E+00  0.000000000E+00 -4.523675807E+01  4.523675807E+01  0.000000000E+00  0.00000E+00  9.000E+00
      25     1     1     2     0     0 -2.095025838E+02  2.891291272E+01  8.983014555E+02  9.312882444E+02  1.250000000E+02  0.00000E+00  9.000E+00
      25     1     1     2     0     0  1.899478224E+02 -3.553776761E+01  4.664505862E+02  5.201386907E+02  1.250000000E+02  0.00000E+00  9.000E+00
      21     1     1     2   502   511  1.955476147E+01  6.624854887E+00  5.421015514E+01  5.800877795E+01  9.536743164E-07  0.00000E+00  9.000E+00
#rwgt            2          11   1.3327478451207780E-002           1      309304           0
</event>
<event>
      5   9999  3.79277E-02  8.59869E+00 -1.00000E+00  2.03655E-01
      21    -1     0     0   502   501  0.000000000E+00  0.000000000E+00  1.852839202E+03  1.852839202E+03  0.000000000E+00  0.00000E+00  9.000E+00
      21    -1     0     0   501   512  0.000000000E+00  0.000000000E+00 -4.081550006E+02  4.081550006E+02  0.000000000E+00  0.00000E+00  9.000E+00
      25     1     1     2     0     0  4.482514337E+01  1.501466839E+02  1.709925337E+03  1.721633811E+03  1.250000000E+02  0.00000E+00  9.000E+00
      25     1     1     2     0     0 -3.942946546E+01 -1.434515999E+02  6.810474995E+01  2.059036212E+02  1.250000000E+02  0.00000E+00  9.000E+00
      21     1     1     2   502   512 -5.395677908E+00 -6.695084037E+00 -3.333458863E+02  3.334567699E+02  8.529922400E-06  0.00000E+00  9.000E+00
#rwgt            1           1   4.7152263509937023E-002           1      309339           0
</event>
<event>
      5   9999  3.79277E-02  2.78255E+01 -1.00000E+00  1.55345E-01
      21    -1     0     0   502   501  0.000000000E+00  0.000000000E+00  1.177815473E+02  1.177815473E+02  0.000000000E+00  0.00000E+00  9.000E+00
      21    -1     0     0   511   502  0.000000000E+00  0.000000000E+00 -7.132787442E+02  7.132787442E+02  0.000000000E+00  0.00000E+00  9.000E+00
      25     1     1     2     0     0 -2.797335065E+01 -1.987218400E+02 -7.663558595E+01  2.485375044E+02  1.250000000E+02  0.00000E+00  9.000E+00
      25     1     1     2     0     0  6.574432849E+00  1.809358330E+02 -3.651297146E+02  4.262929830E+02  1.250000000E+02  0.00000E+00  9.000E+00
      21     1     1     2   511   501  2.139891780E+01  1.778600696E+01 -1.537318963E+02  1.562298041E+02  2.697398305E-06  0.00000E+00  9.000E+00
#rwgt            1           1   4.0031144185482558E-002           1      309654           0
</event>
<event>
      5   9999  3.79277E-02  1.18810E+02 -1.00000E+00  1.20552E-01
      21    -1     0     0   502   501  0.000000000E+00  0.000000000E+00  1.482785496E+03  1.482785496E+03  0.000000000E+00  0.00000E+00  9.000E+00
      21    -1     0     0   501   512  0.000000000E+00  0.000000000E+00 -1.884402161E+02  1.884402161E+02  0.000000000E+00  0.00000E+00  9.000E+00
      25     1     1     2     0     0 -1.672826381E+02 -1.342698559E+02  1.074929902E+03  1.103227614E+03  1.250000000E+02  0.00000E+00  9.000E+00
      25     1     1     2     0     0  1.454086314E+02  1.749034423E+01  3.450149442E+02  3.951074461E+02  1.250000000E+02  0.00000E+00  9.000E+00
      21     1     1     2   502   512  2.187400672E+01  1.167795116E+02 -1.255995660E+02  1.728906518E+02  4.862803949E-06  0.00000E+00  9.000E+00
#rwgt            1           1   3.7795614407710565E-002           1      309783           0
</event>
<event>
      5   9999  3.79277E-02  4.01885E+01 -1.00000E+00  1.44714E-01
      21    -1     0     0   502   501  0.000000000E+00  0.000000000E+00  1.305583035E+02  1.305583035E+02  0.000000000E+00  0.00000E+00  9.000E+00
      21    -1     0     0   511   502  0.000000000E+00  0.000000000E+00 -6.575985157E+02  6.575985157E+02  0.000000000E+00  0.00000E+00  9.000E+00
      25     1     1     2     0     0 -2.061033097E+02  1.256895818E+02 -1.795623775E+02  3.257976253E+02  1.250000000E+02  0.00000E+00  9.000E+00
      25     1     1     2     0     0  1.894095118E+02 -8.913229872E+01 -2.189542998E+02  3.276988179E+02  1.250000000E+02  0.00000E+00  9.000E+00
      21     1     1     2   511   501  1.669379790E+01 -3.655728306E+01 -1.285235349E+02  1.346603760E+02  0.000000000E+00  0.00000E+00  9.000E+00
#rwgt            1           1   3.2899300271870970E-002           1      309857           0
</event>
<event>
      5   9999  3.79277E-02  3.65622E+01 -1.00000E+00  1.47303E-01
      21    -1     0     0   502   501  0.000000000E+00  0.000000000E+00  1.539091481E+02  1.539091481E+02  0.000000000E+00  0.00000E+00  9.000E+00
      21    -1     0     0   501   512  0.000000000E+00  0.000000000E+00 -6.613388542E+02  6.613388542E+02  0.000000000E+00  0.00000E+00  9.000E+00
      25     1     1     2     0     0 -1.844788278E+02 -8.494362135E+01 -1.030322475E+02  2.597854899E+02  1.250000000E+02  0.00000E+00  9.000E+00
      25     1     1     2     0     0  2.168620791E+02  1.019176878E+02 -1.723227445E+02  3.205253574E+02  1.250000000E+02  0.00000E+00  9.000E+00
      21     1     1     2   502   512 -3.238325128E+01 -1.697406640E+01 -2.320747141E+02  2.349371550E+02  5.394796609E-06  0.00000E+00  9.000E+00
#rwgt            1           1  0.35282973657956684                1      309995           0
</event>
<event>
      5   9999  3.79277E-02  2.69044E+01 -1.00000E+00  1.56399E-01
      21    -1     0     0   502   501  0.000000000E+00  0.000000000E+00  2.049476626E+02  2.049476626E+02  0.000000000E+00  0.00000E+00  9.000E+00
      21    -1     0     0   501   511  0.000000000E+00  0.000000000E+00 -2.961346209E+02  2.961346209E+02  0.000000000E+00  0.00000E+00  9.000E+00
      25     1     1     2     0     0  1.463675521E+02 -8.835858241E+01  3.010381014E+01  2.139204029E+02  1.250000000E+02  0.00000E+00  9.000E+00
      25     1     1     2     0     0 -1.727124474E+02  9.381666336E+01 -1.033753588E+02  2.548384206E+02  1.250000000E+02  0.00000E+00  9.000E+00
      21     1     1     2   502   511  2.634489530E+01 -5.458080948E+00 -1.791540970E+01  3.232345991E+01  4.129530925E-07  0.00000E+00  9.000E+00
#rwgt            1           1   4.3385792124538566E-002           1      310240           0
</event>
<event>
      5   9999  3.79277E-02  2.39335E+01 -1.00000E+00  1.60182E-01
       1    -1     0     0   502     0  0.000000000E+00  0.000000000E+00  8.427027383E+02  8.427027383E+02  0.000000000E+00  0.00000E+00  9.000E+00
      21    -1     0     0   501   502  0.000000000E+00  0.000000000E+00 -1.260960551E+03  1.260960551E+03  0.000000000E+00  0.00000E+00  9.000E+00
      25     1     1     2     0     0 -1.704908856E+02 -6.635747647E+01 -1.422585636E+02  2.633115183E+02  1.250000000E+02  0.00000E+00  9.000E+00
      25     1     1     2     0     0  1.935676833E+02  6.001118350E+01 -1.044592411E+03  1.071386062E+03  1.250000000E+02  0.00000E+00  9.000E+00
       1     1     1     2   501     0 -2.307679768E+01  6.346292963E+00  7.685931613E+02  7.689657090E+02  1.525878906E-05  0.00000E+00  9.000E+00
#rwgt            1           1   5.1004059215623579E-002           1      310332           0
</event>
<event>
      5   9999  3.79277E-02  3.84017E+01 -1.00000E+00  1.45947E-01
      21    -1     0     0   502   501  0.000000000E+00  0.000000000E+00  2.046730334E+03  2.046730334E+03  0.000000000E+00  0.00000E+00  9.000E+00
      21    -1     0     0   501   511  0.000000000E+00  0.000000000E+00 -7.733355248E+01  7.733355248E+01  0.000000000E+00  0.00000E+00  9.000E+00
      25     1     1     2     0     0 -1.904081893E+02  1.037806823E+00  7.890548891E+02  8.212727766E+02  1.250000000E+02  0.00000E+00  9.000E+00
      25     1     1     2     0     0  1.602168494E+02 -2.476905640E+01  1.226089599E+03  1.243062207E+03  1.250000000E+02  0.00000E+00  9.000E+00
      21     1     1     2   502   511  3.019133988E+01  2.373124958E+01 -4.574770661E+01  5.972890314E+01  4.101908334E-06  0.00000E+00  9.000E+00
#rwgt            1           1   7.1520051054502584E-002           1      310523           0
</event>
<event>
      5   9999  3.79277E-02  1.33832E+01 -1.00000E+00  1.82181E-01
      21    -1     0     0   502   501  0.000000000E+00  0.000000000E+00  1.022944616E+01  1.022944616E+01  0.000000000E+00  0.00000E+00  9.000E+00
      21    -1     0     0   501   512  0.000000000E+00  0.000000000E+00 -3.688198716E+03  3.688198716E+03  0.000000000E+00  0.00000E+00  9.000E+00
      25     1     1     2     0     0  1.219125993E+02  2.296973072E+01 -2.102327796E+03  2.109691317E+03  1.250000000E+02  0.00000E+00  9.000E+00
      25     1     1     2     0     0 -1.204831339E+02 -9.663130571E+00 -1.167634218E+03  1.180510156E+03  1.250000000E+02  0.00000E+00  9.000E+00
      21     1     1     2   502   512 -1.429465428E+00 -1.330660015E+01 -4.080072552E+02  4.082266886E+02  5.394796609E-06  0.00000E+00  9.000E+00
#rwgt            1           1   2.6619554392266612E-002           1      310600           0
</event>
<event>
      5   9999  3.79277E-02  1.64395E+02 -1.00000E+00  1.14838E-01
      21    -1     0     0   502   501  0.000000000E+00  0.000000000E+00  3.387324117E+02  3.387324117E+02  0.000000000E+00  0.00000E+00  9.000E+00
      21    -1     0     0   501   511  0.000000000E+00  0.000000000E+00 -5.503456805E+02  5.503456805E+02  0.000000000E+00  0.00000E+00  9.000E+00
      25     1     1     2     0     0 -1.080933335E+02 -3.063760492E+02 -2.097549710E+02  4.064143208E+02  1.250000000E+02  0.00000E+00  9.000E+00
      25     1     1     2     0     0  1.699210662E+02  1.540501465E+02  1.104170232E+02  2.835869098E+02  1.250000000E+02  0.00000E+00  9.000E+00
      21     1     1     2   502   511 -6.182773276E+01  1.523259027E+02 -1.122753209E+02  1.990768617E+02  1.348699152E-06  0.00000E+00  9.000E+00
#rwgt            1           1   3.4484663426193093E-002           1      310879           0
</event>
<event>
      5   9999  3.79277E-02  9.52073E+01 -1.00000E+00  1.24795E-01
      21    -1     0     0   502   501  0.000000000E+00  0.000000000E+00  2.892280041E+02  2.892280041E+02  0.000000000E+00  0.00000E+00  9.000E+00
       2    -1     0     0   501     0  0.000000000E+00  0.000000000E+00 -4.948626715E+02  4.948626715E+02  0.000000000E+00  0.00000E+00  9.000E+00
      25     1     1     2     0     0 -7.578384187E+01  1.788268188E+02 -4.980272420E+01  2.362785076E+02  1.250000000E+02  0.00000E+00  9.000E+00
      25     1     1     2     0     0  1.708718072E+02 -1.740604513E+02  8.653559925E+01  2.874154226E+02  1.250000000E+02  0.00000E+00  9.000E+00
       2     1     1     2   502     0 -9.508796537E+01 -4.766367539E+00 -2.423675424E+02  2.603967454E+02  4.672030912E-06  0.00000E+00  9.000E+00
#rwgt            1           1   2.2020919203564613E-002           1      310947           0
</event>
<event>
      5   9999  3.79277E-02  7.99577E+01 -1.00000E+00  1.28361E-01
      21    -1     0     0   502   501  0.000000000E+00  0.000000000E+00  6.779583502E+02  6.779583502E+02  0.000000000E+00  0.00000E+00  9.000E+00
       3    -1     0     0   501     0  0.000000000E+00  0.000000000E+00 -5.940157799E+02  5.940157799E+02  0.000000000E+00  0.00000E+00  9.000E+00
      25     1     1     2     0     0 -1.674747791E+02  1.005489637E+02  3.050215604E+02  3.831723477E+02  1.250000000E+02  0.00000E+00  9.000E+00
      25     1     1     2     0     0  1.556055568E+02 -1.796207792E+02  2.761552715E+02  3.851797601E+02  1.250000000E+02  0.00000E+00  9.000E+00
       3     1     1     2   502     0  1.186922240E+01  7.907181547E+01 -4.972342616E+02  5.036220223E+02  9.344061824E-06  0.00000E+00  9.000E+00
#rwgt            1           1   3.2287090086952311E-002           1      311149           0
</event>
<event>
      5   9999  3.79277E-02  2.98819E+01 -1.00000E+00  1.53159E-01
      21    -1     0     0   502   501  0.000000000E+00  0.000000000E+00  1.490873837E+03  1.490873837E+03  0.000000000E+00  0.00000E+00  9.000E+00
      21    -1     0     0   501   511  0.000000000E+00  0.000000000E+00 -3.090972752E+01  3.090972752E+01  0.000000000E+00  0.00000E+00  9.000E+00
      25     1     1     2     0     0 -1.513460429E+02 -3.108667299E+01  5.837183982E+02  6.166232029E+02  1.250000000E+02  0.00000E+00  9.000E+00
      25     1     1     2     0     0  1.469540995E+02  1.529259037E+00  8.070030998E+02  8.297450506E+02  1.250000000E+02  0.00000E+00  9.000E+00
      21     1     1     2   502   511  4.391943420E+00  2.955741396E+01  6.924261165E+01  7.541531114E+01  9.536743164E-07  0.00000E+00  9.000E+00
#rwgt            1           1   4.2421137464819535E-002           1      311359           0
</event>
<event>
      5   9999  3.95506E-02  4.90561E+01 -1.00000E+00  1.39549E-01
      21    -1     0     0   512   501  0.000000000E+00  0.000000000E+00  1.801982624E+02  1.801982624E+02  0.000000000E+00  0.00000E+00  9.000E+00
      21    -1     0     0   501   502  0.000000000E+00  0.000000000E+00 -5.921987823E+02  5.921987823E+02  0.000000000E+00  0.00000E+00  9.000E+00
      25     1     1     2     0     0 -2.131092506E+02  5.941720551E+01 -1.246313045E+02  2.830263576E+02  1.250000000E+02  0.00000E+00  9.000E+00
      25     1     1     2     0     0  1.966609581E+02 -1.056336126E+02 -3.346439237E+02  4.212428613E+02  1.250000000E+02  0.00000E+00  9.000E+00
      21     1     1     2   512   502  1.644829251E+01  4.621640706E+01  4.727470825E+01  6.812782580E+01  9.536743164E-07  0.00000E+00  9.000E+00
#rwgt            1           1  0.29301226088469390                1      311459           0
</event>
<event>
      5   9999  3.79277E-02  8.85808E+00 -1.00000E+00  2.02048E-01
      21    -1     0     0   511   501  0.000000000E+00  0.000000000E+00  1.240635087E+03  1.240635087E+03  0.000000000E+00  0.00000E+00  9.000E+00
      21    -1     0     0   501   502  0.000000000E+00  0.000000000E+00 -1.764412944E+03  1.764412944E+03  0.000000000E+00  0.00000E+00  9.000E+00
      25     1     1     2     0     0 -8.847448413E+01 -5.167207557E+01 -3.068135308E+02  3.467813150E+02  1.250000000E+02  0.00000E+00  9.000E+00
      25     1     1     2     0     0  9.157366905E+01  5.997030353E+01 -1.432798471E+03  1.442400303E+03  1.250000000E+02  0.00000E+00  9.000E+00
      21     1     1     2   511   502 -3.099184916E+00 -8.298227964E+00  1.215834146E+03  1.215866413E+03  2.642899792E-05  0.00000E+00  9.000E+00
#rwgt            1           1   3.7207462332591083E-002           1      311583           0
</event>
<event>
      5   9999  3.79277E-02  2.23901E+01 -1.00000E+00  1.62423E-01
      21    -1     0     0   512   501  0.000000000E+00  0.000000000E+00  4.563996029E+02  4.563996029E+02  0.000000000E+00  0.00000E+00  9.000E+00
      21    -1     0     0   501   502  0.000000000E+00  0.000000000E+00 -1.987067882E+02  1.987067882E+02  0.000000000E+00  0.00000E+00  9.000E+00
      25     1     1     2     0     0  7.183334405E+01 -1.754688820E+02 -7.441319617E+01  2.389805047E+02  1.250000000E+02  0.00000E+00  9.000E+00
      25     1     1     2     0     0 -9.249884688E+01  1.668519287E+02  2.967036037E+02  3.742373996E+02  1.250000000E+02  0.00000E+00  9.000E+00
      21     1     1     2   512   502  2.066550284E+01  8.616953281E+00  3.540240717E+01  4.188848678E+01  4.768371582E-07  0.00000E+00  9.000E+00
#rwgt            1           1   3.0372975076266417E-002           1      311803           0
</event>
<event>
      5   9999  3.79277E-02  3.11313E+01 -1.00000E+00  1.51932E-01
       2    -1     0     0   502     0  0.000000000E+00  0.000000000E+00  3.392691955E+03  3.392691955E+03  0.000000000E+00  0.00000E+00  9.000E+00
      21    -1     0     0   501   502  0.000000000E+00  0.000000000E+00 -1.938287246E+02  1.938287246E+02  0.000000000E+00  0.00000E+00  9.000E+00
      25     1     1     2     0     0  2.397539050E+02 -1.085884470E+02  4.410735642E+01  2.946927971E+02  1.250000000E+02  0.00000E+00  9.000E+00
      25     1     1     2     0     0 -2.565912491E+02  1.347736016E+02  2.954133875E+02  4.323159288E+02  1.250000000E+02  0.00000E+00  9.000E+00
       2     1     1     2   501     0  1.683734407E+01 -2.618515460E+01  2.859342487E+03  2.859511954E+03  3.051757812E-05  0.00000E+00  9.000E+00
#rwgt            1           1   3.9977768281603390E-002           1      312021           0
</event>
<event>
      5   9999  3.79277E-02  2.67761E+01 -1.00000E+00  1.56550E-01
      21    -1     0     0   511   501  0.000000000E+00  0.000000000E+00  1.156689201E+03  1.156689201E+03  0.000000000E+00  0.00000E+00  9.000E+00
      21    -1     0     0   501   502  0.000000000E+00  0.000000000E+00 -1.026046722E+02  1.026046722E+02  0.000000000E+00  0.00000E+00  9.000E+00
      25     1     1     2     0     0 -1.760634993E+02  1.636358224E+02  2.226631255E+02  3.506834835E+02  1.250000000E+02  0.00000E+00  9.000E+00
      25     1     1     2     0     0  1.565854964E+02 -1.820088246E+02  4.422127148E+02  5.184817403E+02  1.250000000E+02  0.00000E+00  9.000E+00
      21     1     1     2   511   502  1.947800294E+01  1.837300220E+01  3.892086883E+02  3.901286491E+02  7.629394531E-06  0.00000E+00  9.000E+00
#rwgt            1           1   3.9128940142740883E-002           1      312325           0
</event>
<event>
      5   9999 -3.79277E-02  1.78133E+01 -1.00000E+00  1.70628E-01
       2    -1     0     0   502     0  0.000000000E+00  0.000000000E+00  1.907171248E+03  1.907171248E+03  0.000000000E+00  0.00000E+00  9.000E+00
      21    -1     0     0   501   502  0.000000000E+00  0.000000000E+00 -1.492878631E+02  1.492878631E+02  0.000000000E+00  0.00000E+00  9.000E+00
      25     1     1     2     0     0  1.470550162E+02 -5.953874125E+01  1.382177571E+02  2.447431059E+02  1.250000000E+02  0.00000E+00  9.000E+00
      25     1     1     2     0     0 -1.647300726E+02  6.175336807E+01  2.534330777E+01  2.172941751E+02  1.250000000E+02  0.00000E+00  9.000E+00
       2     1     1     2   501     0  1.767505640E+01 -2.214626814E+00  1.594322320E+03  1.594421830E+03  0.000000000E+00  0.00000E+00  9.000E+00
#rwgt            1           1  -7.4767505986320218E-002           1      312441           0
</event>
<event>
      5   9999  3.79277E-02  2.85674E+02 -1.00000E+00  1.06287E-01
      21    -1     0     0   502   501  0.000000000E+00  0.000000000E+00  3.930755785E+02  3.930755785E+02  0.000000000E+00  0.00000E+00  9.000E+00
       2    -1     0     0   501     0  0.000000000E+00  0.000000000E+00 -1.273437257E+03  1.273437257E+03  0.000000000E+00  0.00000E+00  9.000E+00
      25     1     1     2     0     0  7.169067476E+01  2.035978709E+02 -4.478196789E+01  2.534207382E+02  1.250000000E+02  0.00000E+00  9.000E+00
      25     1     1     2     0     0  1.949387662E+01  6.713222965E+01  2.513272381E+02  2.892699917E+02  1.250000000E+02  0.00000E+00  9.000E+00
       2     1     1     2   502     0 -9.118455138E+01 -2.707301006E+02 -1.086906949E+03  1.123822106E+03  1.525878906E-05  0.00000E+00  9.000E+00
#rwgt            2          13   1.3398027251317164E-003           1      312637           0
</event>
<event>
      5   9999  3.79277E-02  1.89083E+01 -1.00000E+00  1.68406E-01
      21    -1     0     0   502   501  0.000000000E+00  0.000000000E+00  1.448517752E+03  1.448517752E+03  0.000000000E+00  0.00000E+00  9.000E+00
      21    -1     0     0   501   511  0.000000000E+00  0.000000000E+00 -6.701959660E+02  6.701959660E+02  0.000000000E+00  0.00000E+00  9.000E+00
      25     1     1     2     0     0 -7.488848529E+01  1.499879222E+02  8.483638392E+02  8.737567543E+02  1.250000000E+02  0.00000E+00  9.000E+00
      25     1     1     2     0     0  5.598033851E+01 -1.499115580E+02  5.697666945E+02  6.048688781E+02  1.250000000E+02  0.00000E+00  9.000E+00
      21     1     1     2   502   511  1.890814678E+01 -7.636417167E-02 -6.398087476E+02  6.400880856E+02  7.629394531E-06  0.00000E+00  9.000E+00
#rwgt            1           1   4.7773018297953093E-002           1      312656           0
</event>
<event>
      5   9999  3.79277E-02  4.63702E+01 -1.00000E+00  1.40969E-01
      21    -1     0     0   502   501  0.000000000E+00  0.000000000E+00  1.721460344E+02  1.721460344E+02  0.000000000E+00  0.00000E+00  9.000E+00
       2    -1     0     0   501     0  0.000000000E+00  0.000000000E+00 -1.330794775E+03  1.330794775E+03  0.000000000E+00  0.00000E+00  9.000E+00
      25     1     1     2     0     0  7.845125189E+01 -6.617413277E+01 -9.843875535E+01  1.893378022E+02  1.250000000E+02  0.00000E+00  9.000E+00
      25     1     1     2     0     0 -7.755631033E+01  1.125356815E+02  5.826864166E+01  1.941635792E+02  1.250000000E+02  0.00000E+00  9.000E+00
       2     1     1     2   502     0 -8.949415577E-01 -4.636154875E+01 -1.118478627E+03  1.119439428E+03  1.525878906E-05  0.00000E+00  9.000E+00
#rwgt            1           1   1.9487997223081536E-002           1      312867           0
</event>
<event>
      5   9999  3.79277E-02  5.63674E+01 -1.00000E+00  1.36169E-01
      21    -1     0     0   502   511  0.000000000E+00  0.000000000E+00  2.340183770E+02  2.340183770E+02  0.000000000E+00  0.00000E+00  9.000E+00
      21    -1     0     0   501   502  0.000000000E+00  0.000000000E+00 -1.577332456E+02  1.577332456E+02  0.000000000E+00  0.00000E+00  9.000E+00
      25     1     1     2     0     0  1.094301492E+02  4.843570663E+01 -6.836652558E+00  1.731840497E+02  1.250000000E+02  0.00000E+00  9.000E+00
      25     1     1     2     0     0 -7.485536980E+01 -3.917560032E+00  6.149020280E+01  1.581920311E+02  1.250000000E+02  0.00000E+00  9.000E+00
      21     1     1     2   501   511 -3.457477943E+01 -4.451814660E+01  2.163158118E+01  6.037554185E+01  4.129530925E-07  0.00000E+00  9.000E+00
#rwgt            1           1   3.4363697361106282E-002           1      313055           0
</event>
<event>
      5   9999  3.79277E-02  2.70493E+01 -1.00000E+00  1.56230E-01
      21    -1     0     0   502   512  0.000000000E+00  0.000000000E+00  1.716151422E+02  1.716151422E+02  0.000000000E+00  0.00000E+00  9.000E+00
      21    -1     0     0   501   502  0.000000000E+00  0.000000000E+00 -4.763734822E+02  4.763734822E+02  0.000000000E+00  0.00000E+00  9.000E+00
      25     1     1     2     0     0  2.773733386E+01 -4.410600666E+01 -4.044785555E+02  4.265473027E+02  1.250000000E+02  0.00000E+00  9.000E+00
      25     1     1     2     0     0 -5.047863578E+01  2.946028723E+01  2.274411282E+01  1.398509773E+02  1.250000000E+02  0.00000E+00  9.000E+00
      21     1     1     2   501   512  2.274130192E+01  1.464571943E+01  7.697610276E+01  8.159034445E+01  1.651812370E-06  0.00000E+00  9.000E+00
#rwgt            1           1   4.6614188454609164E-002           1      313153           0
</event>
<event>
      5   9999  3.79277E-02  4.22891E+01 -1.00000E+00  1.43357E-01
      21    -1     0     0   511   501  0.000000000E+00  0.000000000E+00  6.599911969E+02  6.599911969E+02  0.000000000E+00  0.00000E+00  9.000E+00
      21    -1     0     0   501   502  0.000000000E+00  0.000000000E+00 -7.284723163E+01  7.284723163E+01  0.000000000E+00  0.00000E+00  9.000E+00
      25     1     1     2     0     0 -5.709677611E+01  5.026071860E+01  3.451039083E+02  3.748438198E+02  1.250000000E+02  0.00000E+00  9.000E+00
      25     1     1     2     0     0  1.625507782E+01 -6.122976748E+01  3.200563158E+01  1.437451649E+02  1.250000000E+02  0.00000E+00  9.000E+00
      21     1     1     2   511   502  4.084169829E+01  1.096904888E+01  2.100344254E+02  2.142494439E+02  3.814697266E-06  0.00000E+00  9.000E+00
#rwgt            1           1   3.9802818143008456E-002           1      313293           0
</event>
<event>
      5   9999  3.79277E-02  1.54761E+02 -1.00000E+00  1.15858E-01
      21    -1     0     0   502   512  0.000000000E+00  0.000000000E+00  1.821031586E+03  1.821031586E+03  0.000000000E+00  0.00000E+00  9.000E+00
      21    -1     0     0   501   502  0.000000000E+00  0.000000000E+00 -1.945290120E+02  1.945290120E+02  0.000000000E+00  0.00000E+00  9.000E+00
      25     1     1     2     0     0 -2.215188122E+02  4.468922198E+02  5.268688421E+02  7.362058252E+02  1.250000000E+02  0.00000E+00  9.000E+00
      25     1     1     2     0     0  6.756802532E+01 -4.310783083E+02  5.760874982E+02  7.334137655E+02  1.250000000E+02  0.00000E+00  9.000E+00
      21     1     1     2   501   512  1.539507868E+02 -1.581391151E+01  5.235462334E+02  5.459410070E+02  1.321449896E-05  0.00000E+00  9.000E+00
#rwgt            2          11   1.4845278283363563E-003           1      313390           0
</event>
<event>
      5   9999  3.79277E-02  2.09830E+02 -1.00000E+00  1.10895E-01
      21    -1     0     0   502   511  0.000000000E+00  0.000000000E+00  5.457833053E+02  5.457833053E+02  0.000000000E+00  0.00000E+00  9.000E+00
      21    -1     0     0   501   502  0.000000000E+00  0.000000000E+00 -1.089482205E+03  1.089482205E+03  0.000000000E+00  0.00000E+00  9.000E+00
      25     1     1     2     0     0 -3.919463095E+01 -1.811165366E+02 -4.261723667E+02  4.812351869E+02  1.250000000E+02  0.00000E+00  9.000E+00
      25     1     1     2     0     0 -1.420267264E+02  7.534573883E+01 -5.969323621E+02  6.307153211E+02  1.250000000E+02  0.00000E+00  9.000E+00
      21     1     1     2   501   511  1.812213574E+02  1.057707978E+02  4.794058295E+02  5.233150020E+02  1.078959322E-05  0.00000E+00  9.000E+00
#rwgt            2          11   1.3713479419224541E-002           1      313410           0
</event>
<event>
      5   9999  3.79277E-02  1.84622E+01 -1.00000E+00  1.69288E-01
      21    -1     0     0   502   512  0.000000000E+00  0.000000000E+00  1.559864073E+02  1.559864073E+02  0.000000000E+00  0.00000E+00  9.000E+00
      21    -1     0     0   501   502  0.000000000E+00  0.000000000E+00 -5.470939247E+02  5.470939247E+02  0.000000000E+00  0.00000E+00  9.000E+00
      25     1     1     2     0     0 -2.710468056E+01 -1.753807490E+02 -9.530837579E+01  2.370690982E+02  1.250000000E+02  0.00000E+00  9.000E+00
      25     1     1     2     0     0  1.322042274E+01  1.875495076E+02 -3.456485159E+02  4.128528720E+02  1.250000000E+02  0.00000E+00  9.000E+00
      21     1     1     2   501   512  1.388425782E+01 -1.216875858E+01  4.984937431E+01  5.315836171E+01  6.743495762E-07  0.00000E+00  9.000E+00
#rwgt            1           1   3.6597449973380859E-002           1      313430           0
</event>
<event>
      5   9999  3.79277E-02  2.87975E+01 -1.00000E+00  1.54284E-01
      21    -1     0     0   502   501  0.000000000E+00  0.000000000E+00  3.014453012E+02  3.014453012E+02  0.000000000E+00  0.00000E+00  9.000E+00
      21    -1     0     0   501   511  0.000000000E+00  0.000000000E+00 -1.031716029E+03  1.031716029E+03  0.000000000E+00  0.00000E+00  9.000E+00
      25     1     1     2     0     0 -1.668636863E+02 -7.666985862E+01  1.916674639E+02  2.933993418E+02  1.250000000E+02  0.00000E+00  9.000E+00
      25     1     1     2     0     0  1.419331691E+02  9.108401935E+01 -1.291840560E+02  2.464849760E+02  1.250000000E+02  0.00000E+00  9.000E+00
      21     1     1     2   502   511  2.493051729E+01 -1.441416074E+01 -7.927541359E+02  7.932770126E+02  1.078959322E-05  0.00000E+00  9.000E+00
#rwgt            1           1   4.0307921234280127E-002           1      313712           0
</event>
<event>
      5   9999  3.79277E-02  6.43943E+01 -1.00000E+00  1.33083E-01
      21    -1     0     0   502   501  0.000000000E+00  0.000000000E+00  5.861561111E+02  5.861561111E+02  0.000000000E+00  0.00000E+00  9.000E+00
      21    -1     0     0   501   512  0.000000000E+00  0.000000000E+00 -1.467576425E+02  1.467576425E+02  0.000000000E+00  0.00000E+00  9.000E+00
      25     1     1     2     0     0 -1.181662903E+02 -9.004894386E+01  2.386017912E+02  3.076164807E+02  1.250000000E+02  0.00000E+00  9.000E+00
      25     1     1     2     0     0  1.511486601E+02  3.474264859E+01  2.668846595E+02  3.330246096E+02  1.250000000E+02  0.00000E+00  9.000E+00
      21     1     1     2   502   512 -3.298236981E+01  5.530629527E+01 -6.608798210E+01  9.227266330E+01  2.336015456E-06  0.00000E+00  9.000E+00
#rwgt            1           1   1.6829754949030461E-002           1      313886           0
</event>
<event>
      5   9999  3.79277E-02  1.34884E+02 -1.00000E+00  1.18252E-01
      21    -1     0     0   511   501  0.000000000E+00  0.000000000E+00  2.064123977E+02  2.064123977E+02  0.000000000E+00  0.00000E+00  9.000E+00
      21    -1     0     0   501   502  0.000000000E+00  0.000000000E+00 -1.141367166E+03  1.141367166E+03  0.000000000E+00  0.00000E+00  9.000E+00
      25     1     1     2     0     0 -1.903632954E+02  6.089595868E+01 -8.033585059E+02  8.372313844E+02  1.250000000E+02  0.00000E+00  9.000E+00
      25     1     1     2     0     0  1.852002994E+02 -1.956810921E+02 -2.012206264E+02  3.587547647E+02  1.250000000E+02  0.00000E+00  9.000E+00
      21     1     1     2   511   502  5.162996023E+00  1.347851335E+02  6.962436384E+01  1.517934148E+02  2.523185073E-06  0.00000E+00  9.000E+00
#rwgt            1           1   3.9230464913602048E-002           1      313987           0
</event>
<event>
      5   9999  3.79277E-02  1.57621E+01 -1.00000E+00  1.75380E-01
      21    -1     0     0   502   501  0.000000000E+00  0.000000000E+00  8.549202872E+02  8.549202872E+02  0.000000000E+00  0.00000E+00  9.000E+00
      21    -1     0     0   501   512  0.000000000E+00  0.000000000E+00 -1.161927250E+02  1.161927250E+02  0.000000000E+00  0.00000E+00  9.000E+00
      25     1     1     2     0     0 -1.093949819E+02  1.282778531E+02  3.462781772E+02  4.049148623E+02  1.250000000E+02  0.00000E+00  9.000E+00
      25     1     1     2     0     0  1.073322239E+02 -1.439044055E+02  4.533084126E+02  5.033311048E+02  1.250000000E+02  0.00000E+00  9.000E+00
      21     1     1     2   502   512  2.062758030E+00  1.562655235E+01 -6.085902763E+01  6.286704505E+01  1.784161275E-06  0.00000E+00  9.000E+00
#rwgt            1           1   3.8950416836012219E-002           1      314111           0
</event>
<event>
      5   9999  3.79277E-02  6.14786E+01 -1.00000E+00  1.34141E-01
      21    -1     0     0   502   501  0.000000000E+00  0.000000000E+00  3.736863012E+02  3.736863012E+02  0.000000000E+00  0.00000E+00  9.000E+00
       2    -1     0     0   501     0  0.000000000E+00  0.000000000E+00 -1.090031676E+03  1.090031676E+03  0.000000000E+00  0.00000E+00  9.000E+00
      25     1     1     2     0     0  1.312351473E+02  9.402172042E+01 -4.011493821E+01  2.080792062E+02  1.250000000E+02  0.00000E+00  9.000E+00
      25     1     1     2     0     0 -1.372637264E+02 -3.283943144E+01  2.579130608E+02  3.194744211E+02  1.250000000E+02  0.00000E+00  9.000E+00
       2     1     1     2   502     0  6.028579130E+00 -6.118228898E+01 -9.341434971E+02  9.361643496E+02  1.525878906E-05  0.00000E+00  9.000E+00
#rwgt            1           1   2.8333931538418646E-002           1      314430           0
</event>
<event>
      5   9999  3.79277E-02  2.22922E+02 -1.00000E+00  1.09959E-01
      21    -1     0     0   511   501  0.000000000E+00  0.000000000E+00  1.568799088E+02  1.568799088E+02  0.000000000E+00  0.00000E+00  9.000E+00
      21    -1     0     0   501   502  0.000000000E+00  0.000000000E+00 -2.478236069E+03  2.478236069E+03  0.000000000E+00  0.00000E+00  9.000E+00
      25     1     1     2     0     0 -1.505587117E+02 -7.390224912E+00 -1.322296441E+03  1.336718153E+03  1.250000000E+02  0.00000E+00  9.000E+00
      25     1     1     2     0     0  1.801897113E+02 -2.135537343E+02 -1.028917753E+03  1.073485106E+03  1.250000000E+02  0.00000E+00  9.000E+00
      21     1     1     2   511   502 -2.963099956E+01  2.209439592E+02  2.985803401E+01  2.249127196E+02  4.370284743E-06  0.00000E+00  9.000E+00
#rwgt            2          11   1.2747173684003431E-002           1      314652           0
</event>
<event>
      5   9999  3.79277E-02  1.89998E+01 -1.00000E+00  1.68229E-01
      21    -1     0     0   502   512  0.000000000E+00  0.000000000E+00  4.703464688E+02  4.703464688E+02  0.000000000E+00  0.00000E+00  9.000E+00
      21    -1     0     0   501   502  0.000000000E+00  0.000000000E+00 -1.706044801E+02  1.706044801E+02  0.000000000E+00  0.00000E+00  9.000E+00
      25     1     1     2     0     0 -1.444103726E+01  7.278988292E+01 -3.225804800E+01  1.489043058E+02  1.250000000E+02  0.00000E+00  9.000E+00
      25     1     1     2     0     0  1.530268334E+01 -9.177017253E+01 -3.643271889E+00  1.558660005E+02  1.250000000E+02  0.00000E+00  9.000E+00
      21     1     1     2   501   512 -8.616460784E-01  1.898028961E+01  3.356433086E+02  3.361806426E+02  3.814697266E-06  0.00000E+00  9.000E+00
#rwgt            1           1   2.1931997480256590E-002           1      314672           0
</event>
<event>
      5   9999  3.79277E-02  2.20039E+01 -1.00000E+00  1.63019E-01
      -4    -1     0     0     0   501  0.000000000E+00  0.000000000E+00  1.517510000E+02  1.517510000E+02  0.000000000E+00  0.00000E+00  9.000E+00
      21    -1     0     0   501   502  0.000000000E+00  0.000000000E+00 -7.843475423E+02  7.843475423E+02  0.000000000E+00  0.00000E+00  9.000E+00
      25     1     1     2     0     0  1.926479724E+02  1.722687965E+02 -2.752901434E+02  3.977429353E+02  1.250000000E+02  0.00000E+00  9.000E+00
      25     1     1     2     0     0 -1.912913367E+02 -1.942308045E+02 -3.942506921E+02  4.953550132E+02  1.250000000E+02  0.00000E+00  9.000E+00
      -4     1     1     2     0   502 -1.356635690E+00  2.196200802E+01  3.694429321E+01  4.300059369E+01  4.768371582E-07  0.00000E+00  9.000E+00
#rwgt            1           1   3.7938700620035785E-002           1      314913           0
</event>
<event>
      5   9999  3.79277E-02  7.92751E+01 -1.00000E+00  1.28541E-01
      21    -1     0     0   502   501  0.000000000E+00  0.000000000E+00  1.221455950E+02  1.221455950E+02  0.000000000E+00  0.00000E+00  9.000E+00
      21    -1     0     0   501   511  0.000000000E+00  0.000000000E+00 -7.981556127E+02  7.981556127E+02  0.000000000E+00  0.00000E+00  9.000E+00
      25     1     1     2     0     0 -1.055745635E+02 -1.420543551E+02 -2.057904120E+01  2.176555196E+02  1.250000000E+02  0.00000E+00  9.000E+00
      25     1     1     2     0     0  9.701572157E+01  6.324264555E+01 -3.893428514E+02  4.249994569E+02  1.250000000E+02  0.00000E+00  9.000E+00
      21     1     1     2   502   511  8.558841969E+00  7.881170959E+01 -2.660881251E+02  2.776462311E+02  3.814697266E-06  0.00000E+00  9.000E+00
#rwgt            1           1   4.8574425353118268E-002           1      315122           0
</event>
<event>
      5   9999  3.79277E-02  3.82645E+01 -1.00000E+00  1.46045E-01
      21    -1     0     0   502   501  0.000000000E+00  0.000000000E+00  1.071922698E+03  1.071922698E+03  0.000000000E+00  0.00000E+00  9.000E+00
      21    -1     0     0   501   512  0.000000000E+00  0.000000000E+00 -1.364655832E+02  1.364655832E+02  0.000000000E+00  0.00000E+00  9.000E+00
      25     1     1     2     0     0 -2.473433874E+02  8.194588296E+01  2.638414061E+02  3.913197754E+02  1.250000000E+02  0.00000E+00  9.000E+00
      25     1     1     2     0     0  2.149385830E+02 -6.159643622E+01  7.148338490E+02  7.593452094E+02  1.250000000E+02  0.00000E+00  9.000E+00
      21     1     1     2   502   512  3.240480432E+01 -2.034944673E+01 -4.321814022E+01  5.772329659E+01  2.236564522E-06  0.00000E+00  9.000E+00
#rwgt            1           1   3.2028840641600505E-002           1      315196           0
</event>
<event>
      5   9999  3.79277E-02  9.18196E+01 -1.00000E+00  1.25518E-01
      21    -1     0     0   502   501  0.000000000E+00  0.000000000E+00  2.745481317E+03  2.745481317E+03  0.000000000E+00  0.00000E+00  9.000E+00
      21    -1     0     0   511   502  0.000000000E+00  0.000000000E+00 -4.132469096E+01  4.132469096E+01  0.000000000E+00  0.00000E+00  9.000E+00
      25     1     1     2     0     0  2.154655514E+02  4.174099109E+01  5.074891333E+02  5.668667697E+02  1.250000000E+02  0.00000E+00  9.000E+00
      25     1     1     2     0     0 -1.488209746E+02  2.142022219E+01  1.882548776E+03  1.892675726E+03  1.250000000E+02  0.00000E+00  9.000E+00
      21     1     1     2   511   501 -6.664457679E+01 -6.316121327E+01  3.141187165E+02  3.272635123E+02  3.814697266E-06  0.00000E+00  9.000E+00
#rwgt            1           1   8.8381292003875733E-002           1      315360           0
</event>
<event>
      5   9999  3.79277E-02  2.31503E+01 -1.00000E+00  1.61293E-01
      -2    -1     0     0     0   501  0.000000000E+00  0.000000000E+00  1.702069527E+03  1.702069527E+03  0.000000000E+00  0.00000E+00  9.000E+00
      21    -1     0     0   501   502  0.000000000E+00  0.000000000E+00 -5.284813732E+01  5.284813732E+01  0.000000000E+00  0.00000E+00  9.000E+00
      25     1     1     2     0     0  1.615571047E+02  4.525318266E+01  2.590974564E+02  3.330240841E+02  1.250000000E+02  0.00000E+00  9.000E+00
      25     1     1     2     0     0 -1.536934636E+02 -2.347932906E+01  6.175527688E+02  6.489756405E+02  1.250000000E+02  0.00000E+00  9.000E+00
      -2     1     1     2     0   502 -7.863641116E+00 -2.177385360E+01  7.725711640E+02  7.729179394E+02  1.525878906E-05  0.00000E+00  9.000E+00
#rwgt            1           1   7.6614067771867286E-002           1      315499           0
</event>
<event>
      5   9999  3.79277E-02  2.08421E+01 -1.00000E+00  1.64905E-01
      21    -1     0     0   502   501  0.000000000E+00  0.000000000E+00  9.811183827E+02  9.811183827E+02  0.000000000E+00  0.00000E+00  9.000E+00
      21    -1     0     0   501   511  0.000000000E+00  0.000000000E+00 -8.188953216E+01  8.188953216E+01  0.000000000E+00  0.00000E+00  9.000E+00
      25     1     1     2     0     0 -1.770929842E+02  1.010398973E+02  3.800163594E+02  4.490082620E+02  1.250000000E+02  0.00000E+00  9.000E+00
      25     1     1     2     0     0  1.911292587E+02 -1.164469074E+02  5.312964963E+02  5.899078256E+02  1.250000000E+02  0.00000E+00  9.000E+00
      21     1     1     2   502   511 -1.403627449E+01  1.540701011E+01 -1.208400513E+01  2.409182728E+01  3.371747881E-07  0.00000E+00  9.000E+00
#rwgt            1           1   3.2048415003869180E-002           1      315634           0
</event>
<event>
      5   9999  3.79277E-02  2.26771E+01 -1.00000E+00  1.61990E-01
      21    -1     0     0   502   501  0.000000000E+00  0.000000000E+00  9.147993008E+02  9.147993008E+02  0.000000000E+00  0.00000E+00  9.000E+00
      21    -1     0     0   512   502  0.000000000E+00  0.000000000E+00 -8.305566787E+01  8.305566787E+01  0.000000000E+00  0.00000E+00  9.000E+00
      25     1     1     2     0     0  1.222688373E+01  9.829648239E+01  2.763445283E+01  1.618652468E+02  1.250000000E+02  0.00000E+00  9.000E+00
      25     1     1     2     0     0 -1.595150113E+01 -1.206656171E+02  7.905387423E+02  8.095623167E+02  1.250000000E+02  0.00000E+00  9.000E+00
      21     1     1     2   512   501  3.724617405E+00  2.236913469E+01  1.357043775E+01  2.642740514E+01  2.920019320E-07  0.00000E+00  9.000E+00
#rwgt            1           1   5.2655797711269763E-002           1      315841           0
</event>
<event>
      5   9999  3.79277E-02  3.82526E+01 -1.00000E+00  1.46054E-01
      21    -1     0     0   502   511  0.000000000E+00  0.000000000E+00  1.699109613E+02  1.699109613E+02  0.000000000E+00  0.00000E+00  9.000E+00
      21    -1     0     0   501   502  0.000000000E+00  0.000000000E+00 -2.968088716E+02  2.968088716E+02  0.000000000E+00  0.00000E+00  9.000E+00
      25     1     1     2     0     0  8.419066771E+01 -4.499630324E+01 -2.121038244E+02  2.640563731E+02  1.250000000E+02  0.00000E+00  9.000E+00
      25     1     1     2     0     0 -7.266061757E+01  8.522715983E+00  5.952562083E+01  1.565902346E+02  1.250000000E+02  0.00000E+00  9.000E+00
      21     1     1     2   501   511 -1.153005014E+01  3.647358725E+01  2.568029332E+01  4.607322529E+01  4.768371582E-07  0.00000E+00  9.000E+00
#rwgt            1           1   4.0788991405074158E-002           1      316009           0
</event>
<event>
      5   9999  3.79277E-02  1.07446E+02 -1.00000E+00  1.22441E-01
      -5    -1     0     0     0   501  0.000000000E+00  0.000000000E+00  3.311309647E+02  3.311309647E+02  0.000000000E+00  0.00000E+00  9.000E+00
      21    -1     0     0   501   502  0.000000000E+00  0.000000000E+00 -7.160903607E+02  7.160903607E+02  0.000000000E+00  0.00000E+00  9.000E+00
      25     1     1     2     0     0  1.594670536E+02  1.084431857E+02 -4.600089849E+02  5.142207035E+02  1.250000000E+02  0.00000E+00  9.000E+00
      25     1     1     2     0     0 -1.046024998E+02 -1.606073740E+01 -1.877123323E+02  2.491195495E+02  1.250000000E+02  0.00000E+00  9.000E+00
      -5     1     1     2     0   502 -5.486455379E+01 -9.238244828E+01  2.627619212E+02  2.838810724E+02  5.394796609E-06  0.00000E+00  9.000E+00
#rwgt            1           1   3.8515664119309477E-002           1      316164           0
</event>
<event>
      5   9999  3.79277E-02  6.04895E+01 -1.00000E+00  1.34515E-01
      21    -1     0     0   502   501  0.000000000E+00  0.000000000E+00  2.457621437E+02  2.457621437E+02  0.000000000E+00  0.00000E+00  9.000E+00
      21    -1     0     0   501   511  0.000000000E+00  0.000000000E+00 -2.437154299E+02  2.437154299E+02  0.000000000E+00  0.00000E+00  9.000E+00
      25     1     1     2     0     0 -1.246930884E+02  1.093830517E+02 -5.478225357E+01  2.148001714E+02  1.250000000E+02  0.00000E+00  9.000E+00
      25     1     1     2     0     0  1.542450664E+02 -5.660371998E+01  5.705923603E+01  2.141874834E+02  1.250000000E+02  0.00000E+00  9.000E+00
      21     1     1     2   502   511 -2.955197800E+01 -5.277933176E+01 -2.302686820E-01  6.048991890E+01  3.185722245E-07  0.00000E+00  9.000E+00
#rwgt            2          11   3.0904544048467324E-003           1      316199           0
</event>
<event>
      5   9999  3.79277E-02  2.10654E+01 -1.00000E+00  1.64531E-01
      21    -1     0     0   502   501  0.000000000E+00  0.000000000E+00  1.229084238E+03  1.229084238E+03  0.000000000E+00  0.00000E+00  9.000E+00
      21    -1     0     0   501   512  0.000000000E+00  0.000000000E+00 -1.129031138E+02  1.129031138E+02  0.000000000E+00  0.00000E+00  9.000E+00
      25     1     1     2     0     0 -8.684146885E+01  1.230517947E+02  6.914559658E+02  7.186233628E+02  1.250000000E+02  0.00000E+00  9.000E+00
      25     1     1     2     0     0  9.576463829E+01 -1.039696820E+02  5.056666887E+02  5.397261906E+02  1.250000000E+02  0.00000E+00  9.000E+00
      21     1     1     2   502   512 -8.923169440E+00 -1.908211271E+01 -8.094153039E+01  8.363779839E+01  2.336015456E-06  0.00000E+00  9.000E+00
#rwgt            1           1   4.2917450260781892E-002           1      316264           0
</event>
<event>
      5   9999  3.79277E-02  1.72241E+01 -1.00000E+00  1.71908E-01
      21    -1     0     0   502   501  0.000000000E+00  0.000000000E+00  1.125418449E+03  1.125418449E+03  0.000000000E+00  0.00000E+00  9.000E+00
      21    -1     0     0   501   511  0.000000000E+00  0.000000000E+00 -4.892907918E+01  4.892907918E+01  0.000000000E+00  0.00000E+00  9.000E+00
      25     1     1     2     0     0  8.780506532E+01  2.453723711E+00  9.452276210E+02  9.574946505E+02  1.250000000E+02  0.00000E+00  9.000E+00
      25     1     1     2     0     0 -8.581593542E+01  1.465510809E+01  1.287412250E+02  1.994453559E+02  1.250000000E+02  0.00000E+00  9.000E+00
      21     1     1     2   502   511 -1.989129899E+00 -1.710883180E+01  2.520523446E+00  1.740752141E+01  1.884864366E-07  0.00000E+00  9.000E+00
#rwgt            1           1   3.8894751592494767E-002           1      316386           0
</event>
<event>
      5   9999  3.79277E-02  3.03659E+02 -1.00000E+00  1.05421E-01
      21    -1     0     0   502   501  0.000000000E+00  0.000000000E+00  6.301183522E+02  6.301183522E+02  0.000000000E+00  0.00000E+00  9.000E+00
      21    -1     0     0   501   512  0.000000000E+00  0.000000000E+00 -1.317938951E+03  1.317938951E+03  0.000000000E+00  0.00000E+00  9.000E+00
      25     1     1     2     0     0  5.544534749E+01  4.305998395E+01  2.366124678E+02  2.766564814E+02  1.250000000E+02  0.00000E+00  9.000E+00
      25     1     1     2     0     0 -1.983808700E+02  2.248546443E+02  2.802444933E+02  4.290414394E+02  1.250000000E+02  0.00000E+00  9.000E+00
      21     1     1     2   502   512  1.429355225E+02 -2.679146283E+02 -1.204677560E+03  1.242359382E+03  2.642899792E-05  0.00000E+00  9.000E+00
#rwgt            2          11   8.8876195359659897E-003           1      316627           0
</event>
<event>
      5   9999  3.79277E-02  3.29820E+01 -1.00000E+00  1.50235E-01
      21    -1     0     0   502   501  0.000000000E+00  0.000000000E+00  1.238869000E+03  1.238869000E+03  0.000000000E+00  0.00000E+00  9.000E+00
       1    -1     0     0   501     0  0.000000000E+00  0.000000000E+00 -3.022347944E+02  3.022347944E+02  0.000000000E+00  0.00000E+00  9.000E+00
      25     1     1     2     0     0 -1.074620942E+02  1.923221317E+02  1.200765985E+02  2.803199842E+02  1.250000000E+02  0.00000E+00  9.000E+00
      25     1     1     2     0     0  7.455101400E+01 -1.901607998E+02  1.023545462E+03  1.051184711E+03  1.250000000E+02  0.00000E+00  9.000E+00
       1     1     1     2   502     0  3.291108016E+01 -2.161331892E+00 -2.069878547E+02  2.095990996E+02  3.814697266E-06  0.00000E+00  9.000E+00
#rwgt            1           1   4.4851293762556352E-002           1      316677           0
</event>
<event>
      5   9999  3.79277E-02  6.75999E+01 -1.00000E+00  1.31993E-01
      21    -1     0     0   502   501  0.000000000E+00  0.000000000E+00  1.419915660E+02  1.419915660E+02  0.000000000E+00  0.00000E+00  9.000E+00
      21    -1     0     0   501   511  0.000000000E+00  0.000000000E+00 -4.295558441E+02  4.295558441E+02  0.000000000E+00  0.00000E+00  9.000E+00
      25     1     1     2     0     0  8.971158216E+01  1.528087591E+02 -3.712536836E+01  2.200044950E+02  1.250000000E+02  0.00000E+00  9.000E+00
      25     1     1     2     0     0 -2.802499681E+01 -1.251589778E+02 -1.805073277E+02  2.542795027E+02  1.250000000E+02  0.00000E+00  9.000E+00
      21     1     1     2   502   511 -6.168658535E+01 -2.764978128E+01 -6.993158213E+01  9.726341242E+01  0.000000000E+00  0.00000E+00  9.000E+00
#rwgt            1           1   4.2168526616890058E-002           1      316816           0
</event>
<event>
      5   9999  3.79277E-02  1.70374E+01 -1.00000E+00  1.72327E-01
      21    -1     0     0   502   501  0.000000000E+00  0.000000000E+00  1.906335100E+02  1.906335100E+02  0.000000000E+00  0.00000E+00  9.000E+00
      21    -1     0     0   512   502  0.000000000E+00  0.000000000E+00 -6.172962036E+02  6.172962036E+02  0.000000000E+00  0.00000E+00  9.000E+00
      25     1     1     2     0     0  2.719931138E+02  5.108802875E+01 -1.047542753E+02  3.212299781E+02  1.250000000E+02  0.00000E+00  9.000E+00
      25     1     1     2     0     0 -2.851792270E+02 -4.029919342E+01 -2.199947247E+02  3.833717458E+02  1.250000000E+02  0.00000E+00  9.000E+00
      21     1     1     2   512   501  1.318611325E+01 -1.078883533E+01 -1.019136935E+02  1.033279898E+02  2.336015456E-06  0.00000E+00  9.000E+00
#rwgt            1           1   3.2926618713369625E-002           1      316948           0
</event>
<event>
      5   9999  3.79277E-02  1.33574E+02 -1.00000E+00  1.18425E-01
       2    -1     0     0   502     0  0.000000000E+00  0.000000000E+00  2.006920347E+03  2.006920347E+03  0.000000000E+00  0.00000E+00  9.000E+00
      21    -1     0     0   501   502  0.000000000E+00  0.000000000E+00 -6.197142421E+01  6.197142421E+01  0.000000000E+00  0.00000E+00  9.000E+00
      25     1     1     2     0     0  3.132131321E+01  2.069039397E+02  6.008853282E+02  6.484430912E+02  1.250000000E+02  0.00000E+00  9.000E+00
      25     1     1     2     0     0  1.020586053E+02 -1.997028473E+02  4.639480236E+02  5.302546131E+02  1.250000000E+02  0.00000E+00  9.000E+00
       2     1     1     2   501     0 -1.333799185E+02 -7.201092447E+00  8.801155711E+02  8.901940670E+02  1.078959322E-05  0.00000E+00  9.000E+00
#rwgt            1           1   8.7213290289475151E-002           1      317196           0
</event>
<event>
      5   9999  3.79277E-02  2.18523E+02 -1.00000E+00  1.10265E-01
      21    -1     0     0   502   501  0.000000000E+00  0.000000000E+00  2.150203197E+02  2.150203197E+02  0.000000000E+00  0.00000E+00  9.000E+00
      21    -1     0     0   501   511  0.000000000E+00  0.000000000E+00 -1.951617032E+03  1.951617032E+03  0.000000000E+00  0.00000E+00  9.000E+00
      25     1     1     2     0     0  2.083736491E+02 -2.298080231E+02  2.543851736E+01  3.354152997E+02  1.250000000E+02  0.00000E+00  9.000E+00
      25     1     1     2     0     0  9.472008923E+00  2.126104729E+02 -1.255976822E+03  1.279998324E+03  1.250000000E+02  0.00000E+00  9.000E+00
      21     1     1     2   502   511 -2.178456580E+02  1.719755016E+01 -5.060584085E+02  5.512237289E+02  7.629394531E-06  0.00000E+00  9.000E+00
#rwgt            2          11   8.1765179336595779E-003           1      317246           0
</event>
<event>
      5   9999  3.79277E-02  1.67389E+01 -1.00000E+00  1.73010E-01
       2    -1     0     0   502     0  0.000000000E+00  0.000000000E+00  1.058409055E+03  1.058409055E+03  0.000000000E+00  0.00000E+00  9.000E+00
      21    -1     0     0   501   502  0.000000000E+00  0.000000000E+00 -5.354435062E+02  5.354435062E+02  0.000000000E+00  0.00000E+00  9.000E+00
      25     1     1     2     0     0  8.541481653E+01  2.026074234E+02 -3.131197615E+02  4.025101787E+02  1.250000000E+02  0.00000E+00  9.000E+00
      25     1     1     2     0     0 -7.011020736E+01 -2.093867999E+02 -8.689887289E+01  2.682064266E+02  1.250000000E+02  0.00000E+00  9.000E+00
       2     1     1     2   501     0 -1.530460916E+01  6.779376451E+00  9.229841829E+02  9.231359558E+02  1.078959322E-05  0.00000E+00  9.000E+00
#rwgt            1           1   4.1685028744910722E-002           1      317356           0
</event>
<event>
      5   9999  3.79277E-02  4.71406E+01 -1.00000E+00  1.40551E-01
      21    -1     0     0   502   501  0.000000000E+00  0.000000000E+00  2.805945875E+02  2.805945875E+02  0.000000000E+00  0.00000E+00  9.000E+00
      21    -1     0     0   501   511  0.000000000E+00  0.000000000E+00 -1.165880648E+03  1.165880648E+03  0.000000000E+00  0.00000E+00  9.000E+00
      25     1     1     2     0     0 -3.304774557E+02  2.108584494E+02  1.619788527E+01  4.117815026E+02  1.250000000E+02  0.00000E+00  9.000E+00
      25     1     1     2     0     0  3.691891496E+02 -2.377590006E+02 -8.501942254E+02  9.650311868E+02  1.250000000E+02  0.00000E+00  9.000E+00
      21     1     1     2   502   511 -3.871169396E+01  2.690055121E+01 -5.128972030E+01  6.966254599E+01  0.000000000E+00  0.00000E+00  9.000E+00
#rwgt            1           1   6.4597527358857237E-002           1      317551           0
</event>
<event>
      5   9999  3.86035E-02  7.59389E+00 -1.00000E+00  2.10673E-01
      21    -1     0     0   502   512  0.000000000E+00  0.000000000E+00  2.031594504E+01  2.031594504E+01  0.000000000E+00  0.00000E+00  9.000E+00
      21    -1     0     0   501   502  0.000000000E+00  0.000000000E+00 -1.750245092E+03  1.750245092E+03  0.000000000E+00  0.00000E+00  9.000E+00
      25     1     1     2     0     0  4.479294127E+01 -7.735959847E+01 -1.312319741E+03  1.321286880E+03  1.250000000E+02  0.00000E+00  9.000E+00
      25     1     1     2     0     0 -5.216955398E+01  7.916314062E+01 -4.072923844E+02  4.364636887E+02  1.250000000E+02  0.00000E+00  9.000E+00
      21     1     1     2   501   512  7.376612709E+00 -1.803542144E+00 -1.031702145E+01  1.281046880E+01  3.153981341E-07  0.00000E+00  9.000E+00
#rwgt            1           1  0.18738270218311154                1      317824           0
</event>
<event>
      5   9999  3.79277E-02  5.92093E+01 -1.00000E+00  1.35012E-01
      21    -1     0     0   511   501  0.000000000E+00  0.000000000E+00  1.717425955E+02  1.717425955E+02  0.000000000E+00  0.00000E+00  9.000E+00
      21    -1     0     0   501   502  0.000000000E+00  0.000000000E+00 -3.121151376E+02  3.121151376E+02  0.000000000E+00  0.00000E+00  9.000E+00
      25     1     1     2     0     0 -7.604819125E+01  2.624645252E+01 -2.210886368E+02  2.664158197E+02  1.250000000E+02  0.00000E+00  9.000E+00
      25     1     1     2     0     0  1.968561986E+01 -8.107902863E+00  9.264946044E+01  1.570419824E+02  1.250000000E+02  0.00000E+00  9.000E+00
      21     1     1     2   511   502  5.636257139E+01 -1.813854965E+01 -1.193336573E+01  6.039993092E+01  9.830249847E-07  0.00000E+00  9.000E+00
#rwgt            2          11   2.4969961206741664E-003           1      318390           0
</event>
<event>
      5   9999  3.79277E-02  1.19094E+02 -1.00000E+00  1.20508E-01
      21    -1     0     0   502   512  0.000000000E+00  0.000000000E+00  1.182544948E+02  1.182544948E+02  0.000000000E+00  0.00000E+00  9.000E+00
      21    -1     0     0   501   502  0.000000000E+00  0.000000000E+00 -9.101416173E+02  9.101416173E+02  0.000000000E+00  0.00000E+00  9.000E+00
      25     1     1     2     0     0  5.312338869E+01  2.554446349E+02 -2.704822667E+02  3.960551887E+02  1.250000000E+02  0.00000E+00  9.000E+00
      25     1     1     2     0     0  1.605461845E+01 -1.585022316E+02 -4.500452953E+02  4.935042817E+02  1.250000000E+02  0.00000E+00  9.000E+00
      21     1     1     2   501   512 -6.917800715E+01 -9.694240323E+01 -7.135956054E+01  1.388366418E+02  1.651812370E-06  0.00000E+00  9.000E+00
#rwgt            1           1   3.0878717203813331E-002           1      318560           0
</event>
<event>
      5   9999  3.79277E-02  2.81228E+01 -1.00000E+00  1.55015E-01
      -5    -1     0     0     0   501  0.000000000E+00  0.000000000E+00  3.384841664E+02  3.384841664E+02  0.000000000E+00  0.00000E+00  9.000E+00
      21    -1     0     0   501   502  0.000000000E+00  0.000000000E+00 -1.980692996E+02  1.980692996E+02  0.000000000E+00  0.00000E+00  9.000E+00
      25     1     1     2     0     0  7.675048111E+01 -6.016766177E+01 -3.841260648E+01  1.631297404E+02  1.250000000E+02  0.00000E+00  9.000E+00
      25     1     1     2     0     0 -5.054184683E+01  7.036562378E+01 -3.638637447E+01  1.563802019E+02  1.250000000E+02  0.00000E+00  9.000E+00
      -5     1     1     2     0   502 -2.620863428E+01 -1.019796201E+01  2.152138478E+02  2.170435238E+02  3.814697266E-06  0.00000E+00  9.000E+00
#rwgt            1           1   3.7984600931246525E-002           1      318649           0
</event>
<event>
      5   9999  3.79277E-02  1.24686E+02 -1.00000E+00  1.19666E-01
      21    -1     0     0   511   501  0.000000000E+00  0.000000000E+00  4.230066953E+01  4.230066953E+01  0.000000000E+00  0.00000E+00  9.000E+00
      21    -1     0     0   501   502  0.000000000E+00  0.000000000E+00 -1.793560092E+03  1.793560092E+03  0.000000000E+00  0.00000E+00  9.000E+00
      25     1     1     2     0     0  8.200966177E+01 -8.165062285E+01 -4.814682170E+02  5.107142575E+02  1.250000000E+02  0.00000E+00  9.000E+00
      25     1     1     2     0     0 -1.158112323E+02 -3.836670427E+01 -1.103837091E+03  1.117571281E+03  1.250000000E+02  0.00000E+00  9.000E+00
      21     1     1     2   511   502  3.380157052E+01  1.200173271E+02 -1.659541149E+02  2.075752231E+02  3.303624740E-06  0.00000E+00  9.000E+00
#rwgt            1           1   4.2990141171722909E-002           1      318853           0
</event>
<event>
      5   9999  3.79277E-02  5.94451E+01 -1.00000E+00  1.34919E-01
      21    -1     0     0   502   512  0.000000000E+00  0.000000000E+00  1.534109133E+03  1.534109133E+03  0.000000000E+00  0.00000E+00  9.000E+00
      21    -1     0     0   501   502  0.000000000E+00  0.000000000E+00 -9.438630589E+01  9.438630589E+01  0.000000000E+00  0.00000E+00  9.000E+00
      25     1     1     2     0     0 -1.171881881E+02 -1.028638945E+02  1.227710490E+02  2.345459075E+02  1.250000000E+02  0.00000E+00  9.000E+00
      25     1     1     2     0     0  1.766329337E+02  1.030645611E+02  3.444550821E+02  4.196377016E+02  1.250000000E+02  0.00000E+00  9.000E+00
      21     1     1     2   501   512 -5.944474559E+01 -2.006666179E-01  9.724966955E+02  9.743118294E+02  1.868812365E-05  0.00000E+00  9.000E+00
#rwgt            1           1   3.8199870906071923E-002           1      318960           0
</event>
<event>
      5   9999  3.79277E-02  2.64860E+02 -1.00000E+00  1.07380E-01
      21    -1     0     0   502   501  0.000000000E+00  0.000000000E+00  1.111970710E+02  1.111970710E+02  0.000000000E+00  0.00000E+00  9.000E+00
      -1    -1     0     0     0   502  0.000000000E+00  0.000000000E+00 -1.617748459E+03  1.617748459E+03  0.000000000E+00  0.00000E+00  9.000E+00
      25     1     1     2     0     0 -9.511351572E+01  3.866837488E+00 -6.933937975E+01  1.717395787E+02  1.250000000E+02  0.00000E+00  9.000E+00
      25     1     1     2     0     0  1.642662972E+02  2.518063437E+02 -6.568518897E+02  7.331229475E+02  1.250000000E+02  0.00000E+00  9.000E+00
      -1     1     1     2     0   501 -6.915278151E+01 -2.556731811E+02 -7.803601190E+02  8.240830043E+02  1.525878906E-05  0.00000E+00  9.000E+00
#rwgt            1           1   3.7836116616645717E-002           1      319185           0
</event>
<event>
      5   9999  3.79277E-02  1.10656E+01 -1.00000E+00  1.90807E-01
      21    -1     0     0   502   501  0.000000000E+00  0.000000000E+00  5.070651589E+02  5.070651589E+02  0.000000000E+00  0.00000E+00  9.000E+00
      21    -1     0     0   511   502  0.000000000E+00  0.000000000E+00 -1.053832883E+02  1.053832883E+02  0.000000000E+00  0.00000E+00  9.000E+00
      25     1     1     2     0     0  1.636645731E+02 -4.471935550E+01  2.053816702E+02  2.942661104E+02  1.250000000E+02  0.00000E+00  9.000E+00
      25     1     1     2     0     0 -1.528547952E+02  4.708490893E+01  2.154811543E+02  2.960383505E+02  1.250000000E+02  0.00000E+00  9.000E+00
      21     1     1     2   511   501 -1.080977788E+01 -2.365553431E+00 -1.918095389E+01  2.214398639E+01  5.840038640E-07  0.00000E+00  9.000E+00
#rwgt            1           1   4.8994196958104294E-002           1      319212           0
</event>
<event>
      5   9999  3.79277E-02  7.28651E+01 -1.00000E+00  1.30344E-01
      21    -1     0     0   502   501  0.000000000E+00  0.000000000E+00  1.800475909E+02  1.800475909E+02  0.000000000E+00  0.00000E+00  9.000E+00
      21    -1     0     0   512   502  0.000000000E+00  0.000000000E+00 -5.519793701E+02  5.519793701E+02  0.000000000E+00  0.00000E+00  9.000E+00
      25     1     1     2     0     0  1.660668064E+02 -1.398098102E+02 -1.818000555E+01  2.511582765E+02  1.250000000E+02  0.00000E+00  9.000E+00
      25     1     1     2     0     0 -1.829217414E+02  6.892088198E+01 -1.839605363E+02  2.961029050E+02  1.250000000E+02  0.00000E+00  9.000E+00
      21     1     1     2   512   501  1.685493501E+01  7.088892826E+01 -1.697912374E+02  1.847657795E+02  3.303624740E-06  0.00000E+00  9.000E+00
#rwgt            1           1   4.2128216550348999E-002           1      319531           0
</event>
<event>
      5   9999  3.79277E-02  9.67974E+01 -1.00000E+00  1.24467E-01
      21    -1     0     0   502   501  0.000000000E+00  0.000000000E+00  3.231480263E+02  3.231480263E+02  0.000000000E+00  0.00000E+00  9.000E+00
       1    -1     0     0   501     0  0.000000000E+00  0.000000000E+00 -1.516406370E+03  1.516406370E+03  0.000000000E+00  0.00000E+00  9.000E+00
      25     1     1     2     0     0  2.728169439E+02 -3.422574809E+02 -7.870617900E+02  9.092087381E+02  1.250000000E+02  0.00000E+00  9.000E+00
      25     1     1     2     0     0 -2.878447529E+02  4.378812495E+02 -2.744332688E+01  5.394188786E+02  1.250000000E+02  0.00000E+00  9.000E+00
       1     1     1     2   502     0  1.502780902E+01 -9.562376853E+01 -3.787532267E+02  3.909267795E+02  7.629394531E-06  0.00000E+00  9.000E+00
#rwgt            1           1   5.2578131492805637E-002           1      319695           0
</event>
<event>
      5   9999  3.79277E-02  2.54821E+01 -1.00000E+00  1.58132E-01
      21    -1     0     0   502   501  0.000000000E+00  0.000000000E+00  3.772702270E+02  3.772702270E+02  0.000000000E+00  0.00000E+00  9.000E+00
      21    -1     0     0   511   502  0.000000000E+00  0.000000000E+00 -1.199672998E+02  1.199672998E+02  0.000000000E+00  0.00000E+00  9.000E+00
      25     1     1     2     0     0  2.591339363E+01 -9.324961965E+01 -1.326966645E+01  1.586445069E+02  1.250000000E+02  0.00000E+00  9.000E+00
      25     1     1     2     0     0 -4.880611237E+01  1.044417236E+02  2.607217225E+02  3.112730743E+02  1.250000000E+02  0.00000E+00  9.000E+00
      21     1     1     2   511   501  2.289271874E+01 -1.119210398E+01  9.850871164E+00  2.731994556E+01  2.920019320E-07  0.00000E+00  9.000E+00
#rwgt            1           1   4.7076944910223427E-002           1      319857           0
</event>
<event>
      5   9999  3.79277E-02  6.88511E+01 -1.00000E+00  1.31586E-01
      21    -1     0     0   502   501  0.000000000E+00  0.000000000E+00  3.735887727E+02  3.735887727E+02  0.000000000E+00  0.00000E+00  9.000E+00
       2    -1     0     0   501     0  0.000000000E+00  0.000000000E+00 -1.209875613E+03  1.209875613E+03  0.000000000E+00  0.00000E+00  9.000E+00
      25     1     1     2     0     0  2.081098651E+02  1.285172523E+01  1.613255402E+02  2.917632820E+02  1.250000000E+02  0.00000E+00  9.000E+00
      25     1     1     2     0     0 -1.549995904E+02 -5.666696873E+01  7.251473892E+01  2.193613588E+02  1.250000000E+02  0.00000E+00  9.000E+00
       2     1     1     2   502     0 -5.311027477E+01  4.381524351E+01 -1.070127120E+03  1.072339745E+03  1.525878906E-05  0.00000E+00  9.000E+00
#rwgt            1           1   3.7631691570466239E-002           1      319965           0
</event>
<event>
      5   9999  3.79277E-02  8.11318E+00 -1.00000E+00  2.06876E-01
      21    -1     0     0   502   501  0.000000000E+00  0.000000000E+00  6.030513629E+01  6.030513629E+01  0.000000000E+00  0.00000E+00  9.000E+00
      21    -1     0     0   501   511  0.000000000E+00  0.000000000E+00 -6.048522217E+02  6.048522217E+02  0.000000000E+00  0.00000E+00  9.000E+00
      25     1     1     2     0     0 -2.384249263E+01  1.298498891E+02 -3.112641509E+02  3.604716769E+02  1.250000000E+02  0.00000E+00  9.000E+00
      25     1     1     2     0     0  2.800767480E+01 -1.368122874E+02 -2.189152986E+02  2.881855996E+02  1.250000000E+02  0.00000E+00  9.000E+00
      21     1     1     2   502   511 -4.165182167E+00  6.962398290E+00 -1.436763578E+01  1.650008153E+01  2.384185791E-07  0.00000E+00  9.000E+00
#rwgt            1           1   3.0100375457995866E-002           1      320172           0
</event>
<event>
      5   9999  3.79277E-02  6.89734E+00 -1.00000E+00  2.16465E-01
      21    -1     0     0   502   501  0.000000000E+00  0.000000000E+00  3.729833042E+01  3.729833042E+01  0.000000000E+00  0.00000E+00  9.000E+00
      21    -1     0     0   501   512  0.000000000E+00  0.000000000E+00 -1.111282275E+03  1.111282275E+03  0.000000000E+00  0.00000E+00  9.000E+00
      25     1     1     2     0     0  3.440082959E+01  6.957001904E+01 -1.543288231E+02  2.132270862E+02  1.250000000E+02  0.00000E+00  9.000E+00
      25     1     1     2     0     0 -3.153257174E+01 -6.329734966E+01 -6.528889640E+02  6.684982101E+02  1.250000000E+02  0.00000E+00  9.000E+00
      21     1     1     2   502   512 -2.868257841E+00 -6.272669382E+00 -2.667661579E+02  2.668553096E+02  0.000000000E+00  0.00000E+00  9.000E+00
#rwgt            1           1   4.9066076041955287E-002           1      320468           0
</event>
<event>
      5   9999  3.79277E-02  9.77558E+01 -1.00000E+00  1.24273E-01
      21    -1     0     0   502   501  0.000000000E+00  0.000000000E+00  1.027450893E+02  1.027450893E+02  0.000000000E+00  0.00000E+00  9.000E+00
      21    -1     0     0   511   502  0.000000000E+00  0.000000000E+00 -1.066705366E+03  1.066705366E+03  0.000000000E+00  0.00000E+00  9.000E+00
      25     1     1     2     0     0 -1.569639584E+01 -6.520734470E+01  1.812648504E+01  1.430102937E+02  1.250000000E+02  0.00000E+00  9.000E+00
      25     1     1     2     0     0  1.128772325E+02  7.579415436E+01 -7.850955187E+02  8.065271210E+02  1.250000000E+02  0.00000E+00  9.000E+00
      21     1     1     2   511   501 -9.718083663E+01 -1.058680966E+01 -1.969912430E+02  2.199130405E+02  3.814697266E-06  0.00000E+00  9.000E+00
#rwgt            1           1   2.7857270782755187E-002           1      320796           0
</event>
<event>
      5   9999  3.79277E-02  7.48069E+01 -1.00000E+00  1.29776E-01
       2    -1     0     0   502     0  0.000000000E+00  0.000000000E+00  9.476825870E+02  9.476825870E+02  0.000000000E+00  0.00000E+00  9.000E+00
      21    -1     0     0   501   502  0.000000000E+00  0.000000000E+00 -5.645389712E+02  5.645389712E+02  0.000000000E+00  0.00000E+00  9.000E+00
      25     1     1     2     0     0  7.324255764E+01 -5.265491532E+01 -7.248498611E+00  1.543196458E+02  1.250000000E+02  0.00000E+00  9.000E+00
      25     1     1     2     0     0  1.179506256E+00  4.507643522E+01 -4.729812738E+02  4.912937631E+02  1.250000000E+02  0.00000E+00  9.000E+00
       2     1     1     2   501     0 -7.442206390E+01  7.578480104E+00  8.633733882E+02  8.666081493E+02  1.525878906E-05  0.00000E+00  9.000E+00
#rwgt            1           1   4.6198634313209273E-002           1      320864           0
</event>
<event>
      5   9999  3.79277E-02  1.62283E+02 -1.00000E+00  1.15055E-01
       2    -1     0     0   502     0  0.000000000E+00  0.000000000E+00  2.283463069E+03  2.283463069E+03  0.000000000E+00  0.00000E+00  9.000E+00
      21    -1     0     0   501   502  0.000000000E+00  0.000000000E+00 -4.035186702E+01  4.035186702E+01  0.000000000E+00  0.00000E+00  9.000E+00
      25     1     1     2     0     0 -1.070897870E+02 -1.601612966E+02  1.050013646E+03  1.074836509E+03  1.250000000E+02  0.00000E+00  9.000E+00
      25     1     1     2     0     0  1.516354970E+02  4.111411224E+00  5.026343500E+02  5.397003960E+02  1.250000000E+02  0.00000E+00  9.000E+00
       2     1     1     2   501     0 -4.454571002E+01  1.560498854E+02  6.904632057E+02  7.092780311E+02  7.629394531E-06  0.00000E+00  9.000E+00
#rwgt            1           1   4.8030410588171896E-002           1      320973           0
</event>
<event>
      5   9999  3.79277E-02  6.48064E+01 -1.00000E+00  1.32939E-01
      21    -1     0     0   511   501  0.000000000E+00  0.000000000E+00  1.101447256E+02  1.101447256E+02  0.000000000E+00  0.00000E+00  9.000E+00
      21    -1     0     0   501   502  0.000000000E+00  0.000000000E+00 -4.709769139E+02  4.709769139E+02  0.000000000E+00  0.00000E+00  9.000E+00
      25     1     1     2     0     0  9.985136374E+01 -7.005807703E+01 -8.316328984E+01  1.934413652E+02  1.250000000E+02  0.00000E+00  9.000E+00
      25     1     1     2     0     0 -1.524402023E+02  3.218612840E+01 -2.417156060E+02  3.135688064E+02  1.250000000E+02  0.00000E+00  9.000E+00
      21     1     1     2   511   502  5.258883860E+01  3.787194863E+01 -3.595329248E+01  7.411146793E+01  1.430511475E-06  0.00000E+00  9.000E+00
#rwgt            1           1   3.9453024364931713E-002           1      321030           0
</event>
<event>
      5   9999  3.79277E-02  8.15848E+01 -1.00000E+00  1.27938E-01
      21    -1     0     0   502   501  0.000000000E+00  0.000000000E+00  8.791014500E+01  8.791014500E+01  0.000000000E+00  0.00000E+00  9.000E+00
       2    -1     0     0   501     0  0.000000000E+00  0.000000000E+00 -7.465313192E+02  7.465313192E+02  0.000000000E+00  0.00000E+00  9.000E+00
      25     1     1     2     0     0  1.567025387E+02 -9.698822073E+01 -1.931927886E+02  2.948064690E+02  1.250000000E+02  0.00000E+00  9.000E+00
      25     1     1     2     0     0 -7.828786174E+01  1.195097570E+02 -3.518215493E+02  3.997686504E+02  1.250000000E+02  0.00000E+00  9.000E+00
       2     1     1     2   502     0 -7.841467692E+01 -2.252153623E+01 -1.136068363E+02  1.398663448E+02  0.000000000E+00  0.00000E+00  9.000E+00
#rwgt            1           1   3.4916416240028517E-002           1      321130           0
</event>
<event>
      5   9999  3.79277E-02  1.58745E+02 -1.00000E+00  1.15427E-01
      21    -1     0     0   502   501  0.000000000E+00  0.000000000E+00  1.549324330E+03  1.549324330E+03  0.000000000E+00  0.00000E+00  9.000E+00
      21    -1     0     0   511   502  0.000000000E+00  0.000000000E+00 -8.658004822E+01  8.658004822E+01  0.000000000E+00  0.00000E+00  9.000E+00
      25     1     1     2     0     0 -1.321502971E+02 -7.054508439E+01  5.510320368E+02  5.845524917E+02  1.250000000E+02  0.00000E+00  9.000E+00
      25     1     1     2     0     0  4.778285715E+00  1.652893834E+02  8.596477967E+02  8.842865750E+02  1.250000000E+02  0.00000E+00  9.000E+00
      21     1     1     2   511   501  1.273720114E+02 -9.474429903E+01  5.206444801E+01  1.670653113E+02  1.168007728E-06  0.00000E+00  9.000E+00
#rwgt            2          11   4.9730417160191919E-003           1      321188           0
</event>
<event>
      5   9999 -3.79277E-02  1.18679E+02 -1.00000E+00  1.20573E-01
      21    -1     0     0   502   501  0.000000000E+00  0.000000000E+00  4.595612657E+02  4.595612657E+02  0.000000000E+00  0.00000E+00  9.000E+00
       2    -1     0     0   501     0  0.000000000E+00  0.000000000E+00 -4.930329303E+03  4.930329303E+03  0.000000000E+00  0.00000E+00  9.000E+00
      25     1     1     2     0     0 -8.461024040E+01  1.904260975E+02 -7.966634765E+01  2.557199999E+02  1.250000000E+02  0.00000E+00  9.000E+00
      25     1     1     2     0     0 -3.315122710E+01 -2.051569647E+02  3.311346715E+02  4.104431199E+02  1.250000000E+02  0.00000E+00  9.000E+00
       2     1     1     2   502     0  1.177614675E+02  1.473086720E+01 -4.722236361E+03  4.723727448E+03  6.103515625E-05  0.00000E+00  9.000E+00
#rwgt            1           1  -7.9875296010481336E-002           1      321238           0
</event>
<event>
      5   9999  3.79277E-02  4.77033E+01 -1.00000E+00  1.40251E-01
      21    -1     0     0   502   501  0.000000000E+00  0.000000000E+00  2.069990632E+02  2.069990632E+02  0.000000000E+00  0.00000E+00  9.000E+00
      21    -1     0     0   501   511  0.000000000E+00  0.000000000E+00 -1.743044598E+02  1.743044598E+02  0.000000000E+00  0.00000E+00  9.000E+00
      25     1     1     2     0     0  3.491885834E+01  7.535269583E+01  2.376128012E+01  1.519439169E+02  1.250000000E+02  0.00000E+00  9.000E+00
      25     1     1     2     0     0 -6.747344772E+01 -1.102210660E+02  1.837193937E+01  1.807315072E+02  1.250000000E+02  0.00000E+00  9.000E+00
      21     1     1     2   502   511  3.255458938E+01  3.486837020E+01 -9.438616128E+00  4.862809892E+01  6.743495762E-07  0.00000E+00  9.000E+00
#rwgt            1           1   1.4865863676620419E-002           1      321296           0
</event>
<event>
      5   9999  3.79277E-02  4.55428E+01 -1.00000E+00  1.41429E-01
      21    -1     0     0   502   501  0.000000000E+00  0.000000000E+00  8.615080651E+01  8.615080651E+01  0.000000000E+00  0.00000E+00  9.000E+00
      21    -1     0     0   501   512  0.000000000E+00  0.000000000E+00 -8.406433139E+02  8.406433139E+02  0.000000000E+00  0.00000E+00  9.000E+00
      25     1     1     2     0     0 -1.204081805E+02 -1.724893437E+02 -3.617341925E+02  4.367234018E+02  1.250000000E+02  0.00000E+00  9.000E+00
      25     1     1     2     0     0  8.288318496E+01  1.466820268E+02 -1.925761325E+02  2.847732539E+02  1.250000000E+02  0.00000E+00  9.000E+00
      21     1     1     2   502   512  3.752499555E+01  2.580731691E+01 -2.001821824E+02  2.052974647E+02  2.697398305E-06  0.00000E+00  9.000E+00
#rwgt            1           1   3.7216528836092451E-002           1      321409           0
</event>
<event>
      5   9999  3.79277E-02  4.30330E+01 -1.00000E+00  1.42899E-01
      21    -1     0     0   502   511  0.000000000E+00  0.000000000E+00  9.430284861E+01  9.430284861E+01  0.000000000E+00  0.00000E+00  9.000E+00
      21    -1     0     0   501   502  0.000000000E+00  0.000000000E+00 -6.480500968E+02  6.480500968E+02  0.000000000E+00  0.00000E+00  9.000E+00
      25     1     1     2     0     0 -5.888876198E+01 -1.057419714E+02 -2.258531737E+02  2.851033267E+02  1.250000000E+02  0.00000E+00  9.000E+00
      25     1     1     2     0     0  1.017752163E+02  1.021933857E+02 -3.573338001E+02  4.051100189E+02  1.250000000E+02  0.00000E+00  9.000E+00
      21     1     1     2   501   511 -4.288645435E+01  3.548585729E+00  2.943972558E+01  5.213959982E+01  1.118282261E-06  0.00000E+00  9.000E+00
#rwgt            1           1   2.9370689625955661E-002           1      321498           0
</event>
<event>
      5   9999  3.79277E-02  2.91544E+01 -1.00000E+00  1.53907E-01
      21    -1     0     0   502   501  0.000000000E+00  0.000000000E+00  2.902070656E+02  2.902070656E+02  0.000000000E+00  0.00000E+00  9.000E+00
      21    -1     0     0   501   512  0.000000000E+00  0.000000000E+00 -2.487057025E+02  2.487057025E+02  0.000000000E+00  0.00000E+00  9.000E+00
      25     1     1     2     0     0 -8.044109566E+01  1.648881497E+02  1.199415571E+02  2.523288507E+02  1.250000000E+02  0.00000E+00  9.000E+00
      25     1     1     2     0     0  8.961213952E+01 -1.925625048E+02 -6.863730909E+01  2.558255929E+02  1.250000000E+02  0.00000E+00  9.000E+00
      21     1     1     2   502   512 -9.171043859E+00  2.767435507E+01 -9.802884850E+00  3.075832449E+01  1.192092896E-07  0.00000E+00  9.000E+00
#rwgt            1           1   2.4447813972400870E-002           1      321598           0
</event>
<event>
      5   9999  3.79277E-02  1.57539E+02 -1.00000E+00  1.15556E-01
      21    -1     0     0   511   501  0.000000000E+00  0.000000000E+00  1.562961189E+03  1.562961189E+03  0.000000000E+00  0.00000E+00  9.000E+00
      21    -1     0     0   501   502  0.000000000E+00  0.000000000E+00 -1.061362487E+02  1.061362487E+02  0.000000000E+00  0.00000E+00  9.000E+00
      25     1     1     2     0     0 -2.961939168E+02  2.149013027E+02  5.236818927E+02  6.509847394E+02  1.250000000E+02  0.00000E+00  9.000E+00
      25     1     1     2     0     0  1.795118906E+02 -1.090536907E+02  4.854597140E+02  5.435194203E+02  1.250000000E+02  0.00000E+00  9.000E+00
      21     1     1     2   511   502  1.166820262E+02 -1.058476120E+02  4.476833337E+02  4.745932779E+02  7.629394531E-06  0.00000E+00  9.000E+00
#rwgt            1           1   3.0149227630622579E-002           1      321708           0
</event>
<event>
      5   9999 -3.79277E-02  3.05103E+01 -1.00000E+00  1.52533E-01
      21    -1     0     0   502   501  0.000000000E+00  0.000000000E+00  8.797024810E+01  8.797024810E+01  0.000000000E+00  0.00000E+00  9.000E+00
      21    -1     0     0   501   512  0.000000000E+00  0.000000000E+00 -1.474789086E+03  1.474789086E+03  0.000000000E+00  0.00000E+00  9.000E+00
      25     1     1     2     0     0  1.415619363E+02  2.869232189E+01 -4.600754004E+02  4.981539975E+02  1.250000000E+02  0.00000E+00  9.000E+00
      25     1     1     2     0     0 -1.609093683E+02 -5.228372598E+01 -9.248799495E+01  2.297921714E+02  1.250000000E+02  0.00000E+00  9.000E+00
      21     1     1     2   502   512  1.934743200E+01  2.359140409E+01 -8.342554423E+02  8.348131650E+02  1.525878906E-05  0.00000E+00  9.000E+00
#rwgt            1           1 -0.12907250694003752                1      321764           0
</event>
<event>
      5   9999  3.79277E-02  8.79733E+01 -1.00000E+00  1.26384E-01
      21    -1     0     0   511   501  0.000000000E+00  0.000000000E+00  1.212986043E+02  1.212986043E+02  0.000000000E+00  0.00000E+00  9.000E+00
      21    -1     0     0   501   502  0.000000000E+00  0.000000000E+00 -4.670468283E+02  4.670468283E+02  0.000000000E+00  0.00000E+00  9.000E+00
      25     1     1     2     0     0 -9.211533842E+01  3.422348397E+01 -2.327537238E+02  2.818790137E+02  1.250000000E+02  0.00000E+00  9.000E+00
      25     1     1     2     0     0  1.419015774E+02  3.830667106E+01 -1.006819200E+02  2.176357226E+02  1.250000000E+02  0.00000E+00  9.000E+00
      21     1     1     2   511   502 -4.978623898E+01 -7.253015503E+01 -1.231258005E+01  8.883069631E+01  2.670926631E-06  0.00000E+00  9.000E+00
#rwgt            1           1   4.4882658830639410E-002           1      322027           0
</event>
<event>
      5   9999  3.79277E-02  6.32133E+01 -1.00000E+00  1.33504E-01
      21    -1     0     0   502   501  0.000000000E+00  0.000000000E+00  9.497113252E+01  9.497113252E+01  0.000000000E+00  0.00000E+00  9.000E+00
      21    -1     0     0   512   502  0.000000000E+00  0.000000000E+00 -1.513201514E+03  1.513201514E+03  0.000000000E+00  0.00000E+00  9.000E+00
      25     1     1     2     0     0 -1.318259821E+02 -1.236235017E+02 -1.788742697E+02  2.833405443E+02  1.250000000E+02  0.00000E+00  9.000E+00
      25     1     1     2     0     0  1.061244409E+02  6.587100456E+01 -1.448182647E+02  2.284703831E+02  1.250000000E+02  0.00000E+00  9.000E+00
      21     1     1     2   512   501  2.570154121E+01  5.775249710E+01 -1.094537847E+03  1.096361719E+03  0.000000000E+00  0.00000E+00  9.000E+00
#rwgt            1           1   3.3226323961995395E-002           1      322125           0
</event>
<event>
      5   9999  3.79277E-02  4.56930E+01 -1.00000E+00  1.41345E-01
      21    -1     0     0   502   501  0.000000000E+00  0.000000000E+00  9.785095842E+02  9.785095842E+02  0.000000000E+00  0.00000E+00  9.000E+00
      21    -1     0     0   501   511  0.000000000E+00  0.000000000E+00 -7.025566937E+01  7.025566937E+01  0.000000000E+00  0.00000E+00  9.000E+00
      25     1     1     2     0     0  9.921377661E+01  1.220253264E+02  2.605713075E+02  3.290227348E+02  1.250000000E+02  0.00000E+00  9.000E+00
      25     1     1     2     0     0 -5.969232919E+01 -9.909278761E+01  6.519698959E+02  6.738488702E+02  1.250000000E+02  0.00000E+00  9.000E+00
      21     1     1     2   502   511 -3.952144742E+01 -2.293253876E+01 -4.287288492E+00  4.589364861E+01  1.368312869E-06  0.00000E+00  9.000E+00
#rwgt            1           1   2.5760280496605416E-002           1      322256           0
</event>
<event>
      5   9999  3.79277E-02  4.94533E+00 -1.00000E+00  2.43495E-01
      21    -1     0     0   502   512  0.000000000E+00  0.000000000E+00  1.769880954E+03  1.769880954E+03  0.000000000E+00  0.00000E+00  9.000E+00
      21    -1     0     0   501   502  0.000000000E+00  0.000000000E+00 -6.744689100E+02  6.744689100E+02  0.000000000E+00  0.00000E+00  9.000E+00
      25     1     1     2     0     0 -4.144032729E+00 -2.698117796E+02 -1.887947983E+02  3.522556533E+02  1.250000000E+02  0.00000E+00  9.000E+00
      25     1     1     2     0     0  7.327264707E+00  2.735963909E+02 -3.479082950E+02  4.599715813E+02  1.250000000E+02  0.00000E+00  9.000E+00
      21     1     1     2   501   512 -3.183231978E+00 -3.784611313E+00  1.632115138E+03  1.632122630E+03  2.157918644E-05  0.00000E+00  9.000E+00
#rwgt            1           1   3.0010886378602962E-002           1      322394           0
</event>
<event>
      5   9999  3.79277E-02  8.40946E+01 -1.00000E+00  1.27309E-01
      21    -1     0     0   502   501  0.000000000E+00  0.000000000E+00  1.825884150E+02  1.825884150E+02  0.000000000E+00  0.00000E+00  9.000E+00
      21    -1     0     0   501   511  0.000000000E+00  0.000000000E+00 -7.342609074E+02  7.342609074E+02  0.000000000E+00  0.00000E+00  9.000E+00
      25     1     1     2     0     0  2.942054659E+02 -3.648737521E+01 -2.259084841E+02  3.931257151E+02  1.250000000E+02  0.00000E+00  9.000E+00
      25     1     1     2     0     0 -2.113635791E+02  2.202617719E+01 -7.268201688E+01  2.570357770E+02  1.250000000E+02  0.00000E+00  9.000E+00
      21     1     1     2   502   511 -8.284188673E+01  1.446119802E+01 -2.530819914E+02  2.666878303E+02  3.814697266E-06  0.00000E+00  9.000E+00
#rwgt            1           1   2.3463986072554316E-002           1      322846           0
</event>
<event>
      5   9999  3.79277E-02  3.90300E+01 -1.00000E+00  1.45504E-01
      21    -1     0     0   502   512  0.000000000E+00  0.000000000E+00  8.824073729E+01  8.824073729E+01  0.000000000E+00  0.00000E+00  9.000E+00
      21    -1     0     0   501   502  0.000000000E+00  0.000000000E+00 -1.778556817E+03  1.778556817E+03  0.000000000E+00  0.00000E+00  9.000E+00
      25     1     1     2     0     0 -1.866481568E+02 -2.403079051E+02 -1.060328329E+03  1.110183133E+03  1.250000000E+02  0.00000E+00  9.000E+00
      25     1     1     2     0     0  2.254182478E+02  2.358115407E+02 -6.266388099E+02  7.174410549E+02  1.250000000E+02  0.00000E+00  9.000E+00
      21     1     1     2   501   512 -3.877009095E+01  4.496364399E+00 -3.348941104E+00  3.917336661E+01  8.709215639E-07  0.00000E+00  9.000E+00
#rwgt            1           1   3.0181974732745729E-002           1      322980           0
</event>
<event>
      5   9999  3.79277E-02  4.74114E+01 -1.00000E+00  1.40406E-01
      21    -1     0     0   502   501  0.000000000E+00  0.000000000E+00  8.726512448E+02  8.726512448E+02  0.000000000E+00  0.00000E+00  9.000E+00
      21    -1     0     0   501   511  0.000000000E+00  0.000000000E+00 -1.126050756E+02  1.126050756E+02  0.000000000E+00  0.00000E+00  9.000E+00
      25     1     1     2     0     0  3.243111858E+01  2.387502239E+02  3.461574859E+02  4.398902726E+02  1.250000000E+02  0.00000E+00  9.000E+00
      25     1     1     2     0     0 -2.845615010E+01 -1.915057745E+02  4.359186110E+02  4.930864524E+02  1.250000000E+02  0.00000E+00  9.000E+00
      21     1     1     2   502   511 -3.974968479E+00 -4.724444942E+01 -2.202992778E+01  5.227959539E+01  7.907449699E-07  0.00000E+00  9.000E+00
#rwgt            1           1  0.22666850591402402                1      323165           0
</event>
<event>
      5   9999  3.79277E-02  6.98337E+01 -1.00000E+00  1.31273E-01
      21    -1     0     0   502   501  0.000000000E+00  0.000000000E+00  3.170764813E+03  3.170764813E+03  0.000000000E+00  0.00000E+00  9.000E+00
      21    -1     0     0   501   512  0.000000000E+00  0.000000000E+00 -1.932483838E+01  1.932483838E+01  0.000000000E+00  0.00000E+00  9.000E+00
      25     1     1     2     0     0  4.113740259E+01 -6.056071215E+01  2.234182060E+03  2.238873458E+03  1.250000000E+02  0.00000E+00  9.000E+00
      25     1     1     2     0     0 -2.853542906E+01  1.292479110E+02  6.606282222E+02  6.852546542E+02  1.250000000E+02  0.00000E+00  9.000E+00
      21     1     1     2   502   512 -1.260197352E+01 -6.868719887E+01  2.566296926E+02  2.659615389E+02  3.814697266E-06  0.00000E+00  9.000E+00
#rwgt            1           1   4.1006384234236359E-002           1      323296           0
</event>
<event>
      5   9999  3.79277E-02  1.84010E+01 -1.00000E+00  1.69411E-01
      21    -1     0     0   511   501  0.000000000E+00  0.000000000E+00  1.915208707E+02  1.915208707E+02  0.000000000E+00  0.00000E+00  9.000E+00
      21    -1     0     0   501   502  0.000000000E+00  0.000000000E+00 -3.926211259E+02  3.926211259E+02  0.000000000E+00  0.00000E+00  9.000E+00
      25     1     1     2     0     0  1.118413088E+02  1.150704252E+02  8.928545317E+01  2.221408861E+02  1.250000000E+02  0.00000E+00  9.000E+00
      25     1     1     2     0     0 -1.053151682E+02 -9.786558551E+01 -2.850322118E+02  3.428371614E+02  1.250000000E+02  0.00000E+00  9.000E+00
      21     1     1     2   511   502 -6.526140618E+00 -1.720483972E+01 -5.353496616E+00  1.916394915E+01  3.816559456E-07  0.00000E+00  9.000E+00
#rwgt            1           1   4.4294438728042639E-002           1      323404           0
</event>
<event>
      5   9999  3.79277E-02  2.55415E+01 -1.00000E+00  1.58057E-01
      21    -1     0     0   502   501  0.000000000E+00  0.000000000E+00  5.546097962E+02  5.546097962E+02  0.000000000E+00  0.00000E+00  9.000E+00
      21    -1     0     0   501   512  0.000000000E+00  0.000000000E+00 -2.185806532E+02  2.185806532E+02  0.000000000E+00  0.00000E+00  9.000E+00
      25     1     1     2     0     0  2.140946009E+02  1.664081136E+02  3.224353076E+02  4.394515741E+02  1.250000000E+02  0.00000E+00  9.000E+00
      25     1     1     2     0     0 -2.319532237E+02 -1.481478520E+02  2.938830903E+01  3.037083416E+02  1.250000000E+02  0.00000E+00  9.000E+00
      21     1     1     2   502   512  1.785862281E+01 -1.826026162E+01 -1.579447363E+01  3.003053380E+01  1.685873940E-07  0.00000E+00  9.000E+00
#rwgt            1           1   4.1497291265408645E-002           1      323765           0
</event>
<event>
      5   9999  3.79277E-02  9.18304E+00 -1.00000E+00  2.00135E-01
      21    -1     0     0   502   501  0.000000000E+00  0.000000000E+00  1.081059001E+03  1.081059001E+03  0.000000000E+00  0.00000E+00  9.000E+00
      21    -1     0     0   501   511  0.000000000E+00  0.000000000E+00 -3.043296704E+01  3.043296704E+01  0.000000000E+00  0.00000E+00  9.000E+00
      25     1     1     2     0     0 -1.038350243E+02  1.247476241E+00  6.859707741E+02  7.049568578E+02  1.250000000E+02  0.00000E+00  9.000E+00
      25     1     1     2     0     0  1.129669721E+02 -2.800931609E-01  3.562677855E+02  3.940981480E+02  1.250000000E+02  0.00000E+00  9.000E+00
      21     1     1     2   502   511 -9.131947871E+00 -9.673830801E-01  8.387474075E+00  1.243696198E+01  1.685873940E-07  0.00000E+00  9.000E+00
#rwgt            1           1  0.15825220771535037                1      324062           0
</event>
<event>
      5   9999  3.79277E-02  2.85578E+02 -1.00000E+00  1.06292E-01
      21    -1     0     0   502   512  0.000000000E+00  0.000000000E+00  7.687917772E+02  7.687917772E+02  0.000000000E+00  0.00000E+00  9.000E+00
      21    -1     0     0   501   502  0.000000000E+00  0.000000000E+00 -4.364272151E+02  4.364272151E+02  0.000000000E+00  0.00000E+00  9.000E+00
      25     1     1     2     0     0 -1.432295235E+02  2.652895376E+02  7.079347308E+01  3.339610022E+02  1.250000000E+02  0.00000E+00  9.000E+00
      25     1     1     2     0     0 -7.595485476E+00 -2.278843364E+01 -2.527382311E+02  2.829816558E+02  1.250000000E+02  0.00000E+00  9.000E+00
      21     1     1     2   501   512  1.508250090E+02 -2.425011040E+02  5.143093201E+02  5.882763343E+02  0.000000000E+00  0.00000E+00  9.000E+00
#rwgt            1           1   3.1553964936694913E-002           1      324356           0
</event>
<event>
      5   9999  3.79277E-02  4.29414E+01 -1.00000E+00  1.42955E-01
      21    -1     0     0   511   501  0.000000000E+00  0.000000000E+00  6.403674526E+02  6.403674526E+02  0.000000000E+00  0.00000E+00  9.000E+00
      21    -1     0     0   501   502  0.000000000E+00  0.000000000E+00 -5.296599948E+01  5.296599948E+01  0.000000000E+00  0.00000E+00  9.000E+00
      25     1     1     2     0     0 -3.252859994E+01  1.078549556E+01  8.280989731E+01  1.538080486E+02  1.250000000E+02  0.00000E+00  9.000E+00
      25     1     1     2     0     0  6.970345586E+01 -3.227944203E+01  3.617805027E+02  3.903980869E+02  1.250000000E+02  0.00000E+00  9.000E+00
      21     1     1     2   511   502 -3.717485592E+01  2.149394647E+01  1.428110531E+02  1.491273166E+02  2.697398305E-06  0.00000E+00  9.000E+00
#rwgt            1           1   4.4313093001769659E-002           1      324484           0
</event>
<event>
      5   9999  3.79277E-02  2.10085E+02 -1.00000E+00  1.10876E-01
      21    -1     0     0   502   501  0.000000000E+00  0.000000000E+00  4.724572511E+02  4.724572511E+02  0.000000000E+00  0.00000E+00  9.000E+00
       2    -1     0     0   501     0  0.000000000E+00  0.000000000E+00 -5.493271685E+02  5.493271685E+02  0.000000000E+00  0.00000E+00  9.000E+00
      25     1     1     2     0     0 -1.479616155E+02 -1.543127859E+02  1.222773893E+02  2.761916644E+02  1.250000000E+02  0.00000E+00  9.000E+00
      25     1     1     2     0     0 -5.765434001E+01  1.974165691E+02  1.878137159E+02  3.052807176E+02  1.250000000E+02  0.00000E+00  9.000E+00
       2     1     1     2   502     0  2.056159555E+02 -4.310378315E+01 -3.869610227E+02  4.403120375E+02  0.000000000E+00  0.00000E+00  9.000E+00
#rwgt            1           1   8.5088002954316344E-002           1      324558           0
</event>
<event>
      5   9999  3.79277E-02  3.78139E+01 -1.00000E+00  1.46370E-01
      21    -1     0     0   502   501  0.000000000E+00  0.000000000E+00  6.765369352E+02  6.765369352E+02  0.000000000E+00  0.00000E+00  9.000E+00
      21    -1     0     0   511   502  0.000000000E+00  0.000000000E+00 -1.648756820E+02  1.648756820E+02  0.000000000E+00  0.00000E+00  9.000E+00
      25     1     1     2     0     0  6.549753575E+01  1.376888343E+02  2.390310997E+02  3.098532054E+02  1.250000000E+02  0.00000E+00  9.000E+00
      25     1     1     2     0     0 -4.613031757E+01 -1.052110904E+02  3.808215740E+02  4.169501780E+02  1.250000000E+02  0.00000E+00  9.000E+00
      21     1     1     2   511   501 -1.936721818E+01 -3.247774391E+01 -1.081914205E+02  1.146092338E+02  2.697398305E-06  0.00000E+00  9.000E+00
#rwgt            1           1   3.2370131131697455E-002           1      324596           0
</event>
<event>
      5   9999  3.79277E-02  7.01117E+01 -1.00000E+00  1.31186E-01
      21    -1     0     0   502   512  0.000000000E+00  0.000000000E+00  3.805034979E+02  3.805034979E+02  0.000000000E+00  0.00000E+00  9.000E+00
      21    -1     0     0   501   502  0.000000000E+00  0.000000000E+00 -4.689156633E+02  4.689156633E+02  0.000000000E+00  0.00000E+00  9.000E+00
      25     1     1     2     0     0  1.446063710E+02 -1.697861203E+02  1.050727508E+02  2.764120333E+02  1.250000000E+02  0.00000E+00  9.000E+00
      25     1     1     2     0     0 -2.077145311E+02  2.003313565E+02 -3.070612672E+02  4.395333897E+02  1.250000000E+02  0.00000E+00  9.000E+00
      21     1     1     2   501   512  6.310816006E+01 -3.054523613E+01  1.135763510E+02  1.334737383E+02  1.348699152E-06  0.00000E+00  9.000E+00
#rwgt            1           1   7.4079100006169657E-002           1      324707           0
</event>
<event>
      5   9999  3.79277E-02  2.47511E+01 -1.00000E+00  1.59077E-01
      21    -1     0     0   511   501  0.000000000E+00  0.000000000E+00  1.284237187E+02  1.284237187E+02  0.000000000E+00  0.00000E+00  9.000E+00
      21    -1     0     0   501   502  0.000000000E+00  0.000000000E+00 -3.215836191E+02  3.215836191E+02  0.000000000E+00  0.00000E+00  9.000E+00
      25     1     1     2     0     0 -5.267763318E+01  8.357279006E+01 -9.140511883E+01  1.836824434E+02  1.250000000E+02  0.00000E+00  9.000E+00
      25     1     1     2     0     0  2.951967662E+01 -7.483618448E+01 -1.505752228E+02  2.115886659E+02  1.250000000E+02  0.00000E+00  9.000E+00
      21     1     1     2   511   502  2.315795655E+01 -8.736605587E+00  4.882044116E+01  5.473622845E+01  9.536743164E-07  0.00000E+00  9.000E+00
#rwgt            1           1   4.4272586431478106E-002           1      325007           0
</event>
<event>
      5   9999  3.79277E-02  3.22986E+01 -1.00000E+00  1.50846E-01
      21    -1     0     0   502   512  0.000000000E+00  0.000000000E+00  3.436617968E+02  3.436617968E+02  0.000000000E+00  0.00000E+00  9.000E+00
      21    -1     0     0   501   502  0.000000000E+00  0.000000000E+00 -2.497590517E+02  2.497590517E+02  0.000000000E+00  0.00000E+00  9.000E+00
      25     1     1     2     0     0  2.850689600E+01 -2.223749279E+02  1.233309499E+02  2.847784663E+02  1.250000000E+02  0.00000E+00  9.000E+00
      25     1     1     2     0     0 -1.233520488E+00  2.396770633E+02 -4.280041666E+01  2.736850231E+02  1.250000000E+02  0.00000E+00  9.000E+00
      21     1     1     2   501   512 -2.727337551E+01 -1.730213538E+01  1.337221189E+01  3.495735905E+01  5.057621821E-07  0.00000E+00  9.000E+00
#rwgt            1           1  0.41506062321395970                1      325091           0
</event>
<event>
      5   9999  3.79277E-02  8.83303E+01 -1.00000E+00  1.26301E-01
      21    -1     0     0   502   501  0.000000000E+00  0.000000000E+00  2.306819541E+02  2.306819541E+02  0.000000000E+00  0.00000E+00  9.000E+00
      21    -1     0     0   511   502  0.000000000E+00  0.000000000E+00 -3.817265086E+02  3.817265086E+02  0.000000000E+00  0.00000E+00  9.000E+00
      25     1     1     2     0     0 -5.669773191E+01 -1.771006106E+02 -2.135754735E+01  2.250786616E+02  1.250000000E+02  0.00000E+00  9.000E+00
      25     1     1     2     0     0  1.433173555E+02  1.944002565E+02 -7.028973398E+01  2.808860460E+02  1.250000000E+02  0.00000E+00  9.000E+00
      21     1     1     2   511   501 -8.661962361E+01 -1.729964591E+01 -5.939727323E+01  1.064437551E+02  2.523185073E-06  0.00000E+00  9.000E+00
#rwgt            1           1   3.5765495321201747E-002           1      325238           0
</event>
<event>
      5   9999  3.79277E-02  1.62079E+02 -1.00000E+00  1.15076E-01
      -3    -1     0     0     0   501  0.000000000E+00  0.000000000E+00  5.180327285E+02  5.180327285E+02  0.000000000E+00  0.00000E+00  9.000E+00
      21    -1     0     0   501   502  0.000000000E+00  0.000000000E+00 -4.496377356E+02  4.496377356E+02  0.000000000E+00  0.00000E+00  9.000E+00
      25     1     1     2     0     0  7.058671618E+01 -2.471464299E+02  1.861238820E+02  3.410732205E+02  1.250000000E+02  0.00000E+00  9.000E+00
      25     1     1     2     0     0 -1.875854134E+02  1.349823246E+02 -2.891442226E+02  3.906890026E+02  1.250000000E+02  0.00000E+00  9.000E+00
      -3     1     1     2     0   502  1.169986972E+02  1.121641053E+02  1.714153334E+02  2.359082411E+02  3.814697266E-06  0.00000E+00  9.000E+00
#rwgt            1           1   3.5778309412977431E-002           1      325393           0
</event>
<event>
      5   9999  3.79277E-02  3.04914E+01 -1.00000E+00  1.52551E-01
      21    -1     0     0   511   501  0.000000000E+00  0.000000000E+00  2.708112108E+02  2.708112108E+02  0.000000000E+00  0.00000E+00  9.000E+00
      21    -1     0     0   501   502  0.000000000E+00  0.000000000E+00 -2.898756047E+02  2.898756047E+02  0.000000000E+00  0.00000E+00  9.000E+00
      25     1     1     2     0     0  1.652706258E+02  1.112518936E+02  8.278435750E+01  2.493383513E+02  1.250000000E+02  0.00000E+00  9.000E+00
      25     1     1     2     0     0 -1.914227061E+02 -1.269296741E+02 -1.024619234E+02  2.808509219E+02  1.250000000E+02  0.00000E+00  9.000E+00
      21     1     1     2   511   502  2.615208029E+01  1.567778055E+01  6.131720110E-01  3.049754230E+01  3.112345721E-07  0.00000E+00  9.000E+00
#rwgt            2          11   1.4084614536002965E-002           1      325633           0
</event>
<event>
      5   9999  3.79277E-02  2.04474E+01 -1.00000E+00  1.65580E-01
      21    -1     0     0   502   501  0.000000000E+00  0.000000000E+00  2.573579128E+02  2.573579128E+02  0.000000000E+00  0.00000E+00  9.000E+00
       2    -1     0     0   501     0  0.000000000E+00  0.000000000E+00 -9.016789676E+02  9.016789676E+02  0.000000000E+00  0.00000E+00  9.000E+00
      25     1     1     2     0     0  2.819155577E+02 -8.514985599E+00 -1.066363166E+02  3.264126080E+02  1.250000000E+02  0.00000E+00  9.000E+00
      25     1     1     2     0     0 -2.619439812E+02  4.129581119E+00  4.252726891E+00  2.903012029E+02  1.250000000E+02  0.00000E+00  9.000E+00
       2     1     1     2   502     0 -1.997157648E+01  4.385404480E+00 -5.419374651E+02  5.423230695E+02  0.000000000E+00  0.00000E+00  9.000E+00
#rwgt            1           1   3.3706915335842053E-002           1      325698           0
</event>
<event>
      5   9999  3.79277E-02  2.61188E+02 -1.00000E+00  1.07585E-01
      21    -1     0     0   502   501  0.000000000E+00  0.000000000E+00  8.222862229E+02  8.222862229E+02  0.000000000E+00  0.00000E+00  9.000E+00
      21    -1     0     0   501   511  0.000000000E+00  0.000000000E+00 -1.579391201E+02  1.579391201E+02  0.000000000E+00  0.00000E+00  9.000E+00
      25     1     1     2     0     0  2.436838774E+01  8.153128979E+01  3.830545364E+02  4.118214994E+02  1.250000000E+02  0.00000E+00  9.000E+00
      25     1     1     2     0     0 -9.807379920E+01  1.690417909E+02  1.167805993E+02  2.597235175E+02  1.250000000E+02  0.00000E+00  9.000E+00
      21     1     1     2   502   511  7.370541147E+01 -2.505730807E+02  1.645119671E+02  3.086803262E+02  3.303624740E-06  0.00000E+00  9.000E+00
#rwgt            1           1   4.5279489669334400E-002           1      325916           0
</event>
<event>
      5   9999  3.79277E-02  4.55554E+01 -1.00000E+00  1.41422E-01
      21    -1     0     0   512   501  0.000000000E+00  0.000000000E+00  3.053237252E+02  3.053237252E+02  0.000000000E+00  0.00000E+00  9.000E+00
      21    -1     0     0   501   502  0.000000000E+00  0.000000000E+00 -2.293975741E+02  2.293975741E+02  0.000000000E+00  0.00000E+00  9.000E+00
      25     1     1     2     0     0  4.678080228E+01  1.370876709E+02  1.605515743E+02  2.497664529E+02  1.250000000E+02  0.00000E+00  9.000E+00
      25     1     1     2     0     0 -8.824299266E+01 -1.559603329E+02 -9.498158361E+01  2.382371768E+02  1.250000000E+02  0.00000E+00  9.000E+00
      21     1     1     2   512   502  4.146219038E+01  1.887266201E+01  1.035616034E+01  4.671766967E+01  8.085167388E-07  0.00000E+00  9.000E+00
#rwgt            1           1   6.9561649601565370E-002           1      325965           0
</event>
<event>
      5   9999  3.79277E-02  9.20853E+01 -1.00000E+00  1.25460E-01
      21    -1     0     0   502   501  0.000000000E+00  0.000000000E+00  1.073676095E+03  1.073676095E+03  0.000000000E+00  0.00000E+00  9.000E+00
      21    -1     0     0   511   502  0.000000000E+00  0.000000000E+00 -5.818189498E+01  5.818189498E+01  0.000000000E+00  0.00000E+00  9.000E+00
      25     1     1     2     0     0 -1.947261013E+01 -1.221213796E+02  5.629786571E+02  5.897989338E+02  1.250000000E+02  0.00000E+00  9.000E+00
      25     1     1     2     0     0 -6.858079560E+01  1.490713728E+02  3.179253864E+02  3.789817291E+02  1.250000000E+02  0.00000E+00  9.000E+00
      21     1     1     2   511   501  8.805340573E+01 -2.694999321E+01  1.345901568E+02  1.630773274E+02  2.697398305E-06  0.00000E+00  9.000E+00
#rwgt            1           1   4.2759070456943035E-002           1      326085           0
</event>
<event>
      5   9999  3.79277E-02  1.48139E+02 -1.00000E+00  1.16609E-01
      21    -1     0     0   502   501  0.000000000E+00  0.000000000E+00  2.124364416E+02  2.124364416E+02  0.000000000E+00  0.00000E+00  9.000E+00
      21    -1     0     0   512   502  0.000000000E+00  0.000000000E+00 -4.814849957E+02  4.814849957E+02  0.000000000E+00  0.00000E+00  9.000E+00
      25     1     1     2     0     0  6.498438654E+01 -1.133069078E+02  1.093108144E+02  2.112706321E+02  1.250000000E+02  0.00000E+00  9.000E+00
      25     1     1     2     0     0 -4.758371310E+01 -3.380666763E+01 -1.113005366E+02  1.772566218E+02  1.250000000E+02  0.00000E+00  9.000E+00
      21     1     1     2   512   501 -1.740067344E+01  1.471135754E+02 -2.670588319E+02  3.053941834E+02  3.814697266E-06  0.00000E+00  9.000E+00
#rwgt            1           1   5.2297359749991661E-002           1      326139           0
</event>
<event>
      5   9999  3.79277E-02  1.76002E+02 -1.00000E+00  1.13707E-01
      21    -1     0     0   502   501  0.000000000E+00  0.000000000E+00  2.171784559E+02  2.171784559E+02  0.000000000E+00  0.00000E+00  9.000E+00
      21    -1     0     0   511   502  0.000000000E+00  0.000000000E+00 -5.829556296E+02  5.829556296E+02  0.000000000E+00  0.00000E+00  9.000E+00
      25     1     1     2     0     0 -8.600366554E+01  2.665242892E+01  1.162913191E+02  1.930172359E+02  1.250000000E+02  0.00000E+00  9.000E+00
      25     1     1     2     0     0  1.653884618E+01  1.350618014E+02 -3.105582931E+02  3.613677864E+02  1.250000000E+02  0.00000E+00  9.000E+00
      21     1     1     2   511   501  6.946481935E+01 -1.617142303E+02 -1.715101997E+02  2.457490631E+02  2.697398305E-06  0.00000E+00  9.000E+00
#rwgt            1           1   4.5623992986054476E-002           1      326299           0
</event>
<event>
      5   9999  3.79277E-02  1.01263E+02 -1.00000E+00  1.23583E-01
      21    -1     0     0   512   501  0.000000000E+00  0.000000000E+00  1.703488858E+02  1.703488858E+02  0.000000000E+00  0.00000E+00  9.000E+00
      21    -1     0     0   501   502  0.000000000E+00  0.000000000E+00 -5.892599746E+02  5.892599746E+02  0.000000000E+00  0.00000E+00  9.000E+00
      25     1     1     2     0     0  1.419344739E+02  2.152031068E+02 -1.253962328E+02  3.127410866E+02  1.250000000E+02  0.00000E+00  9.000E+00
      25     1     1     2     0     0 -9.397247522E+01 -1.260182989E+02 -2.801833611E+02  3.447305521E+02  1.250000000E+02  0.00000E+00  9.000E+00
      21     1     1     2   512   502 -4.796199867E+01 -8.918480794E+01 -1.333149492E+01  1.021372216E+02  5.057621821E-07  0.00000E+00  9.000E+00
#rwgt            1           1   4.0044295464601344E-002           1      326480           0
</event>
<event>
      5   9999  3.79277E-02  7.52431E+01 -1.00000E+00  1.29651E-01
      21    -1     0     0   502   501  0.000000000E+00  0.000000000E+00  5.098235149E+02  5.098235149E+02  0.000000000E+00  0.00000E+00  9.000E+00
      21    -1     0     0   511   502  0.000000000E+00  0.000000000E+00 -2.310242821E+02  2.310242821E+02  0.000000000E+00  0.00000E+00  9.000E+00
      25     1     1     2     0     0 -6.493294535E+01 -1.694593732E+02  7.828582927E+01  2.338513152E+02  1.250000000E+02  0.00000E+00  9.000E+00
      25     1     1     2     0     0  3.542510758E+01  1.002436614E+02  3.235445771E+02  3.627806821E+02  1.250000000E+02  0.00000E+00  9.000E+00
      21     1     1     2   511   501  2.950783777E+01  6.921571177E+01 -1.230311736E+02  1.442157998E+02  1.348699152E-06  0.00000E+00  9.000E+00
#rwgt            1           1   4.4010391223481278E-002           1      326538           0
</event>
<event>
      5   9999  3.79277E-02  9.73882E+01 -1.00000E+00  1.24347E-01
      21    -1     0     0   512   501  0.000000000E+00  0.000000000E+00  6.391755340E+01  6.391755340E+01  0.000000000E+00  0.00000E+00  9.000E+00
      21    -1     0     0   501   502  0.000000000E+00  0.000000000E+00 -1.131759248E+03  1.131759248E+03  0.000000000E+00  0.00000E+00  9.000E+00
      25     1     1     2     0     0 -2.384984604E+00  2.123587403E+01 -7.290354065E+01  1.462756874E+02  1.250000000E+02  0.00000E+00  9.000E+00
      25     1     1     2     0     0 -8.206266378E+01  2.727238331E+01 -9.022240933E+02  9.149379095E+02  1.250000000E+02  0.00000E+00  9.000E+00
      21     1     1     2   512   502  8.444764839E+01 -4.850825734E+01 -9.271406106E+01  1.344632049E+02  1.348699152E-06  0.00000E+00  9.000E+00
#rwgt            1           1   4.0140544145627989E-002           1      326664           0
</event>
<event>
      5   9999  3.79277E-02  1.09280E+02 -1.00000E+00  1.22119E-01
      21    -1     0     0   502   501  0.000000000E+00  0.000000000E+00  2.288913391E+02  2.288913391E+02  0.000000000E+00  0.00000E+00  9.000E+00
       5    -1     0     0   501     0  0.000000000E+00  0.000000000E+00 -4.156238120E+02  4.156238120E+02  0.000000000E+00  0.00000E+00  9.000E+00
      25     1     1     2     0     0 -3.000670039E+01  8.816889588E+00 -7.493378665E+01  1.490577472E+02  1.250000000E+02  0.00000E+00  9.000E+00
      25     1     1     2     0     0  1.392720707E+02 -7.022303012E+00  1.314415595E+02  2.287966477E+02  1.250000000E+02  0.00000E+00  9.000E+00
       5     1     1     2   502     0 -1.092653703E+02 -1.794586577E+00 -2.432402459E+02  2.666607562E+02  2.697398305E-06  0.00000E+00  9.000E+00
#rwgt            1           1   3.8629156364151707E-002           1      326734           0
</event>
<event>
      5   9999  3.79277E-02  8.60637E+01 -1.00000E+00  1.26832E-01
      21    -1     0     0   502   501  0.000000000E+00  0.000000000E+00  7.532392741E+02  7.532392741E+02  0.000000000E+00  0.00000E+00  9.000E+00
      21    -1     0     0   511   502  0.000000000E+00  0.000000000E+00 -1.249493306E+02  1.249493306E+02  0.000000000E+00  0.00000E+00  9.000E+00
      25     1     1     2     0     0  4.170324072E+01 -8.621464880E+01  5.855737070E+02  6.063775163E+02  1.250000000E+02  0.00000E+00  9.000E+00
      25     1     1     2     0     0 -1.188196794E+02  4.800443495E+01  4.874630361E+01  1.855363687E+02  1.250000000E+02  0.00000E+00  9.000E+00
      21     1     1     2   511   501  7.711643864E+01  3.821021386E+01 -6.030067132E+00  8.627471971E+01  4.693274423E-07  0.00000E+00  9.000E+00
#rwgt            1           1   4.4464400728203825E-002           1      326958           0
</event>
<event>
      5   9999  3.79277E-02  4.55959E+01 -1.00000E+00  1.41399E-01
      21    -1     0     0   502   501  0.000000000E+00  0.000000000E+00  1.097610955E+03  1.097610955E+03  0.000000000E+00  0.00000E+00  9.000E+00
      21    -1     0     0   512   502  0.000000000E+00  0.000000000E+00 -1.527575204E+03  1.527575204E+03  0.000000000E+00  0.00000E+00  9.000E+00
      25     1     1     2     0     0 -3.089607361E+01  3.780261111E+02  3.328303752E+02  5.198647581E+02  1.250000000E+02  0.00000E+00  9.000E+00
      25     1     1     2     0     0  4.323725151E+01 -4.219201164E+02  5.980255372E+02  7.437375799E+02  1.250000000E+02  0.00000E+00  9.000E+00
      21     1     1     2   512   501 -1.234117789E+01  4.389400534E+01 -1.360820162E+03  1.361583821E+03  1.525878906E-05  0.00000E+00  9.000E+00
#rwgt            1           1   1.8039983600308555E-002           1      327015           0
</event>
<event>
      5   9999  3.79277E-02  4.37165E+01 -1.00000E+00  1.42487E-01
      21    -1     0     0   511   501  0.000000000E+00  0.000000000E+00  2.393160104E+02  2.393160104E+02  0.000000000E+00  0.00000E+00  9.000E+00
      21    -1     0     0   501   502  0.000000000E+00  0.000000000E+00 -5.079116993E+02  5.079116993E+02  0.000000000E+00  0.00000E+00  9.000E+00
      25     1     1     2     0     0  8.098921855E+01  2.087229439E+01 -4.483103764E+02  4.728658370E+02  1.250000000E+02  0.00000E+00  9.000E+00
      25     1     1     2     0     0 -1.020052552E+02  1.746127744E+01  1.535636689E+02  2.234206094E+02  1.250000000E+02  0.00000E+00  9.000E+00
      21     1     1     2   511   502  2.101603667E+01 -3.833357183E+01  2.615101871E+01  5.094126329E+01  1.118282261E-06  0.00000E+00  9.000E+00
#rwgt            1           1   4.0418000061429399E-002           1      327199           0
</event>
<event>
      5   9999  3.79277E-02  1.65498E+01 -1.00000E+00  1.73453E-01
      21    -1     0     0   502   501  0.000000000E+00  0.000000000E+00  5.757611870E+02  5.757611870E+02  0.000000000E+00  0.00000E+00  9.000E+00
      21    -1     0     0   501   512  0.000000000E+00  0.000000000E+00 -7.789375501E+01  7.789375501E+01  0.000000000E+00  0.00000E+00  9.000E+00
      25     1     1     2     0     0  5.746058162E+01  2.957005979E+00  4.583766862E+02  4.785860933E+02  1.250000000E+02  0.00000E+00  9.000E+00
      25     1     1     2     0     0 -6.450064928E+01 -1.793479218E+01  5.528172779E+01  1.521941522E+02  1.250000000E+02  0.00000E+00  9.000E+00
      21     1     1     2   502   512  7.040067657E+00  1.497778620E+01 -1.579098191E+01  2.287469654E+01  5.840038640E-07  0.00000E+00  9.000E+00
#rwgt            1           1   5.4172444804447738E-002           1      327388           0
</event>
<event>
      5   9999  3.79277E-02  4.13201E+01 -1.00000E+00  1.43971E-01
      21    -1     0     0   502   511  0.000000000E+00  0.000000000E+00  1.817209911E+02  1.817209911E+02  0.000000000E+00  0.00000E+00  9.000E+00
      21    -1     0     0   501   502  0.000000000E+00  0.000000000E+00 -3.227805280E+02  3.227805280E+02  0.000000000E+00  0.00000E+00  9.000E+00
      25     1     1     2     0     0 -1.517677339E+02 -5.803561357E+01 -2.931031885E+01  2.070885615E+02  1.250000000E+02  0.00000E+00  9.000E+00
      25     1     1     2     0     0  1.867066370E+02  3.597599471E+01 -1.168176655E+02  2.557831259E+02  1.250000000E+02  0.00000E+00  9.000E+00
      21     1     1     2   501   511 -3.493890309E+01  2.205961886E+01  5.068447528E+00  4.162983177E+01  7.586432732E-07  0.00000E+00  9.000E+00
#rwgt            1           1   3.1525790344074808E-002           1      327619           0
</event>
<event>
      5   9999  3.79277E-02  5.46134E+01 -1.00000E+00  1.36923E-01
      21    -1     0     0   502   512  0.000000000E+00  0.000000000E+00  3.539221506E+02  3.539221506E+02  0.000000000E+00  0.00000E+00  9.000E+00
      21    -1     0     0   501   502  0.000000000E+00  0.000000000E+00 -3.136400079E+02  3.136400079E+02  0.000000000E+00  0.00000E+00  9.000E+00
      25     1     1     2     0     0 -7.563137882E+01  1.670260144E+02  1.974161403E+02  2.970116620E+02  1.250000000E+02  0.00000E+00  9.000E+00
      25     1     1     2     0     0  7.903764135E+01 -2.215330430E+02 -1.679305920E+02  3.148801702E+02  1.250000000E+02  0.00000E+00  9.000E+00
      21     1     1     2   501   512 -3.406262527E+00  5.450702854E+01  1.079659439E+01  5.567032634E+01  1.105501472E-06  0.00000E+00  9.000E+00
#rwgt            1           1   4.4878266958636823E-002           1      327768           0
</event>
<event>
      5   9999  3.79277E-02  5.16931E+01 -1.00000E+00  1.38255E-01
      21    -1     0     0   502   511  0.000000000E+00  0.000000000E+00  2.283024700E+03  2.283024700E+03  0.000000000E+00  0.00000E+00  9.000E+00
      21    -1     0     0   501   502  0.000000000E+00  0.000000000E+00 -6.096160121E+01  6.096160121E+01  0.000000000E+00  0.00000E+00  9.000E+00
      25     1     1     2     0     0 -2.235017688E+02 -3.647352563E+01  5.061503965E+02  5.684158535E+02  1.250000000E+02  0.00000E+00  9.000E+00
      25     1     1     2     0     0  1.725337809E+02  2.784566290E+01  3.641243695E+02  4.227940905E+02  1.250000000E+02  0.00000E+00  9.000E+00
      21     1     1     2   501   511  5.096798786E+01  8.627862733E+00  1.351788333E+03  1.352776357E+03  2.642899792E-05  0.00000E+00  9.000E+00
#rwgt            1           1   3.3613725144550008E-002           1      327864           0
</event>
<event>
      5   9999  3.79277E-02  8.07183E+01 -1.00000E+00  1.28162E-01
      21    -1     0     0   502   501  0.000000000E+00  0.000000000E+00  1.650521103E+02  1.650521103E+02  0.000000000E+00  0.00000E+00  9.000E+00
      21    -1     0     0   512   502  0.000000000E+00  0.000000000E+00 -6.405576688E+02  6.405576688E+02  0.000000000E+00  0.00000E+00  9.000E+00
      25     1     1     2     0     0  6.090677275E+01  7.155244684E+01 -1.870885987E+02  2.438371001E+02  1.250000000E+02  0.00000E+00  9.000E+00
      25     1     1     2     0     0 -8.969311100E+01 -1.469632500E+02  4.606196625E+01  2.176918826E+02  1.250000000E+02  0.00000E+00  9.000E+00
      21     1     1     2   512   501  2.878633825E+01  7.541080320E+01 -3.344789260E+02  3.440807964E+02  5.394796609E-06  0.00000E+00  9.000E+00
#rwgt            1           1   4.7993217659437953E-002           1      327956           0
</event>
<event>
      5   9999  3.79277E-02  2.89640E+01 -1.00000E+00  1.54108E-01
      21    -1     0     0   502   501  0.000000000E+00  0.000000000E+00  1.536196693E+03  1.536196693E+03  0.000000000E+00  0.00000E+00  9.000E+00
      21    -1     0     0   501   511  0.000000000E+00  0.000000000E+00 -6.947501265E+02  6.947501265E+02  0.000000000E+00  0.00000E+00  9.000E+00
      25     1     1     2     0     0  9.190633762E+01 -1.964779470E+02  7.409232221E+02  7.820758145E+02  1.250000000E+02  0.00000E+00  9.000E+00
      25     1     1     2     0     0 -1.179245569E+02  1.837513364E+02  7.539419322E+02  7.948107900E+02  1.250000000E+02  0.00000E+00  9.000E+00
      21     1     1     2   502   511  2.601821926E+01  1.272661056E+01 -6.534185877E+02  6.540602152E+02  0.000000000E+00  0.00000E+00  9.000E+00
#rwgt            1           1   4.9295941979510038E-002           1      328035           0
</event>
<event>
      5   9999  3.79277E-02  8.58049E+01 -1.00000E+00  1.26894E-01
      21    -1     0     0   502   512  0.000000000E+00  0.000000000E+00  1.942322458E+02  1.942322458E+02  0.000000000E+00  0.00000E+00  9.000E+00
      21    -1     0     0   501   502  0.000000000E+00  0.000000000E+00 -2.823922048E+02  2.823922048E+02  0.000000000E+00  0.00000E+00  9.000E+00
      25     1     1     2     0     0  5.793838519E+01 -6.750003901E+01  9.139777236E+00  1.536933547E+02  1.250000000E+02  0.00000E+00  9.000E+00
      25     1     1     2     0     0 -1.429461364E+02  7.916923557E+01 -1.144551014E+02  2.354279848E+02  1.250000000E+02  0.00000E+00  9.000E+00
      21     1     1     2   501   512  8.500775124E+01 -1.166919657E+01  1.715536516E+01  8.750311122E+01  1.410503336E-06  0.00000E+00  9.000E+00
#rwgt            1           1   4.8267791076666421E-002           1      328287           0
</event>
<event>
      5   9999  3.79277E-02  3.49218E+01 -1.00000E+00  1.48594E-01
      21    -1     0     0   502   511  0.000000000E+00  0.000000000E+00  1.344274652E+03  1.344274652E+03  0.000000000E+00  0.00000E+00  9.000E+00
      21    -1     0     0   501   502  0.000000000E+00  0.000000000E+00 -4.443210875E+01  4.443210875E+01  0.000000000E+00  0.00000E+00  9.000E+00
      25     1     1     2     0     0  5.374451653E+01 -1.716093740E+02  4.181143532E+02  4.719987951E+02  1.250000000E+02  0.00000E+00  9.000E+00
      25     1     1     2     0     0 -1.895538910E+01  1.746501178E+02  7.429119324E+02  7.735664869E+02  1.250000000E+02  0.00000E+00  9.000E+00
      21     1     1     2   501   511 -3.478912742E+01 -3.040743838E+00  1.388162573E+02  1.431414783E+02  1.907348633E-06  0.00000E+00  9.000E+00
#rwgt            1           1   2.1893616181648024E-002           1      328370           0
</event>
<event>
      5   9999  3.79277E-02  1.04582E+02 -1.00000E+00  1.22959E-01
      21    -1     0     0   502   512  0.000000000E+00  0.000000000E+00  3.198388756E+02  3.198388756E+02  0.000000000E+00  0.00000E+00  9.000E+00
      21    -1     0     0   501   502  0.000000000E+00  0.000000000E+00 -5.281065384E+02  5.281065384E+02  0.000000000E+00  0.00000E+00  9.000E+00
      25     1     1     2     0     0  1.253404608E+02 -9.512605460E+01 -8.088784165E+01  2.166264995E+02  1.250000000E+02  0.00000E+00  9.000E+00
      25     1     1     2     0     0 -3.041239401E+01  5.123885306E+01 -3.548755877E+02  3.809357118E+02  1.250000000E+02  0.00000E+00  9.000E+00
      21     1     1     2   501   512 -9.492806679E+01  4.388720154E+01  2.274957666E+02  2.503832026E+02  3.814697266E-06  0.00000E+00  9.000E+00
#rwgt            1           1  0.11813765889566701                1      328555           0
</event>
<event>
      5   9999  3.79277E-02  1.90989E+01 -1.00000E+00  1.68038E-01
      21    -1     0     0   502   511  0.000000000E+00  0.000000000E+00  2.095060221E+02  2.095060221E+02  0.000000000E+00  0.00000E+00  9.000E+00
      21    -1     0     0   501   502  0.000000000E+00  0.000000000E+00 -2.262360183E+02  2.262360183E+02  0.000000000E+00  0.00000E+00  9.000E+00
      25     1     1     2     0     0 -1.694565926E+01  6.510147836E+01  7.709906646E+01  1.615383048E+02  1.250000000E+02  0.00000E+00  9.000E+00
      25     1     1     2     0     0  1.094869480E+01 -8.323448381E+01 -1.514108867E+02  2.135371392E+02  1.250000000E+02  0.00000E+00  9.000E+00
      21     1     1     2   501   511  5.996964455E+00  1.813300545E+01  5.758182400E+01  6.066659645E+01  6.743495762E-07  0.00000E+00  9.000E+00
#rwgt            1           1   4.6385582574552039E-002           1      328633           0
</event>
<event>
      5   9999  3.79277E-02  1.15837E+02 -1.00000E+00  1.21023E-01
      21    -1     0     0   512   501  0.000000000E+00  0.000000000E+00  7.145853569E+02  7.145853569E+02  0.000000000E+00  0.00000E+00  9.000E+00
      21    -1     0     0   501   502  0.000000000E+00  0.000000000E+00 -3.356553772E+02  3.356553772E+02  0.000000000E+00  0.00000E+00  9.000E+00
      25     1     1     2     0     0  2.081742614E+02 -2.388057299E+02  1.692662349E+02  3.803166549E+02  1.250000000E+02  0.00000E+00  9.000E+00
      25     1     1     2     0     0 -3.233778937E+02  2.509016321E+02 -2.760468642E+00  4.279690541E+02  1.250000000E+02  0.00000E+00  9.000E+00
      21     1     1     2   512   502  1.152036323E+02 -1.209590220E+01  2.124242135E+02  2.419550252E+02  4.672030912E-06  0.00000E+00  9.000E+00
#rwgt            1           1   4.8907768563025145E-002           1      328843           0
</event>
<event>
      5   9999  3.79277E-02  3.45224E+01 -1.00000E+00  1.48922E-01
      21    -1     0     0   511   501  0.000000000E+00  0.000000000E+00  4.871057476E+02  4.871057476E+02  0.000000000E+00  0.00000E+00  9.000E+00
      21    -1     0     0   501   502  0.000000000E+00  0.000000000E+00 -1.343083222E+02  1.343083222E+02  0.000000000E+00  0.00000E+00  9.000E+00
      25     1     1     2     0     0  1.478463127E+02 -8.319211733E+01  7.459151462E+01  2.235360253E+02  1.250000000E+02  0.00000E+00  9.000E+00
      25     1     1     2     0     0 -1.767662583E+02  1.020449870E+02  1.982419942E+02  3.107802724E+02  1.250000000E+02  0.00000E+00  9.000E+00
      21     1     1     2   511   502  2.891994555E+01 -1.885286968E+01  7.996391658E+01  8.709777208E+01  9.536743164E-07  0.00000E+00  9.000E+00
#rwgt            1           1   3.6769912045299162E-002           1      328992           0
</event>
<event>
      5   9999  3.79277E-02  4.52431E+01 -1.00000E+00  1.41599E-01
      21    -1     0     0   502   501  0.000000000E+00  0.000000000E+00  4.730850397E+02  4.730850397E+02  0.000000000E+00  0.00000E+00  9.000E+00
      21    -1     0     0   512   502  0.000000000E+00  0.000000000E+00 -1.272099031E+02  1.272099031E+02  0.000000000E+00  0.00000E+00  9.000E+00
      25     1     1     2     0     0 -1.170353549E+02 -1.299741194E+02  1.584924027E+02  2.670868543E+02  1.250000000E+02  0.00000E+00  9.000E+00
      25     1     1     2     0     0  1.577815421E+02  1.103097029E+02  1.652922896E+02  2.828600123E+02  1.250000000E+02  0.00000E+00  9.000E+00
      21     1     1     2   512   501 -4.074618716E+01  1.966441644E+01  2.209044428E+01  5.034807613E+01  3.371747881E-07  0.00000E+00  9.000E+00
#rwgt            1           1   2.8925148456767160E-002           1      329249           0
</event>
<event>
      5   9999  3.79277E-02  7.29008E+01 -1.00000E+00  1.30334E-01
      21    -1     0     0   511   501  0.000000000E+00  0.000000000E+00  5.487416875E+02  5.487416875E+02  0.000000000E+00  0.00000E+00  9.000E+00
      21    -1     0     0   501   502  0.000000000E+00  0.000000000E+00 -2.921105554E+02  2.921105554E+02  0.000000000E+00  0.00000E+00  9.000E+00
      25     1     1     2     0     0 -5.954139726E+00  2.865936230E+01  7.217902102E+01  1.472807588E+02  1.250000000E+02  0.00000E+00  9.000E+00
      25     1     1     2     0     0  7.881434592E+01 -2.622773161E+01 -2.289687545E+02  2.737723244E+02  1.250000000E+02  0.00000E+00  9.000E+00
      21     1     1     2   511   502 -7.286020620E+01 -2.431630689E+00  4.134208656E+02  4.197991598E+02  5.394796609E-06  0.00000E+00  9.000E+00
#rwgt            1           1   4.6427447703287550E-002           1      329387           0
</event>
<event>
      5   9999  3.79277E-02  3.64322E+01 -1.00000E+00  1.47402E-01
      21    -1     0     0   502   501  0.000000000E+00  0.000000000E+00  1.087751869E+02  1.087751869E+02  0.000000000E+00  0.00000E+00  9.000E+00
       2    -1     0     0   501     0  0.000000000E+00  0.000000000E+00 -2.150105448E+03  2.150105448E+03  0.000000000E+00  0.00000E+00  9.000E+00
      25     1     1     2     0     0 -2.337547045E+02 -5.103657992E+01 -9.528195326E+01  2.862684841E+02  1.250000000E+02  0.00000E+00  9.000E+00
      25     1     1     2     0     0  2.063112028E+02  7.499826894E+01 -1.231837581E+03  1.257472814E+03  1.250000000E+02  0.00000E+00  9.000E+00
       2     1     1     2   502     0  2.744350173E+01 -2.396168902E+01 -7.142107268E+02  7.151393365E+02  7.629394531E-06  0.00000E+00  9.000E+00
#rwgt            1           1  0.35586343481311683                1      329549           0
</event>
<event>
      5   9999  3.79277E-02  3.52210E+01 -1.00000E+00  1.48353E-01
      21    -1     0     0   502   501  0.000000000E+00  0.000000000E+00  9.478726887E+02  9.478726887E+02  0.000000000E+00  0.00000E+00  9.000E+00
      21    -1     0     0   501   511  0.000000000E+00  0.000000000E+00 -1.599083582E+02  1.599083582E+02  0.000000000E+00  0.00000E+00  9.000E+00
      25     1     1     2     0     0  2.626299423E+01  2.119442191E+02  5.663804791E+01  2.538561903E+02  1.250000000E+02  0.00000E+00  9.000E+00
      25     1     1     2     0     0 -3.907186684E+01 -2.447535934E+02  7.596172007E+02  8.087485541E+02  1.250000000E+02  0.00000E+00  9.000E+00
      21     1     1     2   502   511  1.280887261E+01  3.280937427E+01 -2.829091806E+01  4.517630243E+01  9.536743164E-07  0.00000E+00  9.000E+00
#rwgt            1           1   3.7202239049866880E-002           1      329752           0
</event>
<event>
      5   9999  3.79277E-02  5.73470E+01 -1.00000E+00  1.35761E-01
      21    -1     0     0   512   501  0.000000000E+00  0.000000000E+00  8.599374347E+01  8.599374347E+01  0.000000000E+00  0.00000E+00  9.000E+00
      21    -1     0     0   501   502  0.000000000E+00  0.000000000E+00 -5.017751512E+02  5.017751512E+02  0.000000000E+00  0.00000E+00  9.000E+00
      25     1     1     2     0     0 -1.088620270E+02  4.545241263E+01 -1.863127263E+02  2.534843087E+02  1.250000000E+02  0.00000E+00  9.000E+00
      25     1     1     2     0     0  1.097619633E+02  1.188751240E+01 -2.201453209E+02  2.761846553E+02  1.250000000E+02  0.00000E+00  9.000E+00
      21     1     1     2   512   502 -8.999362973E-01 -5.733992504E+01 -9.323360512E+00  5.809993064E+01  1.294944345E-06  0.00000E+00  9.000E+00
#rwgt            1           1   3.2957270591599405E-002           1      329938           0
</event>
<event>
      5   9999  3.79277E-02  8.49228E+01 -1.00000E+00  1.27107E-01
      21    -1     0     0   502   501  0.000000000E+00  0.000000000E+00  1.501256975E+02  1.501256975E+02  0.000000000E+00  0.00000E+00  9.000E+00
      21    -1     0     0   511   502  0.000000000E+00  0.000000000E+00 -5.187391723E+02  5.187391723E+02  0.000000000E+00  0.00000E+00  9.000E+00
      25     1     1     2     0     0  1.236006261E+01  9.345438666E+01  3.813111575E+01  1.611380635E+02  1.250000000E+02  0.00000E+00  9.000E+00
      25     1     1     2     0     0  3.468977597E+00 -1.768889456E+02 -2.625285139E+02  3.403644421E+02  1.250000000E+02  0.00000E+00  9.000E+00
      21     1     1     2   511   501 -1.582904020E+01  8.343455897E+01 -1.442160767E+02  1.673623641E+02  1.907348633E-06  0.00000E+00  9.000E+00
#rwgt            1           1   1.2475118395655484E-002           1      330020           0
</event>
<event>
      5   9999  3.79277E-02  2.62475E+01 -1.00000E+00  1.57183E-01
      21    -1     0     0   512   501  0.000000000E+00  0.000000000E+00  4.452007081E+01  4.452007081E+01  0.000000000E+00  0.00000E+00  9.000E+00
      21    -1     0     0   501   502  0.000000000E+00  0.000000000E+00 -1.057567161E+03  1.057567161E+03  0.000000000E+00  0.00000E+00  9.000E+00
      25     1     1     2     0     0  1.404361056E+01  7.084076123E+01 -8.715247107E+02  8.834002251E+02  1.250000000E+02  0.00000E+00  9.000E+00
      25     1     1     2     0     0  1.099071906E+01 -6.295326114E+01 -1.166569890E+02  1.825315372E+02  1.250000000E+02  0.00000E+00  9.000E+00
      21     1     1     2   512   502 -2.503432962E+01 -7.887500089E+00 -2.486539011E+01  3.615546905E+01  9.536743164E-07  0.00000E+00  9.000E+00
#rwgt            1           1   5.4124504629734088E-002           1      330108           0
</event>
<event>
      5   9999  3.79277E-02  9.64918E+01 -1.00000E+00  1.24530E-01
      21    -1     0     0   502   501  0.000000000E+00  0.000000000E+00  1.606353272E+02  1.606353272E+02  0.000000000E+00  0.00000E+00  9.000E+00
       2    -1     0     0   501     0  0.000000000E+00  0.000000000E+00 -2.546270667E+03  2.546270667E+03  0.000000000E+00  0.00000E+00  9.000E+00
      25     1     1     2     0     0 -2.331521333E+02 -6.670610240E+01 -2.137267479E+02  3.465742981E+02  1.250000000E+02  0.00000E+00  9.000E+00
      25     1     1     2     0     0  3.170430889E+02  1.143819099E+02 -2.543852521E+02  4.403821045E+02  1.250000000E+02  0.00000E+00  9.000E+00
       2     1     1     2   502     0 -8.389095563E+01 -4.767580747E+01 -1.917523340E+03  1.919949592E+03  2.157918644E-05  0.00000E+00  9.000E+00
#rwgt            2          13   4.1364718225523006E-004           1      330174           0
</event>
<event>
      5   9999  3.79277E-02  6.17174E+01 -1.00000E+00  1.34052E-01
       3    -1     0     0   502     0  0.000000000E+00  0.000000000E+00  2.478204963E+02  2.478204963E+02  0.000000000E+00  0.00000E+00  9.000E+00
      21    -1     0     0   501   502  0.000000000E+00  0.000000000E+00 -1.190529901E+03  1.190529901E+03  0.000000000E+00  0.00000E+00  9.000E+00
      25     1     1     2     0     0  1.338078921E+02  2.972515537E+01 -4.974681520E+02  5.309309740E+02  1.250000000E+02  0.00000E+00  9.000E+00
      25     1     1     2     0     0 -9.208764534E+01 -7.520552058E+01 -6.609304558E+02  6.830739873E+02  1.250000000E+02  0.00000E+00  9.000E+00
       3     1     1     2   501     0 -4.172024675E+01  4.548036520E+01  2.156892028E+02  2.243454363E+02  2.697398305E-06  0.00000E+00  9.000E+00
#rwgt            1           1   3.4051048804313797E-002           1      330253           0
</event>
<event>
      5   9999  3.79277E-02  6.78802E+01 -1.00000E+00  1.31901E-01
      21    -1     0     0   502   501  0.000000000E+00  0.000000000E+00  7.126203363E+01  7.126203363E+01  0.000000000E+00  0.00000E+00  9.000E+00
       2    -1     0     0   501     0  0.000000000E+00  0.000000000E+00 -1.247812027E+03  1.247812027E+03  0.000000000E+00  0.00000E+00  9.000E+00
      25     1     1     2     0     0 -5.909728779E+01  8.753114806E+01 -1.326686424E+02  2.106659915E+02  1.250000000E+02  0.00000E+00  9.000E+00
      25     1     1     2     0     0  1.224151910E+02 -1.119968105E+02 -3.210485812E+02  3.823950262E+02  1.250000000E+02  0.00000E+00  9.000E+00
       2     1     1     2   502     0 -6.331790322E+01  2.446566242E+01 -7.228327698E+02  7.260130430E+02  1.321449896E-05  0.00000E+00  9.000E+00
#rwgt            1           1  0.12490123859790041                1      330386           0
</event>
<event>
      5   9999  3.79277E-02  4.51621E+01 -1.00000E+00  1.41645E-01
      21    -1     0     0   502   501  0.000000000E+00  0.000000000E+00  6.288764769E+02  6.288764769E+02  0.000000000E+00  0.00000E+00  9.000E+00
      21    -1     0     0   511   502  0.000000000E+00  0.000000000E+00 -1.057877248E+03  1.057877248E+03  0.000000000E+00  0.00000E+00  9.000E+00
      25     1     1     2     0     0  9.197453111E+01 -3.144615759E+01  3.240447571E+02  3.606635271E+02  1.250000000E+02  0.00000E+00  9.000E+00
      25     1     1     2     0     0 -1.370120097E+02  3.479955219E+01  2.548923805E+02  3.171410179E+02  1.250000000E+02  0.00000E+00  9.000E+00
      21     1     1     2   511   501  4.503747859E+01 -3.353394598E+00 -1.007937909E+03  1.008949180E+03  1.078959322E-05  0.00000E+00  9.000E+00
#rwgt            1           1   4.2446303904990781E-002           1      330512           0
</event>
<event>
      5   9999  3.79277E-02  1.23669E+02 -1.00000E+00  1.19816E-01
       2    -1     0     0   502     0  0.000000000E+00  0.000000000E+00  2.941121734E+02  2.941121734E+02  0.000000000E+00  0.00000E+00  9.000E+00
      21    -1     0     0   501   502  0.000000000E+00  0.000000000E+00 -1.468703393E+03  1.468703393E+03  0.000000000E+00  0.00000E+00  9.000E+00
      25     1     1     2     0     0 -9.353172088E+01 -2.824957961E+01 -2.356536502E+02  2.840842559E+02  1.250000000E+02  0.00000E+00  9.000E+00
      25     1     1     2     0     0  1.739151804E+02 -6.573181833E+01 -1.183585577E+03  1.204602416E+03  1.250000000E+02  0.00000E+00  9.000E+00
       2     1     1     2   501     0 -8.038345947E+01  9.398139794E+01  2.446480072E+02  2.741288952E+02  6.607249480E-06  0.00000E+00  9.000E+00
#rwgt            2          18   1.3178387603354799E-003           1      330664           0
</event>
<event>
      5   9999  3.79277E-02  2.31594E+01 -1.00000E+00  1.61279E-01
      21    -1     0     0   502   511  0.000000000E+00  0.000000000E+00  4.974989276E+02  4.974989276E+02  0.000000000E+00  0.00000E+00  9.000E+00
      21    -1     0     0   501   502  0.000000000E+00  0.000000000E+00 -4.523427759E+02  4.523427759E+02  0.000000000E+00  0.00000E+00  9.000E+00
      25     1     1     2     0     0 -1.719013401E+02 -1.876726370E+02 -2.200768842E+02  3.589288570E+02  1.250000000E+02  0.00000E+00  9.000E+00
      25     1     1     2     0     0  1.858104006E+02  1.691552120E+02 -4.115505071E+01  2.836507164E+02  1.250000000E+02  0.00000E+00  9.000E+00
      21     1     1     2   501   511 -1.390906048E+01  1.851742497E+01  3.063880866E+02  3.072621301E+02  3.814697266E-06  0.00000E+00  9.000E+00
#rwgt            1           1   3.1421996021981320E-002           1      330698           0
</event>
<event>
      5   9999  3.79277E-02  2.11410E+01 -1.00000E+00  1.64405E-01
      21    -1     0     0   502   512  0.000000000E+00  0.000000000E+00  2.512564336E+02  2.512564336E+02  0.000000000E+00  0.00000E+00  9.000E+00
      21    -1     0     0   501   502  0.000000000E+00  0.000000000E+00 -1.992010247E+02  1.992010247E+02  0.000000000E+00  0.00000E+00  9.000E+00
      25     1     1     2     0     0 -8.129227936E+01 -1.009817661E+02  1.170998480E+02  2.148095113E+02  1.250000000E+02  0.00000E+00  9.000E+00
      25     1     1     2     0     0  1.014953168E+02  1.072090672E+02 -8.043403383E+01  2.094987284E+02  1.250000000E+02  0.00000E+00  9.000E+00
      21     1     1     2   501   512 -2.020303747E+01 -6.227301059E+00  1.538959475E+01  2.614921850E+01  2.920019320E-07  0.00000E+00  9.000E+00
#rwgt            1           1   2.4939078288847793E-002           1      331048           0
</event>
<event>
      5   9999  3.79277E-02  3.25529E+01 -1.00000E+00  1.50616E-01
      21    -1     0     0   502   501  0.000000000E+00  0.000000000E+00  5.796341036E+02  5.796341036E+02  0.000000000E+00  0.00000E+00  9.000E+00
      21    -1     0     0   511   502  0.000000000E+00  0.000000000E+00 -7.762588451E+02  7.762588451E+02  0.000000000E+00  0.00000E+00  9.000E+00
      25     1     1     2     0     0  1.074345875E+02  3.979707622E+01 -5.852202072E+01  1.793762102E+02  1.250000000E+02  0.00000E+00  9.000E+00
      25     1     1     2     0     0 -1.040195462E+02 -7.217036773E+01  5.035409370E+02  5.340478473E+02  1.250000000E+02  0.00000E+00  9.000E+00
      21     1     1     2   511   501 -3.415041290E+00  3.237329151E+01 -6.416436579E+02  6.424688912E+02  1.321449896E-05  0.00000E+00  9.000E+00
#rwgt            1           1   4.5188252679079367E-002           1      331212           0
</event>
<event>
      5   9999  3.79277E-02  1.37900E+02 -1.00000E+00  1.17860E-01
      21    -1     0     0   502   501  0.000000000E+00  0.000000000E+00  2.455215493E+02  2.455215493E+02  0.000000000E+00  0.00000E+00  9.000E+00
       2    -1     0     0   501     0  0.000000000E+00  0.000000000E+00 -1.298542433E+03  1.298542433E+03  0.000000000E+00  0.00000E+00  9.000E+00
      25     1     1     2     0     0  1.180661751E+02  1.280882027E+02  8.524382316E+01  2.307330032E+02  1.250000000E+02  0.00000E+00  9.000E+00
      25     1     1     2     0     0 -5.701314281E+01 -4.439363492E+00  2.687217548E+01  1.400618443E+02  1.250000000E+02  0.00000E+00  9.000E+00
       2     1     1     2   502     0 -6.105303225E+01 -1.236488392E+02 -1.165136882E+03  1.173269135E+03  1.525878906E-05  0.00000E+00  9.000E+00
#rwgt            1           1   3.3479262071873732E-002           1      331348           0
</event>
<event>
      5   9999  3.79277E-02  1.72938E+02 -1.00000E+00  1.13996E-01
      21    -1     0     0   502   501  0.000000000E+00  0.000000000E+00  7.799606907E+02  7.799606907E+02  0.000000000E+00  0.00000E+00  9.000E+00
      21    -1     0     0   501   511  0.000000000E+00  0.000000000E+00 -1.649032999E+02  1.649032999E+02  0.000000000E+00  0.00000E+00  9.000E+00
      25     1     1     2     0     0 -1.476422894E+02  2.142833545E+02  4.321118168E+02  5.196741516E+02  1.250000000E+02  0.00000E+00  9.000E+00
      25     1     1     2     0     0  1.624815032E+02 -4.198310509E+01  8.063151724E+01  2.242526735E+02  1.250000000E+02  0.00000E+00  9.000E+00
      21     1     1     2   502   511 -1.483921387E+01 -1.723002495E+02  1.023140567E+02  2.009371654E+02  2.697398305E-06  0.00000E+00  9.000E+00
#rwgt            1           1   3.6108775151389591E-002           1      331476           0
</event>
<event>
      5   9999  3.79277E-02  5.38460E+00 -1.00000E+00  2.33028E-01
      21    -1     0     0   512   501  0.000000000E+00  0.000000000E+00  4.259695652E+02  4.259695652E+02  0.000000000E+00  0.00000E+00  9.000E+00
      21    -1     0     0   501   502  0.000000000E+00  0.000000000E+00 -1.026639804E+02  1.026639804E+02  0.000000000E+00  0.00000E+00  9.000E+00
      25     1     1     2     0     0 -7.349868984E+01 -1.091789045E+02  2.374841791E+02  2.989077214E+02  1.250000000E+02  0.00000E+00  9.000E+00
      25     1     1     2     0     0  7.852942511E+01  1.110986964E+02  4.714484480E+01  1.906762369E+02  1.250000000E+02  0.00000E+00  9.000E+00
      21     1     1     2   512   502 -5.030735273E+00 -1.919791838E+00  3.867656086E+01  3.904958717E+01  4.768371582E-07  0.00000E+00  9.000E+00
#rwgt            1           1   4.1204648208822553E-002           1      331532           0
</event>
<event>
      5   9999  3.79277E-02  6.77309E+01 -1.00000E+00  1.31950E-01
       2    -1     0     0   502     0  0.000000000E+00  0.000000000E+00  1.012835510E+03  1.012835510E+03  0.000000000E+00  0.00000E+00  9.000E+00
      21    -1     0     0   501   502  0.000000000E+00  0.000000000E+00 -7.487307152E+01  7.487307152E+01  0.000000000E+00  0.00000E+00  9.000E+00
      25     1     1     2     0     0 -1.615009941E+02  1.066608356E+02  2.250567449E+02  3.220786292E+02  1.250000000E+02  0.00000E+00  9.000E+00
      25     1     1     2     0     0  9.672324852E+01 -1.264424597E+02  4.380408528E+02  4.825431288E+02  1.250000000E+02  0.00000E+00  9.000E+00
       2     1     1     2   501     0  6.477774560E+01  1.978162406E+01  2.748648409E+02  2.830868237E+02  5.394796609E-06  0.00000E+00  9.000E+00
#rwgt            1           1   8.8001057159690282E-002           1      331844           0
</event>
<event>
      5   9999  3.79277E-02  8.48179E+01 -1.00000E+00  1.27132E-01
      21    -1     0     0   502   501  0.000000000E+00  0.000000000E+00  2.540801945E+02  2.540801945E+02  0.000000000E+00  0.00000E+00  9.000E+00
      21    -1     0     0   501   511  0.000000000E+00  0.000000000E+00 -4.158208693E+02  4.158208693E+02  0.000000000E+00  0.00000E+00  9.000E+00
      25     1     1     2     0     0  7.219403166E+01 -1.226476721E+02  8.161943424E+01  2.062550889E+02  1.250000000E+02  0.00000E+00  9.000E+00
      25     1     1     2     0     0 -1.237064796E+02  1.900312802E+02 -6.623288678E+01  2.672582568E+02  1.250000000E+02  0.00000E+00  9.000E+00
      21     1     1     2   502   511  5.151244790E+01 -6.738360815E+01 -1.771272222E+02  1.963877180E+02  1.907348633E-06  0.00000E+00  9.000E+00
#rwgt            1           1   4.0624362804289833E-002           1      331951           0
</event>
<event>
      5   9999  3.79277E-02  3.29863E+01 -1.00000E+00  1.50231E-01
      21    -1     0     0   512   501  0.000000000E+00  0.000000000E+00  9.766153597E+01  9.766153597E+01  0.000000000E+00  0.00000E+00  9.000E+00
      21    -1     0     0   501   502  0.000000000E+00  0.000000000E+00 -4.320691799E+02  4.320691799E+02  0.000000000E+00  0.00000E+00  9.000E+00
      25     1     1     2     0     0  4.541088095E+01  5.666893308E+01 -1.693088498E+01  1.455512657E+02  1.250000000E+02  0.00000E+00  9.000E+00
      25     1     1     2     0     0 -6.885177057E+01 -7.987717118E+01 -3.097918796E+02  3.503097736E+02  1.250000000E+02  0.00000E+00  9.000E+00
      21     1     1     2   512   502  2.344088961E+01  2.320823810E+01 -7.684879354E+00  3.386967659E+01  3.371747881E-07  0.00000E+00  9.000E+00
#rwgt            1           1   5.3216633332737628E-002           1      332125           0
</event>
<event>
      5   9999  3.79277E-02  5.57532E+01 -1.00000E+00  1.36429E-01
      21    -1     0     0   502   501  0.000000000E+00  0.000000000E+00  1.016751869E+03  1.016751869E+03  0.000000000E+00  0.00000E+00  9.000E+00
      21    -1     0     0   501   511  0.000000000E+00  0.000000000E+00 -7.435746289E+01  7.435746289E+01  0.000000000E+00  0.00000E+00  9.000E+00
      25     1     1     2     0     0 -1.622529966E+02 -3.682300255E+01  1.533494734E+02  2.585015075E+02  1.250000000E+02  0.00000E+00  9.000E+00
      25     1     1     2     0     0  1.065997000E+02  3.348691650E+01  7.387001637E+02  7.574878227E+02  1.250000000E+02  0.00000E+00  9.000E+00
      21     1     1     2   502   511  5.565329653E+01  3.336086049E+00  5.034476904E+01  7.512000170E+01  1.168007728E-06  0.00000E+00  9.000E+00
#rwgt            1           1   3.0711320502716657E-002           1      332594           0
</event>
<event>
      5   9999  3.79277E-02  1.63627E+01 -1.00000E+00  1.73898E-01
      21    -1     0     0   512   501  0.000000000E+00  0.000000000E+00  7.712288011E+02  7.712288011E+02  0.000000000E+00  0.00000E+00  9.000E+00
      21    -1     0     0   501   502  0.000000000E+00  0.000000000E+00 -1.649261078E+02  1.649261078E+02  0.000000000E+00  0.00000E+00  9.000E+00
      25     1     1     2     0     0  1.492368149E+02  1.560728274E+02  4.232939060E+02  4.913584081E+02  1.250000000E+02  0.00000E+00  9.000E+00
      25     1     1     2     0     0 -1.655335095E+02 -1.546047054E+02 -2.349912248E+00  2.587169878E+02  1.250000000E+02  0.00000E+00  9.000E+00
      21     1     1     2   512   502  1.629669462E+01 -1.468121989E+00  1.853586996E+02  1.860795130E+02  2.697398305E-06  0.00000E+00  9.000E+00
#rwgt            1           1   3.3981109388608668E-002           1      332682           0
</event>
<event>
      5   9999  3.79277E-02  3.05629E+01 -1.00000E+00  1.52481E-01
      21    -1     0     0   502   501  0.000000000E+00  0.000000000E+00  1.196717245E+02  1.196717245E+02  0.000000000E+00  0.00000E+00  9.000E+00
      21    -1     0     0   511   502  0.000000000E+00  0.000000000E+00 -7.688552704E+02  7.688552704E+02  0.000000000E+00  0.00000E+00  9.000E+00
      25     1     1     2     0     0  2.062163438E+02  1.670427657E+02 -3.735646413E+02  4.749779018E+02  1.250000000E+02  0.00000E+00  9.000E+00
      25     1     1     2     0     0 -1.757570488E+02 -1.645282227E+02 -2.167739961E+02  3.472406106E+02  1.250000000E+02  0.00000E+00  9.000E+00
      21     1     1     2   511   501 -3.045929496E+01 -2.514543029E+00 -5.884490863E+01  6.630848247E+01  6.743495762E-07  0.00000E+00  9.000E+00
#rwgt            1           1   2.7487587968055085E-002           1      332899           0
</event>
<event>
      5   9999  3.79277E-02  1.97866E+01 -1.00000E+00  1.66754E-01
      21    -1     0     0   512   501  0.000000000E+00  0.000000000E+00  6.060932784E+01  6.060932784E+01  0.000000000E+00  0.00000E+00  9.000E+00
      21    -1     0     0   501   502  0.000000000E+00  0.000000000E+00 -8.828223484E+02  8.828223484E+02  0.000000000E+00  0.00000E+00  9.000E+00
      25     1     1     2     0     0  2.999122865E+01  3.488263874E+01 -4.763675269E+01  1.414585893E+02  1.250000000E+02  0.00000E+00  9.000E+00
      25     1     1     2     0     0 -3.870706143E+01 -1.711906428E+01 -7.705645546E+02  7.817838779E+02  1.250000000E+02  0.00000E+00  9.000E+00
      21     1     1     2   512   502  8.715832780E+00 -1.776357446E+01 -4.011713298E+00  2.018920905E+01  1.460009660E-07  0.00000E+00  9.000E+00
#rwgt            1           1   5.0342289405015804E-002           1      333004           0
</event>
<event>
      5   9999  3.79277E-02  1.45175E+02  7.55638E-03  1.16959E-01
      -2    -1     0     0     0   501  0.000000000E+00  0.000000000E+00  2.088206087E+03  2.088206087E+03  0.000000000E+00  0.00000E+00  9.000E+00
       2    -1     0     0   502     0  0.000000000E+00  0.000000000E+00 -2.929290825E+01  2.929290825E+01  0.000000000E+00  0.00000E+00  9.000E+00
      25     1     1     2     0     0  9.905054345E+01  6.755696597E+01  4.960733308E+02  5.254414367E+02  1.250000000E+02  0.00000E+00  9.000E+00
      25     1     1     2     0     0  4.325413114E+01 -3.883279999E+01  4.758526090E+02  4.954186227E+02  1.250000000E+02  0.00000E+00  9.000E+00
      21     1     1     2   502   501 -1.423046746E+02 -2.872416598E+01  1.086987239E+03  1.096638936E+03  1.525878906E-05  0.00000E+00  9.000E+00
#rwgt            3           4   1.4420306250267478E-004           1      333354           0
</event>
<event>
      5   9999  3.79277E-02  1.45123E+02 -1.00000E+00  1.16965E-01
       2    -1     0     0   502     0  0.000000000E+00  0.000000000E+00  3.024687443E+03  3.024687443E+03  0.000000000E+00  0.00000E+00  9.000E+00
      21    -1     0     0   501   502  0.000000000E+00  0.000000000E+00 -6.840777638E+01  6.840777638E+01  0.000000000E+00  0.00000E+00  9.000E+00
      25     1     1     2     0     0  1.284613974E+02  1.611623154E+02  2.664064223E+02  3.592673160E+02  1.250000000E+02  0.00000E+00  9.000E+00
      25     1     1     2     0     0 -1.452019413E+02 -1.700853018E+01  4.516245028E+02  4.908794001E+02  1.250000000E+02  0.00000E+00  9.000E+00
       2     1     1     2   501     0  1.674054391E+01 -1.441537852E+02  2.238248741E+03  2.242948503E+03  0.000000000E+00  0.00000E+00  9.000E+00
#rwgt            1           1   4.3143715111109142E-002           1      333418           0
</event>
<event>
      5   9999  3.79277E-02  4.41842E+01 -1.00000E+00  1.42210E-01
      21    -1     0     0   502   511  0.000000000E+00  0.000000000E+00  1.574746274E+02  1.574746274E+02  0.000000000E+00  0.00000E+00  9.000E+00
      21    -1     0     0   501   502  0.000000000E+00  0.000000000E+00 -7.167999509E+02  7.167999509E+02  0.000000000E+00  0.00000E+00  9.000E+00
      25     1     1     2     0     0 -2.385693231E+02 -1.038259330E+02 -4.949420527E+02  5.729640319E+02  1.250000000E+02  0.00000E+00  9.000E+00
      25     1     1     2     0     0  1.994196496E+02  8.334304756E+01 -6.084317977E+01  2.569847325E+02  1.250000000E+02  0.00000E+00  9.000E+00
      21     1     1     2   501   511  3.914967351E+01  2.048288545E+01 -3.540091069E+00  4.432581389E+01  3.839760639E-07  0.00000E+00  9.000E+00
#rwgt            2          11   3.0358600861445611E-003           1      333502           0
</event>
<event>
      5   9999  3.79277E-02  4.86872E+01 -1.00000E+00  1.39738E-01
      21    -1     0     0   502   512  0.000000000E+00  0.000000000E+00  8.483247133E+02  8.483247133E+02  0.000000000E+00  0.00000E+00  9.000E+00
      21    -1     0     0   501   502  0.000000000E+00  0.000000000E+00 -3.668994175E+02  3.668994175E+02  0.000000000E+00  0.00000E+00  9.000E+00
      25     1     1     2     0     0  3.310503260E+02  2.701044706E+02 -8.711136196E+01  4.536123155E+02  1.250000000E+02  0.00000E+00  9.000E+00
      25     1     1     2     0     0 -3.551038094E+02 -2.277739851E+02  4.318866535E+02  6.165474720E+02  1.250000000E+02  0.00000E+00  9.000E+00
      21     1     1     2   501   512  2.405348341E+01 -4.233048550E+01  1.366500042E+02  1.450643434E+02  1.907348633E-06  0.00000E+00  9.000E+00
#rwgt            1           1  0.10590178469673452                1      333537           0
</event>
<event>
      5   9999  3.79277E-02  3.15727E+01 -1.00000E+00  1.51514E-01
      21    -1     0     0   502   511  0.000000000E+00  0.000000000E+00  1.989696050E+02  1.989696050E+02  0.000000000E+00  0.00000E+00  9.000E+00
      21    -1     0     0   501   502  0.000000000E+00  0.000000000E+00 -4.624400029E+02  4.624400029E+02  0.000000000E+00  0.00000E+00  9.000E+00
      25     1     1     2     0     0  7.788521064E+01 -8.375981509E+01 -3.746488601E+02  4.111794997E+02  1.250000000E+02  0.00000E+00  9.000E+00
      25     1     1     2     0     0 -9.622565430E+01  1.094593431E+02  8.888801152E+01  2.115816696E+02  1.250000000E+02  0.00000E+00  9.000E+00
      21     1     1     2   501   511  1.834044365E+01 -2.569952800E+01  2.229045063E+01  3.864843855E+01  4.129530925E-07  0.00000E+00  9.000E+00
#rwgt            1           1   3.1478730969704931E-002           1      333788           0
</event>
<event>
      5   9999  3.79277E-02  1.29156E+02 -1.00000E+00  1.19028E-01
      21    -1     0     0   512   501  0.000000000E+00  0.000000000E+00  1.400642775E+02  1.400642775E+02  0.000000000E+00  0.00000E+00  9.000E+00
      21    -1     0     0   501   502  0.000000000E+00  0.000000000E+00 -1.063961988E+03  1.063961988E+03  0.000000000E+00  0.00000E+00  9.000E+00
      25     1     1     2     0     0 -1.640122203E+02 -8.609261126E+00 -2.980789710E+02  3.625606167E+02  1.250000000E+02  0.00000E+00  9.000E+00
      25     1     1     2     0     0  2.587011850E+02 -7.922693006E+01 -6.453438896E+02  7.108424196E+02  1.250000000E+02  0.00000E+00  9.000E+00
      21     1     1     2   512   502 -9.468896469E+01  8.783619118E+01  1.952515029E+01  1.306232292E+02  3.829569436E-06  0.00000E+00  9.000E+00
#rwgt            1           1   3.6867302464694829E-002           1      333985           0
</event>
<event>
      5   9999  3.79277E-02  2.01394E+01 -1.00000E+00  1.66120E-01
      21    -1     0     0   502   501  0.000000000E+00  0.000000000E+00  2.664669415E+02  2.664669415E+02  0.000000000E+00  0.00000E+00  9.000E+00
      21    -1     0     0   511   502  0.000000000E+00  0.000000000E+00 -2.784551487E+02  2.784551487E+02  0.000000000E+00  0.00000E+00  9.000E+00
      25     1     1     2     0     0  1.481519805E+02  8.311708032E+01  1.415431859E+02  2.540018344E+02  1.250000000E+02  0.00000E+00  9.000E+00
      25     1     1     2     0     0 -1.682439049E+02 -8.449972171E+01 -1.476197073E+02  2.699310884E+02  1.250000000E+02  0.00000E+00  9.000E+00
      21     1     1     2   511   501  2.009192437E+01  1.382641391E+00 -5.911685811E+00  2.098916747E+01  1.685873940E-07  0.00000E+00  9.000E+00
#rwgt            1           1   4.2989399375060619E-002           1      334112           0
</event>
<event>
      5   9999  3.79277E-02  2.66143E+01 -1.00000E+00  1.56742E-01
      21    -1     0     0   502   501  0.000000000E+00  0.000000000E+00  7.662839180E+02  7.662839180E+02  0.000000000E+00  0.00000E+00  9.000E+00
      21    -1     0     0   501   512  0.000000000E+00  0.000000000E+00 -1.017690682E+02  1.017690682E+02  0.000000000E+00  0.00000E+00  9.000E+00
      25     1     1     2     0     0  1.632796991E+02 -1.123776834E+02  1.868873019E+02  2.997346618E+02  1.250000000E+02  0.00000E+00  9.000E+00
      25     1     1     2     0     0 -1.710440260E+02  1.378342728E+02  4.790832608E+02  5.416642100E+02  1.250000000E+02  0.00000E+00  9.000E+00
      21     1     1     2   502   512  7.764326862E+00 -2.545658938E+01 -1.455712882E+00  2.665411440E+01  4.193558478E-07  0.00000E+00  9.000E+00
#rwgt            1           1   3.2490249042864648E-002           1      334288           0
</event>
<event>
      5   9999  3.79277E-02  1.60412E+02 -1.00000E+00  1.15250E-01
      21    -1     0     0   502   511  0.000000000E+00  0.000000000E+00  3.536421796E+02  3.536421796E+02  0.000000000E+00  0.00000E+00  9.000E+00
      21    -1     0     0   501   502  0.000000000E+00  0.000000000E+00 -2.328826211E+02  2.328826211E+02  0.000000000E+00  0.00000E+00  9.000E+00
      25     1     1     2     0     0  1.921732530E+02  6.271598506E+01  3.939936450E+01  2.409173383E+02  1.250000000E+02  0.00000E+00  9.000E+00
      25     1     1     2     0     0 -7.686536366E+01  4.880163650E+01 -1.988327191E+01  1.559173767E+02  1.250000000E+02  0.00000E+00  9.000E+00
      21     1     1     2   501   511 -1.153078893E+02 -1.115176216E+02  1.012434658E+02  1.896900857E+02  3.015782986E-06  0.00000E+00  9.000E+00
#rwgt            1           1   4.8255800498035920E-002           1      334423           0
</event>
<event>
      5   9999 -3.79277E-02  1.64933E+02 -1.00000E+00  1.14783E-01
      21    -1     0     0   502   501  0.000000000E+00  0.000000000E+00  4.948897000E+02  4.948897000E+02  0.000000000E+00  0.00000E+00  9.000E+00
       1    -1     0     0   501     0  0.000000000E+00  0.000000000E+00 -5.154870053E+02  5.154870053E+02  0.000000000E+00  0.00000E+00  9.000E+00
      25     1     1     2     0     0 -1.371982699E+02 -1.240595207E+02  1.945108547E+02  2.960972856E+02  1.250000000E+02  0.00000E+00  9.000E+00
      25     1     1     2     0     0  1.808562588E+02 -3.499040071E+01  1.798999026E+02  2.862207006E+02  1.250000000E+02  0.00000E+00  9.000E+00
       1     1     1     2   502     0 -4.365798889E+01  1.590499214E+02 -3.950080626E+02  4.280587191E+02  0.000000000E+00  0.00000E+00  9.000E+00
#rwgt            1           1 -0.17018491834633656                1      334655           0
</event>
<event>
      5   9999  3.79277E-02  2.58535E+01 -1.00000E+00  1.57667E-01
      21    -1     0     0   502   501  0.000000000E+00  0.000000000E+00  5.522165041E+01  5.522165041E+01  0.000000000E+00  0.00000E+00  9.000E+00
      21    -1     0     0   511   502  0.000000000E+00  0.000000000E+00 -1.093776823E+03  1.093776823E+03  0.000000000E+00  0.00000E+00  9.000E+00
      25     1     1     2     0     0 -3.821892481E+01  1.113082658E+02 -7.749031234E+02  7.936939378E+02  1.250000000E+02  0.00000E+00  9.000E+00
      25     1     1     2     0     0  1.746675881E+01 -1.267273829E+02 -1.350168458E+02  2.240970010E+02  1.250000000E+02  0.00000E+00  9.000E+00
      21     1     1     2   511   501  2.075216600E+01  1.541911709E+01 -1.286352032E+02  1.312075344E+02  1.907348633E-06  0.00000E+00  9.000E+00
#rwgt            1           1   3.8892940747072322E-002           1      334822           0
</event>
<event>
      5   9999  3.79277E-02  3.11458E+01 -1.00000E+00  1.51918E-01
      21    -1     0     0   512   501  0.000000000E+00  0.000000000E+00  2.901643194E+02  2.901643194E+02  0.000000000E+00  0.00000E+00  9.000E+00
      21    -1     0     0   501   502  0.000000000E+00  0.000000000E+00 -1.304274854E+02  1.304274854E+02  0.000000000E+00  0.00000E+00  9.000E+00
      25     1     1     2     0     0  3.715303359E+01 -9.307537826E+01 -1.878268613E+01  1.613107660E+02  1.250000000E+02  0.00000E+00  9.000E+00
      25     1     1     2     0     0 -6.044926702E+00  9.460653230E+01  1.480517283E+02  2.157110367E+02  1.250000000E+02  0.00000E+00  9.000E+00
      21     1     1     2   512   502 -3.110810689E+01 -1.531154046E+00  3.046779182E+01  4.357000212E+01  3.371747881E-07  0.00000E+00  9.000E+00
#rwgt            1           1   3.8633974811608678E-002           1      335115           0
</event>
<event>
      5   9999  3.79277E-02  7.42135E+01 -1.00000E+00  1.29948E-01
      21    -1     0     0   502   501  0.000000000E+00  0.000000000E+00  5.879306212E+02  5.879306212E+02  0.000000000E+00  0.00000E+00  9.000E+00
      21    -1     0     0   511   502  0.000000000E+00  0.000000000E+00 -2.349143062E+02  2.349143062E+02  0.000000000E+00  0.00000E+00  9.000E+00
      25     1     1     2     0     0 -7.059347959E+01 -3.113188832E+02  2.562594221E+02  4.280149271E+02  1.250000000E+02  0.00000E+00  9.000E+00
      25     1     1     2     0     0  1.722179734E+01  2.597523263E+02  1.259911159E+02  3.150660607E+02  1.250000000E+02  0.00000E+00  9.000E+00
      21     1     1     2   511   501  5.337168225E+01  5.156655693E+01 -2.923422301E+01  7.976393956E+01  1.877309769E-06  0.00000E+00  9.000E+00
#rwgt            1           1   3.1782091699315805E-002           1      335223           0
</event>
<event>
      5   9999  3.79277E-02  5.01067E+01 -1.00000E+00  1.39023E-01
      21    -1     0     0   502   501  0.000000000E+00  0.000000000E+00  3.257229268E+02  3.257229268E+02  0.000000000E+00  0.00000E+00  9.000E+00
      21    -1     0     0   512   502  0.000000000E+00  0.000000000E+00 -3.476618450E+02  3.476618450E+02  0.000000000E+00  0.00000E+00  9.000E+00
      25     1     1     2     0     0  2.064962405E+02  6.685798391E+01  5.862610473E+01  2.572405635E+02  1.250000000E+02  0.00000E+00  9.000E+00
      25     1     1     2     0     0 -1.857099951E+02 -1.124498426E+02  6.781488280E+01  2.595323250E+02  1.250000000E+02  0.00000E+00  9.000E+00
      21     1     1     2   512   501 -2.078624540E+01  4.559185871E+01 -1.483799058E+02  1.566118834E+02  1.907348633E-06  0.00000E+00  9.000E+00
#rwgt            1           1   2.9662867766666216E-002           1      335342           0
</event>
<event>
      5   9999  3.79277E-02  1.98202E+01 -1.00000E+00  1.66693E-01
       1    -1     0     0   502     0  0.000000000E+00  0.000000000E+00  2.323666265E+03  2.323666265E+03  0.000000000E+00  0.00000E+00  9.000E+00
      21    -1     0     0   501   502  0.000000000E+00  0.000000000E+00 -6.465128116E+02  6.465128116E+02  0.000000000E+00  0.00000E+00  9.000E+00
      25     1     1     2     0     0 -7.042300714E+01 -9.869307750E+01 -2.404611802E+02  2.968944302E+02  1.250000000E+02  0.00000E+00  9.000E+00
      25     1     1     2     0     0  5.710124229E+01  1.133686451E+02 -3.567895183E+02  3.987941347E+02  1.250000000E+02  0.00000E+00  9.000E+00
       1     1     1     2   501     0  1.332176485E+01 -1.467556757E+01  2.274404152E+03  2.274490511E+03  0.000000000E+00  0.00000E+00  9.000E+00
#rwgt            1           1   4.1358974366853506E-002           1      335497           0
</event>
<event>
      5   9999  3.79277E-02  2.16765E+02 -1.00000E+00  1.10390E-01
      21    -1     0     0   502   501  0.000000000E+00  0.000000000E+00  1.171906115E+03  1.171906115E+03  0.000000000E+00  0.00000E+00  9.000E+00
       1    -1     0     0   501     0  0.000000000E+00  0.000000000E+00 -1.054042196E+03  1.054042196E+03  0.000000000E+00  0.00000E+00  9.000E+00
      25     1     1     2     0     0 -2.750475615E+02  3.728739655E+01  4.622947809E+02  5.535187219E+02  1.250000000E+02  0.00000E+00  9.000E+00
      25     1     1     2     0     0  6.974222626E+01  3.226029520E+01  6.440026347E+02  6.605066981E+02  1.250000000E+02  0.00000E+00  9.000E+00
       1     1     1     2   502     0  2.053053352E+02 -6.954769175E+01 -9.884334963E+02  1.011922892E+03  1.078959322E-05  0.00000E+00  9.000E+00
#rwgt            1           1   3.6872203646666137E-002           1      335687           0
</event>
<event>
      5   9999  3.79277E-02  4.85431E+01 -1.00000E+00  1.39812E-01
      21    -1     0     0   502   501  0.000000000E+00  0.000000000E+00  8.605288397E+02  8.605288397E+02  0.000000000E+00  0.00000E+00  9.000E+00
      21    -1     0     0   501   511  0.000000000E+00  0.000000000E+00 -5.695907786E+01  5.695907786E+01  0.000000000E+00  0.00000E+00  9.000E+00
      25     1     1     2     0     0 -1.166262132E+02 -5.886089877E+01  2.945472790E+02  3.456144942E+02  1.250000000E+02  0.00000E+00  9.000E+00
      25     1     1     2     0     0  7.176913076E+01  7.741546240E+01  4.950103968E+02  5.213484966E+02  1.250000000E+02  0.00000E+00  9.000E+00
      21     1     1     2   502   511  4.485708242E+01 -1.855456363E+01  1.401208603E+01  5.052492682E+01  1.143415337E-06  0.00000E+00  9.000E+00
#rwgt            1           1   4.5887952172511015E-002           1      335761           0
</event>
<event>
      5   9999  3.79277E-02  7.19615E+01 -1.00000E+00  1.30616E-01
       2    -1     0     0   502     0  0.000000000E+00  0.000000000E+00  2.908890486E+03  2.908890486E+03  0.000000000E+00  0.00000E+00  9.000E+00
      21    -1     0     0   501   502  0.000000000E+00  0.000000000E+00 -2.526533141E+01  2.526533141E+01  0.000000000E+00  0.00000E+00  9.000E+00
      25     1     1     2     0     0  1.214464166E+02 -1.440580786E+02  7.093643600E+02  7.445298902E+02  1.250000000E+02  0.00000E+00  9.000E+00
      25     1     1     2     0     0 -9.512282986E+01  7.708396808E+01  1.801897826E+03  1.810373184E+03  1.250000000E+02  0.00000E+00  9.000E+00
       2     1     1     2   501     0 -2.632358677E+01  6.697411051E+01  3.723629694E+02  3.792527438E+02  0.000000000E+00  0.00000E+00  9.000E+00
#rwgt            1           1   6.3019586724416446E-002           1      335916           0
</event>
<event>
      5   9999  3.79277E-02  3.95971E+01 -1.00000E+00  1.45113E-01
       2    -1     0     0   502     0  0.000000000E+00  0.000000000E+00  2.318103215E+02  2.318103215E+02  0.000000000E+00  0.00000E+00  9.000E+00
      21    -1     0     0   501   502  0.000000000E+00  0.000000000E+00 -5.141883796E+02  5.141883796E+02  0.000000000E+00  0.00000E+00  9.000E+00
      25     1     1     2     0     0  1.401483774E+02  9.696583294E+01 -1.860320068E+02  2.815614463E+02  1.250000000E+02  0.00000E+00  9.000E+00
      25     1     1     2     0     0 -1.414660587E+02 -1.365410157E+02 -2.285876804E+02  3.263945808E+02  1.250000000E+02  0.00000E+00  9.000E+00
       2     1     1     2   501     0  1.317681289E+00  3.957518273E+01  1.322416292E+02  1.380426741E+02  1.907348633E-06  0.00000E+00  9.000E+00
#rwgt            1           1   3.2497242236768802E-002           1      336108           0
</event>
<event>
      5   9999 -3.79277E-02  3.17240E+01 -1.00000E+00  1.51373E-01
      21    -1     0     0   502   501  0.000000000E+00  0.000000000E+00  2.318526467E+03  2.318526467E+03  0.000000000E+00  0.00000E+00  9.000E+00
      21    -1     0     0   511   502  0.000000000E+00  0.000000000E+00 -1.278409984E+02  1.278409984E+02  0.000000000E+00  0.00000E+00  9.000E+00
      25     1     1     2     0     0  1.351218467E+02  1.257969711E+02  5.505418849E+02  5.939731967E+02  1.250000000E+02  0.00000E+00  9.000E+00
      25     1     1     2     0     0 -1.118466591E+02 -1.473533176E+02  1.736580223E+03  1.750873652E+03  1.250000000E+02  0.00000E+00  9.000E+00
      21     1     1     2   511   501 -2.327518762E+01  2.155634652E+01 -9.643663860E+01  1.015206171E+02  5.878843310E-06  0.00000E+00  9.000E+00
#rwgt            1           1  -2.9498918602182896E-002           1      336317           0
</event>
<event>
      5   9999  3.79277E-02  1.85328E+01 -1.00000E+00  1.69146E-01
      21    -1     0     0   512   501  0.000000000E+00  0.000000000E+00  7.725233040E+01  7.725233040E+01  0.000000000E+00  0.00000E+00  9.000E+00
      21    -1     0     0   501   502  0.000000000E+00  0.000000000E+00 -1.000556284E+03  1.000556284E+03  0.000000000E+00  0.00000E+00  9.000E+00
      25     1     1     2     0     0  3.001431115E+01 -1.305258400E+02 -5.877813517E+02  6.156701805E+02  1.250000000E+02  0.00000E+00  9.000E+00
      25     1     1     2     0     0 -1.150303175E+01  1.314184472E+02 -3.760015896E+02  4.176186339E+02  1.250000000E+02  0.00000E+00  9.000E+00
      21     1     1     2   512   502 -1.851127940E+01 -8.926071964E-01  4.047898730E+01  4.451980038E+01  9.536743164E-07  0.00000E+00  9.000E+00
#rwgt            1           1   3.5804179034210654E-002           1      336430           0
</event>
<event>
      5   9999  3.79277E-02  4.05920E+01 -1.00000E+00  1.44446E-01
      21    -1     0     0   502   511  0.000000000E+00  0.000000000E+00  1.792880373E+02  1.792880373E+02  0.000000000E+00  0.00000E+00  9.000E+00
      21    -1     0     0   501   502  0.000000000E+00  0.000000000E+00 -6.068983614E+02  6.068983614E+02  0.000000000E+00  0.00000E+00  9.000E+00
      25     1     1     2     0     0  8.546299557E+01 -1.500706216E+02 -4.966938552E+02  5.405135529E+02  1.250000000E+02  0.00000E+00  9.000E+00
      25     1     1     2     0     0 -9.697636011E+01  1.111456644E+02  4.514128997E+01  1.985459876E+02  1.250000000E+02  0.00000E+00  9.000E+00
      21     1     1     2   501   511  1.151336454E+01  3.892495717E+01  2.394224107E+01  4.712685818E+01  0.000000000E+00  0.00000E+00  9.000E+00
#rwgt            1           1   3.5433943702244036E-002           1      336727           0
</event>
<event>
      5   9999  3.79277E-02  2.81605E+01 -1.00000E+00  1.54973E-01
      21    -1     0     0   502   501  0.000000000E+00  0.000000000E+00  8.667399505E+01  8.667399505E+01  0.000000000E+00  0.00000E+00  9.000E+00
      21    -1     0     0   512   502  0.000000000E+00  0.000000000E+00 -8.014742153E+02  8.014742153E+02  0.000000000E+00  0.00000E+00  9.000E+00
      25     1     1     2     0     0 -8.382298351E+01  2.674670302E+01 -6.005808890E+02  6.197290399E+02  1.250000000E+02  0.00000E+00  9.000E+00
      25     1     1     2     0     0  1.058472727E+02 -4.429503962E+01 -2.092043305E+01  1.709630375E+02  1.250000000E+02  0.00000E+00  9.000E+00
      21     1     1     2   512   501 -2.202428922E+01  1.754833660E+01 -9.329889823E+01  9.745613292E+01  0.000000000E+00  0.00000E+00  9.000E+00
#rwgt            1           1   2.0222858063543396E-002           1      336858           0
</event>
<event>
      5   9999  3.79277E-02  8.85190E+00 -1.00000E+00  2.02086E-01
      21    -1     0     0   502   501  0.000000000E+00  0.000000000E+00  1.214923716E+03  1.214923716E+03  0.000000000E+00  0.00000E+00  9.000E+00
      21    -1     0     0   501   511  0.000000000E+00  0.000000000E+00 -3.693002627E+01  3.693002627E+01  0.000000000E+00  0.00000E+00  9.000E+00
      25     1     1     2     0     0  1.305225815E+02  5.782467358E+01  4.119789477E+02  4.535763337E+02  1.250000000E+02  0.00000E+00  9.000E+00
      25     1     1     2     0     0 -1.237508309E+02 -6.352551451E+01  7.669074162E+02  7.893806079E+02  1.250000000E+02  0.00000E+00  9.000E+00
      21     1     1     2   502   511 -6.771750596E+00  5.700840930E+00 -8.926742243E-01  8.896800589E+00  3.551356580E-07  0.00000E+00  9.000E+00
#rwgt            1           1   3.1963506045382138E-002           1      337095           0
</event>
<event>
      5   9999  3.79277E-02  9.51361E+01 -1.00000E+00  1.24810E-01
      21    -1     0     0   502   512  0.000000000E+00  0.000000000E+00  9.781011979E+02  9.781011979E+02  0.000000000E+00  0.00000E+00  9.000E+00
      21    -1     0     0   501   502  0.000000000E+00  0.000000000E+00 -3.565273605E+02  3.565273605E+02  0.000000000E+00  0.00000E+00  9.000E+00
      25     1     1     2     0     0  3.253163075E+02 -3.538153911E+02  4.725361538E+02  6.855154612E+02  1.250000000E+02  0.00000E+00  9.000E+00
      25     1     1     2     0     0 -2.773838838E+02  4.359941702E+02  9.619999966E+01  5.402889739E+02  1.250000000E+02  0.00000E+00  9.000E+00
      21     1     1     2   501   512 -4.793242370E+01 -8.217877909E+01  5.283768389E+01  1.088241233E+02  1.507891493E-06  0.00000E+00  9.000E+00
#rwgt            1           1   9.5244831646462566E-002           1      337353           0
</event>
<event>
      5   9999  3.79277E-02  1.34424E+01 -1.00000E+00  1.81990E-01
      21    -1     0     0   502   501  0.000000000E+00  0.000000000E+00  1.119993816E+02  1.119993816E+02  0.000000000E+00  0.00000E+00  9.000E+00
      21    -1     0     0   501   511  0.000000000E+00  0.000000000E+00 -4.071384359E+02  4.071384359E+02  0.000000000E+00  0.00000E+00  9.000E+00
      25     1     1     2     0     0  2.153258731E+01  3.550574153E+01  5.053036932E+01  1.410766750E+02  1.250000000E+02  0.00000E+00  9.000E+00
      25     1     1     2     0     0 -2.161144919E+01 -2.206361822E+01 -2.476330569E+02  2.791074862E+02  1.250000000E+02  0.00000E+00  9.000E+00
      21     1     1     2   502   511  7.886187832E-02 -1.344212330E+01 -9.803636676E+01  9.895365635E+01  0.000000000E+00  0.00000E+00  9.000E+00
#rwgt            1           1   5.3318560518561521E-002           1      337541           0
</event>
<event>
      5   9999  3.79277E-02  5.88481E+01 -1.00000E+00  1.35155E-01
      21    -1     0     0   502   512  0.000000000E+00  0.000000000E+00  4.007077344E+02  4.007077344E+02  0.000000000E+00  0.00000E+00  9.000E+00
      21    -1     0     0   501   502  0.000000000E+00  0.000000000E+00 -2.806599332E+02  2.806599332E+02  0.000000000E+00  0.00000E+00  9.000E+00
      25     1     1     2     0     0 -9.487327716E+01 -2.606972403E+02 -3.504548229E+01  3.062958956E+02  1.250000000E+02  0.00000E+00  9.000E+00
      25     1     1     2     0     0  3.936317422E+01  2.411593756E+02  9.367857803E+01  2.900137581E+02  1.250000000E+02  0.00000E+00  9.000E+00
      21     1     1     2   501   512  5.551010294E+01  1.953786469E+01  6.141470541E+01  8.505801388E+01  0.000000000E+00  0.00000E+00  9.000E+00
#rwgt            1           1   2.1682047574934173E-002           1      337792           0
</event>
<event>
      5   9999  3.79277E-02  1.35743E+02 -1.00000E+00  1.18139E-01
      21    -1     0     0   502   501  0.000000000E+00  0.000000000E+00  8.102825463E+02  8.102825463E+02  0.000000000E+00  0.00000E+00  9.000E+00
      21    -1     0     0   501   511  0.000000000E+00  0.000000000E+00 -4.274512595E+02  4.274512595E+02  0.000000000E+00  0.00000E+00  9.000E+00
      25     1     1     2     0     0  8.948834103E+00 -2.575802918E+02  4.971541929E+02  5.737725855E+02  1.250000000E+02  0.00000E+00  9.000E+00
      25     1     1     2     0     0  1.254394751E+02  2.767122928E+02  1.543235014E+02  3.629676266E+02  1.250000000E+02  0.00000E+00  9.000E+00
      21     1     1     2   502   511 -1.343883092E+02 -1.913200093E+01 -2.686464075E+02  3.009935936E+02  6.607249480E-06  0.00000E+00  9.000E+00
#rwgt            1           1  0.19118373970036859                1      337896           0
</event>
<event>
      5   9999  3.79277E-02  4.17474E+01 -1.00000E+00  1.43698E-01
      21    -1     0     0   512   501  0.000000000E+00  0.000000000E+00  1.490808781E+02  1.490808781E+02  0.000000000E+00  0.00000E+00  9.000E+00
      21    -1     0     0   501   502  0.000000000E+00  0.000000000E+00 -5.610163391E+02  5.610163391E+02  0.000000000E+00  0.00000E+00  9.000E+00
      25     1     1     2     0     0  1.333596966E+02 -4.865822528E+01 -4.353096437E+02  4.746281887E+02  1.250000000E+02  0.00000E+00  9.000E+00
      25     1     1     2     0     0 -1.389408439E+02  7.285532873E+00  3.869838937E+01  1.909979121E+02  1.250000000E+02  0.00000E+00  9.000E+00
      21     1     1     2   512   502  5.581147322E+00  4.137269240E+01 -1.532420663E+01  4.447111637E+01  1.685873940E-07  0.00000E+00  9.000E+00
#rwgt            1           1  0.14850215683895887                1      337965           0
</event>
<event>
      5   9999  3.79277E-02  1.64740E+01 -1.00000E+00  1.73632E-01
      21    -1     0     0   511   501  0.000000000E+00  0.000000000E+00  5.444556623E+02  5.444556623E+02  0.000000000E+00  0.00000E+00  9.000E+00
      21    -1     0     0   501   502  0.000000000E+00  0.000000000E+00 -3.072391693E+02  3.072391693E+02  0.000000000E+00  0.00000E+00  9.000E+00
      25     1     1     2     0     0 -2.453496074E+01  9.396368588E+01  2.346019502E+01  1.600203716E+02  1.250000000E+02  0.00000E+00  9.000E+00
      25     1     1     2     0     0  2.472155286E+01 -7.749070721E+01 -2.155170986E+02  2.620850714E+02  1.250000000E+02  0.00000E+00  9.000E+00
      21     1     1     2   511   502 -1.865921258E-01 -1.647297867E+01  4.292733965E+02  4.295893886E+02  5.394796609E-06  0.00000E+00  9.000E+00
#rwgt            1           1   2.6432738185294399E-002           1      338116           0
</event>
<event>
      5   9999  3.79277E-02  3.17178E+01 -1.00000E+00  1.51379E-01
      21    -1     0     0   502   501  0.000000000E+00  0.000000000E+00  3.172896560E+01  3.172896560E+01  0.000000000E+00  0.00000E+00  9.000E+00
       2    -1     0     0   501     0  0.000000000E+00  0.000000000E+00 -1.743188397E+03  1.743188397E+03  0.000000000E+00  0.00000E+00  9.000E+00
      25     1     1     2     0     0 -3.322018302E+01 -1.697876003E+02 -5.496249246E+02  5.896134052E+02  1.250000000E+02  0.00000E+00  9.000E+00
      25     1     1     2     0     0  1.854520711E+01  1.416688998E+02 -8.058371645E+02  8.278964534E+02  1.250000000E+02  0.00000E+00  9.000E+00
       2     1     1     2   502     0  1.467497591E+01  2.811870050E+01 -3.559973427E+02  3.574075044E+02  5.394796609E-06  0.00000E+00  9.000E+00
#rwgt            1           1  0.14316950969495268                1      338255           0
</event>
<event>
      5   9999  3.79277E-02  1.94356E+01 -1.00000E+00  1.67401E-01
      -5    -1     0     0     0   501  0.000000000E+00  0.000000000E+00  8.943765035E+01  8.943765035E+01  0.000000000E+00  0.00000E+00  9.000E+00
      21    -1     0     0   501   502  0.000000000E+00  0.000000000E+00 -1.037272874E+03  1.037272874E+03  0.000000000E+00  0.00000E+00  9.000E+00
      25     1     1     2     0     0  1.777315602E+02  9.885083526E+01 -4.613007727E+02  5.194067751E+02  1.250000000E+02  0.00000E+00  9.000E+00
      25     1     1     2     0     0 -1.840083116E+02 -8.045671012E+01 -5.184894785E+02  5.699023428E+02  1.250000000E+02  0.00000E+00  9.000E+00
      -5     1     1     2     0   502  6.276751378E+00 -1.839412515E+01  3.195502739E+01  3.740140670E+01  6.743495762E-07  0.00000E+00  9.000E+00
#rwgt            1           1   3.2859065960422242E-002           1      338433           0
</event>
<event>
      5   9999  3.79277E-02  4.18087E+01 -1.00000E+00  1.43659E-01
       2    -1     0     0   502     0  0.000000000E+00  0.000000000E+00  1.657954513E+03  1.657954513E+03  0.000000000E+00  0.00000E+00  9.000E+00
      21    -1     0     0   501   502  0.000000000E+00  0.000000000E+00 -8.859263040E+02  8.859263040E+02  0.000000000E+00  0.00000E+00  9.000E+00
      25     1     1     2     0     0  1.872445466E+02 -2.749582619E+02 -6.615841416E+02  7.509867791E+02  1.250000000E+02  0.00000E+00  9.000E+00
      25     1     1     2     0     0 -1.538231699E+02  2.498389249E+02 -3.756866203E+01  3.211190750E+02  1.250000000E+02  0.00000E+00  9.000E+00
       2     1     1     2   501     0 -3.342137669E+01  2.511933700E+01  1.471181012E+03  1.471774962E+03  2.157918644E-05  0.00000E+00  9.000E+00
#rwgt            1           1   9.0272737274101386E-002           1      338662           0
</event>
<event>
      5   9999  3.79277E-02  1.05623E+01 -1.00000E+00  1.93050E-01
      21    -1     0     0   502   501  0.000000000E+00  0.000000000E+00  1.038100821E+03  1.038100821E+03  0.000000000E+00  0.00000E+00  9.000E+00
      21    -1     0     0   511   502  0.000000000E+00  0.000000000E+00 -1.380411452E+02  1.380411452E+02  0.000000000E+00  0.00000E+00  9.000E+00
      25     1     1     2     0     0  7.056370285E+01 -7.402101459E+01  7.934277222E+02  8.096980283E+02  1.250000000E+02  0.00000E+00  9.000E+00
      25     1     1     2     0     0 -7.645954620E+01  6.525739542E+01  2.090411238E+02  2.634915204E+02  1.250000000E+02  0.00000E+00  9.000E+00
      21     1     1     2   511   501  5.895843341E+00  8.763619171E+00 -1.024091706E+02  1.029524172E+02  1.348699152E-06  0.00000E+00  9.000E+00
#rwgt            2          11   1.7283515815489736E-003           1      338854           0
</event>
<event>
      5   9999  3.79277E-02  1.06005E+01 -1.00000E+00  1.92874E-01
      21    -1     0     0   512   501  0.000000000E+00  0.000000000E+00  7.015790065E+02  7.015790065E+02  0.000000000E+00  0.00000E+00  9.000E+00
      21    -1     0     0   501   502  0.000000000E+00  0.000000000E+00 -8.803076253E+01  8.803076253E+01  0.000000000E+00  0.00000E+00  9.000E+00
      25     1     1     2     0     0  4.554610806E+01  1.690236450E+01  5.320276925E+02  5.486698492E+02  1.250000000E+02  0.00000E+00  9.000E+00
      25     1     1     2     0     0 -3.627614780E+01 -2.204412611E+01 -2.460655458E+01  1.342847159E+02  1.250000000E+02  0.00000E+00  9.000E+00
      21     1     1     2   512   502 -9.269960259E+00  5.141761613E+00  1.061271061E+02  1.066552039E+02  0.000000000E+00  0.00000E+00  9.000E+00
#rwgt            1           1   3.4532926985379749E-002           1      338994           0
</event>
<event>
      5   9999  3.79277E-02  1.61427E+02 -1.00000E+00  1.15144E-01
      21    -1     0     0   502   501  0.000000000E+00  0.000000000E+00  2.667005989E+02  2.667005989E+02  0.000000000E+00  0.00000E+00  9.000E+00
      21    -1     0     0   501   511  0.000000000E+00  0.000000000E+00 -3.713051071E+02  3.713051071E+02  0.000000000E+00  0.00000E+00  9.000E+00
      25     1     1     2     0     0 -1.112601104E+02  1.515434512E+02 -3.828343302E+01  2.289865739E+02  1.250000000E+02  0.00000E+00  9.000E+00
      25     1     1     2     0     0  1.392073817E+02  7.445819540E+00  6.780718585E+01  1.991405278E+02  1.250000000E+02  0.00000E+00  9.000E+00
      21     1     1     2   502   511 -2.794727131E+01 -1.589892708E+02 -1.341282610E+02  2.098786044E+02  0.000000000E+00  0.00000E+00  9.000E+00
#rwgt            1           1   3.8976652948450659E-002           1      339261           0
</event>
<event>
      5   9999  3.79277E-02  4.25848E+01 -1.00000E+00  1.43174E-01
      21    -1     0     0   512   501  0.000000000E+00  0.000000000E+00  3.431196747E+02  3.431196747E+02  0.000000000E+00  0.00000E+00  9.000E+00
      21    -1     0     0   501   502  0.000000000E+00  0.000000000E+00 -3.897013801E+02  3.897013801E+02  0.000000000E+00  0.00000E+00  9.000E+00
      25     1     1     2     0     0  1.444347970E+02  1.769922501E+02  1.345356849E+02  2.931083719E+02  1.250000000E+02  0.00000E+00  9.000E+00
      25     1     1     2     0     0 -1.795688892E+02 -2.010558623E+02 -2.293583723E+02  3.753647675E+02  1.250000000E+02  0.00000E+00  9.000E+00
      21     1     1     2   512   502  3.513409212E+01  2.406361226E+01  4.824098194E+01  6.434791529E+01  9.536743164E-07  0.00000E+00  9.000E+00
#rwgt            1           1   3.4675063459531440E-002           1      339354           0
</event>
<event>
      5   9999  3.79277E-02  7.55421E+01 -1.00000E+00  1.29566E-01
      21    -1     0     0   511   501  0.000000000E+00  0.000000000E+00  1.775550813E+02  1.775550813E+02  0.000000000E+00  0.00000E+00  9.000E+00
      21    -1     0     0   501   502  0.000000000E+00  0.000000000E+00 -3.816319597E+02  3.816319597E+02  0.000000000E+00  0.00000E+00  9.000E+00
      25     1     1     2     0     0  2.491105761E+01  9.914386316E+00 -2.785247818E+02  3.064635540E+02  1.250000000E+02  0.00000E+00  9.000E+00
      25     1     1     2     0     0 -4.912724152E+01  6.164111307E+01  1.610691660E+00  1.477860176E+02  1.250000000E+02  0.00000E+00  9.000E+00
      21     1     1     2   511   502  2.421618391E+01 -7.155549938E+01  7.283721172E+01  1.049374693E+02  2.132480600E-06  0.00000E+00  9.000E+00
#rwgt            1           1   3.2873711279112490E-002           1      339500           0
</event>
<event>
      5   9999  3.79277E-02  5.35058E+01 -1.00000E+00  1.37417E-01
      21    -1     0     0   502   501  0.000000000E+00  0.000000000E+00  2.512719485E+02  2.512719485E+02  0.000000000E+00  0.00000E+00  9.000E+00
       2    -1     0     0   501     0  0.000000000E+00  0.000000000E+00 -1.222081188E+03  1.222081188E+03  0.000000000E+00  0.00000E+00  9.000E+00
      25     1     1     2     0     0  8.075133681E+01 -1.086607394E+02 -7.310018452E+01  1.982336290E+02  1.250000000E+02  0.00000E+00  9.000E+00
      25     1     1     2     0     0 -4.074983508E+01  1.441958944E+02  1.373824234E+02  2.386460461E+02  1.250000000E+02  0.00000E+00  9.000E+00
       2     1     1     2   502     0 -4.000150173E+01 -3.553515498E+01 -1.035091478E+03  1.036473461E+03  0.000000000E+00  0.00000E+00  9.000E+00
#rwgt            1           1   6.0206736153916161E-002           1      339574           0
</event>
<event>
      5   9999  3.79277E-02  8.38356E+00 -1.00000E+00  2.05046E-01
      21    -1     0     0   502   511  0.000000000E+00  0.000000000E+00  3.752078033E+02  3.752078033E+02  0.000000000E+00  0.00000E+00  9.000E+00
      21    -1     0     0   501   502  0.000000000E+00  0.000000000E+00 -1.345682411E+02  1.345682411E+02  0.000000000E+00  0.00000E+00  9.000E+00
      25     1     1     2     0     0  7.366659098E+01  5.093812856E+01 -6.270947567E+01  1.660690757E+02  1.250000000E+02  0.00000E+00  9.000E+00
      25     1     1     2     0     0 -7.456500592E+01 -4.260284868E+01  2.738476116E+02  3.130374693E+02  1.250000000E+02  0.00000E+00  9.000E+00
      21     1     1     2   501   511  8.984149428E-01 -8.335279876E+00  2.950142631E+01  3.066949941E+01  3.371747881E-07  0.00000E+00  9.000E+00
#rwgt            1           1   3.2238491023614764E-002           1      339713           0
</event>
<event>
      5   9999  3.79277E-02  5.17702E+01 -1.00000E+00  1.38219E-01
      21    -1     0     0   502   501  0.000000000E+00  0.000000000E+00  4.351624152E+02  4.351624152E+02  0.000000000E+00  0.00000E+00  9.000E+00
      21    -1     0     0   501   512  0.000000000E+00  0.000000000E+00 -1.534280714E+02  1.534280714E+02  0.000000000E+00  0.00000E+00  9.000E+00
      25     1     1     2     0     0  1.874835784E+01 -1.098738140E+01 -9.086432747E+01  1.560562382E+02  1.250000000E+02  0.00000E+00  9.000E+00
      25     1     1     2     0     0 -4.416735869E+00  6.073437299E+01  3.489237525E+02  3.756074503E+02  1.250000000E+02  0.00000E+00  9.000E+00
      21     1     1     2   502   512 -1.433162197E+01 -4.974699159E+01  2.367491876E+01  5.692679807E+01  1.066240300E-06  0.00000E+00  9.000E+00
#rwgt            1           1   4.6151878489114742E-002           1      340121           0
</event>
<event>
      5   9999  3.79277E-02  6.36075E+01 -1.00000E+00  1.33362E-01
      -2    -1     0     0     0   501  0.000000000E+00  0.000000000E+00  2.776152579E+02  2.776152579E+02  0.000000000E+00  0.00000E+00  9.000E+00
      21    -1     0     0   501   502  0.000000000E+00  0.000000000E+00 -4.443925026E+02  4.443925026E+02  0.000000000E+00  0.00000E+00  9.000E+00
      25     1     1     2     0     0  8.765822519E+01  2.916538313E+01 -3.628209547E+02  3.947133507E+02  1.250000000E+02  0.00000E+00  9.000E+00
      25     1     1     2     0     0 -2.861886333E+01 -5.495446629E+00  7.793435936E+00  1.285884012E+02  1.250000000E+02  0.00000E+00  9.000E+00
      -2     1     1     2     0   502 -5.903936186E+01 -2.366993650E+01  1.882502741E+02  1.987060086E+02  2.697398305E-06  0.00000E+00  9.000E+00
#rwgt            1           1   3.5131081262891765E-002           1      340205           0
</event>
<event>
      5   9999  3.79277E-02  4.01571E+02 -1.00000E+00  1.01634E-01
      21    -1     0     0   511   501  0.000000000E+00  0.000000000E+00  3.353496975E+02  3.353496975E+02  0.000000000E+00  0.00000E+00  9.000E+00
      21    -1     0     0   501   502  0.000000000E+00  0.000000000E+00 -7.186014609E+02  7.186014609E+02  0.000000000E+00  0.00000E+00  9.000E+00
      25     1     1     2     0     0  1.060048678E+02  2.604785109E+01 -1.909701809E+02  2.530022382E+02  1.250000000E+02  0.00000E+00  9.000E+00
      25     1     1     2     0     0  5.053288429E+01  3.437559212E+02 -1.446100917E+02  3.965586770E+02  1.250000000E+02  0.00000E+00  9.000E+00
      21     1     1     2   511   502 -1.565377520E+02 -3.698037723E+02 -4.767149085E+01  4.043902432E+02  1.095688371E-05  0.00000E+00  9.000E+00
#rwgt            2          11   2.2955264529132680E-004           1      340389           0
</event>
<event>
      5   9999  3.79277E-02  1.47121E+01 -1.00000E+00  1.78180E-01
      21    -1     0     0   512   501  0.000000000E+00  0.000000000E+00  2.749297020E+02  2.749297020E+02  0.000000000E+00  0.00000E+00  9.000E+00
      21    -1     0     0   501   502  0.000000000E+00  0.000000000E+00 -1.631755051E+02  1.631755051E+02  0.000000000E+00  0.00000E+00  9.000E+00
      25     1     1     2     0     0  1.048796135E+02 -1.117317207E+02  6.809219506E+01  2.091536702E+02  1.250000000E+02  0.00000E+00  9.000E+00
      25     1     1     2     0     0 -1.102956102E+02  1.254106609E+02  3.403036205E+01  2.113670292E+02  1.250000000E+02  0.00000E+00  9.000E+00
      21     1     1     2   512   502  5.415996697E+00 -1.367894023E+01  9.631639709E+00  1.758450766E+01  5.057621821E-07  0.00000E+00  9.000E+00
#rwgt            1           1   1.5393214750153017E-002           1      340484           0
</event>
<event>
      5   9999  3.79277E-02  2.54221E+01 -1.00000E+00  1.58208E-01
      21    -1     0     0   502   501  0.000000000E+00  0.000000000E+00  2.448208263E+02  2.448208263E+02  0.000000000E+00  0.00000E+00  9.000E+00
      21    -1     0     0   511   502  0.000000000E+00  0.000000000E+00 -1.937332625E+02  1.937332625E+02  0.000000000E+00  0.00000E+00  9.000E+00
      25     1     1     2     0     0 -4.667533036E+01  1.407447995E+02 -4.103001774E+01  1.982325589E+02  1.250000000E+02  0.00000E+00  9.000E+00
      25     1     1     2     0     0  7.052108159E+01 -1.319320305E+02  9.026987953E+01  2.148323411E+02  1.250000000E+02  0.00000E+00  9.000E+00
      21     1     1     2   511   501 -2.384575123E+01 -8.812768992E+00  1.847702003E+00  2.548918892E+01  3.532549617E-07  0.00000E+00  9.000E+00
#rwgt            1           1   3.6812616256268159E-002           1      340737           0
</event>
<event>
      5   9999  3.79277E-02  7.78694E+01 -1.00000E+00  1.28919E-01
      21    -1     0     0   502   501  0.000000000E+00  0.000000000E+00  6.702638810E+02  6.702638810E+02  0.000000000E+00  0.00000E+00  9.000E+00
      21    -1     0     0   501   512  0.000000000E+00  0.000000000E+00 -9.258743629E+01  9.258743629E+01  0.000000000E+00  0.00000E+00  9.000E+00
      25     1     1     2     0     0 -9.824300337E+01 -2.944820559E+01  4.605573006E+02  4.881156745E+02  1.250000000E+02  0.00000E+00  9.000E+00
      25     1     1     2     0     0  4.483934119E+01  8.612001408E+01  3.606225045E+01  1.623351756E+02  1.250000000E+02  0.00000E+00  9.000E+00
      21     1     1     2   502   512  5.340366218E+01 -5.667180850E+01  8.105689366E+01  1.124004672E+02  1.651812370E-06  0.00000E+00  9.000E+00
#rwgt            1           1   5.2188862334758467E-002           1      340856           0
</event>
<event>
      5   9999 -3.79277E-02  2.37384E+01 -1.00000E+00  1.60454E-01
      21    -1     0     0   502   501  0.000000000E+00  0.000000000E+00  1.155174073E+02  1.155174073E+02  0.000000000E+00  0.00000E+00  9.000E+00
      21    -1     0     0   511   502  0.000000000E+00  0.000000000E+00 -4.751089089E+02  4.751089089E+02  0.000000000E+00  0.00000E+00  9.000E+00
      25     1     1     2     0     0  6.386662397E+01  2.813262092E+01  3.732858229E+01  1.479486839E+02  1.250000000E+02  0.00000E+00  9.000E+00
      25     1     1     2     0     0 -8.584500663E+01 -1.916260266E+01 -2.439528564E+02  2.878794307E+02  1.250000000E+02  0.00000E+00  9.000E+00
      21     1     1     2   511   501  2.197838266E+01 -8.970018258E+00 -1.529672275E+02  1.547982016E+02  1.907348633E-06  0.00000E+00  9.000E+00
#rwgt            1           1  -1.7041996728451782E-002           1      340950           0
</event>
<event>
      5   9999  3.79277E-02  3.77167E+01 -1.00000E+00  1.46441E-01
      21    -1     0     0   512   501  0.000000000E+00  0.000000000E+00  2.039364272E+02  2.039364272E+02  0.000000000E+00  0.00000E+00  9.000E+00
      21    -1     0     0   501   502  0.000000000E+00  0.000000000E+00 -2.550530781E+02  2.550530781E+02  0.000000000E+00  0.00000E+00  9.000E+00
      25     1     1     2     0     0 -9.822824618E+01 -1.526247347E+02 -6.421875455E+01  2.295476997E+02  1.250000000E+02  0.00000E+00  9.000E+00
      25     1     1     2     0     0  7.230620587E+01  1.252277572E+02  1.457270777E+01  1.916964851E+02  1.250000000E+02  0.00000E+00  9.000E+00
      21     1     1     2   512   502  2.592204031E+01  2.739697753E+01 -1.470604113E+00  3.774532061E+01  3.839760639E-07  0.00000E+00  9.000E+00
#rwgt            1           1   4.3954843671217284E-002           1      341250           0
</event>
<event>
      5   9999  3.79277E-02  3.28195E+01 -1.00000E+00  1.50379E-01
      21    -1     0     0   502   501  0.000000000E+00  0.000000000E+00  1.021050139E+03  1.021050139E+03  0.000000000E+00  0.00000E+00  9.000E+00
       1    -1     0     0   501     0  0.000000000E+00  0.000000000E+00 -5.004320574E+02  5.004320574E+02  0.000000000E+00  0.00000E+00  9.000E+00
      25     1     1     2     0     0 -1.428604881E+02 -2.330006423E+02  7.401320898E+02  7.988234653E+02  1.250000000E+02  0.00000E+00  9.000E+00
      25     1     1     2     0     0  1.346958219E+02  2.012129651E+02  1.769042774E+02  3.248842026E+02  1.250000000E+02  0.00000E+00  9.000E+00
       1     1     1     2   502     0  8.164666166E+00  3.178767722E+01 -3.964182857E+02  3.977745284E+02  7.629394531E-06  0.00000E+00  9.000E+00
#rwgt            1           1   7.9396556579637206E-002           1      341370           0
</event>
<event>
      5   9999 -3.79277E-02  7.64572E+01 -1.00000E+00  1.29309E-01
      21    -1     0     0   502   501  0.000000000E+00  0.000000000E+00  1.525934722E+02  1.525934722E+02  0.000000000E+00  0.00000E+00  9.000E+00
      -2    -1     0     0     0   502  0.000000000E+00  0.000000000E+00 -3.477001212E+02  3.477001212E+02  0.000000000E+00  0.00000E+00  9.000E+00
      25     1     1     2     0     0 -3.185500195E+01 -1.386619559E+02 -1.054307337E+02  2.167545127E+02  1.250000000E+02  0.00000E+00  9.000E+00
      25     1     1     2     0     0 -4.456279304E+01  1.362082369E+02 -4.664385756E+01  1.958039217E+02  1.250000000E+02  0.00000E+00  9.000E+00
      -2     1     1     2     0   501  7.641779499E+01  2.453719024E+00 -4.303205778E+01  8.773515900E+01  6.743495762E-07  0.00000E+00  9.000E+00
#rwgt            1           1 -0.10600045065642925                1      341502           0
</event>
<event>
      5   9999  3.79277E-02  7.75143E+01  7.55638E-03  1.29017E-01
      -1    -1     0     0     0   501  0.000000000E+00  0.000000000E+00  5.121721808E+02  5.121721808E+02  0.000000000E+00  0.00000E+00  9.000E+00
       1    -1     0     0   502     0  0.000000000E+00  0.000000000E+00 -9.306801695E+01  9.306801695E+01  0.000000000E+00  0.00000E+00  9.000E+00
      25     1     1     2     0     0  3.250115771E+01 -5.554271874E+00  1.010431982E+02  1.640789539E+02  1.250000000E+02  0.00000E+00  9.000E+00
      25     1     1     2     0     0  1.394515304E+01 -5.650385744E+01  3.346046589E+02  3.619011342E+02  1.250000000E+02  0.00000E+00  9.000E+00
      21     1     1     2   502   501 -4.644631075E+01  6.205812932E+01 -1.654369330E+01  7.926010967E+01  1.922192037E-06  0.00000E+00  9.000E+00
#rwgt            3           5   3.5012561701693262E-004           1      341616           0
</event>
<event>
      5   9999  3.79277E-02  8.01053E+01 -1.00000E+00  1.28322E-01
      21    -1     0     0   502   501  0.000000000E+00  0.000000000E+00  3.329010165E+02  3.329010165E+02  0.000000000E+00  0.00000E+00  9.000E+00
      21    -1     0     0   501   511  0.000000000E+00  0.000000000E+00 -2.082673356E+02  2.082673356E+02  0.000000000E+00  0.00000E+00  9.000E+00
      25     1     1     2     0     0  1.703175371E+02 -6.650282473E+01  1.005722849E+02  2.432498173E+02  1.250000000E+02  0.00000E+00  9.000E+00
      25     1     1     2     0     0 -1.759276855E+02 -1.340581999E+01  2.601765298E+01  2.177893129E+02  1.250000000E+02  0.00000E+00  9.000E+00
      21     1     1     2   502   511  5.610148371E+00  7.990864473E+01 -1.956256904E+00  8.012922193E+01  1.355923792E-06  0.00000E+00  9.000E+00
#rwgt            1           1   3.1508750214232134E-002           1      341800           0
</event>
<event>
      5   9999  3.79277E-02  9.49502E+01 -1.00000E+00  1.24849E-01
      21    -1     0     0   502   501  0.000000000E+00  0.000000000E+00  1.982993506E+02  1.982993506E+02  0.000000000E+00  0.00000E+00  9.000E+00
      21    -1     0     0   512   502  0.000000000E+00  0.000000000E+00 -5.304521151E+02  5.304521151E+02  0.000000000E+00  0.00000E+00  9.000E+00
      25     1     1     2     0     0 -1.531503947E+02 -5.914136736E+01  9.135801970E+01  2.256635382E+02  1.250000000E+02  0.00000E+00  9.000E+00
      25     1     1     2     0     0  8.307929252E+01 -4.933501626E+00 -1.446560965E+02  2.085111377E+02  1.250000000E+02  0.00000E+00  9.000E+00
      21     1     1     2   512   501  7.007110217E+01  6.407486899E+01 -2.788546877E+02  2.945767898E+02  5.394796609E-06  0.00000E+00  9.000E+00
#rwgt            1           1   7.7496747065818369E-002           1      341892           0
</event>
<event>
      5   9999  3.79277E-02  3.41266E+01 -1.00000E+00  1.49251E-01
      21    -1     0     0   502   501  0.000000000E+00  0.000000000E+00  5.072872088E+02  5.072872088E+02  0.000000000E+00  0.00000E+00  9.000E+00
      21    -1     0     0   501   511  0.000000000E+00  0.000000000E+00 -2.195091237E+02  2.195091237E+02  0.000000000E+00  0.00000E+00  9.000E+00
      25     1     1     2     0     0  1.010471392E+02 -2.791277281E+02  9.542619473E+01  3.359374519E+02  1.250000000E+02  0.00000E+00  9.000E+00
      25     1     1     2     0     0 -8.187965351E+01  2.508924173E+02  2.023743928E+02  3.552909759E+02  1.250000000E+02  0.00000E+00  9.000E+00
      21     1     1     2   502   511 -1.916748565E+01  2.823531086E+01 -1.002250248E+01  3.556790465E+01  7.996802250E-07  0.00000E+00  9.000E+00
#rwgt            1           1   4.1578194412266040E-002           1      341946           0
</event>
<event>
      5   9999  3.79277E-02  3.91905E+01 -1.00000E+00  1.45393E-01
      21    -1     0     0   502   501  0.000000000E+00  0.000000000E+00  7.129286421E+02  7.129286421E+02  0.000000000E+00  0.00000E+00  9.000E+00
      21    -1     0     0   501   512  0.000000000E+00  0.000000000E+00 -1.053156434E+02  1.053156434E+02  0.000000000E+00  0.00000E+00  9.000E+00
      25     1     1     2     0     0 -8.225318458E+01  1.904539050E+02  2.810872763E+02  3.710435732E+02  1.250000000E+02  0.00000E+00  9.000E+00
      25     1     1     2     0     0  1.178230006E+02 -1.740014266E+02  3.266319854E+02  4.080100610E+02  1.250000000E+02  0.00000E+00  9.000E+00
      21     1     1     2   502   512 -3.556981605E+01 -1.645247842E+01 -1.062630353E-01  3.919065133E+01  8.833347917E-07  0.00000E+00  9.000E+00
#rwgt            1           1   3.2167768375201980E-002           1      342174           0
</event>
<event>
      5   9999  3.79277E-02  4.85593E+01 -1.00000E+00  1.39804E-01
      21    -1     0     0   502   501  0.000000000E+00  0.000000000E+00  6.856081018E+02  6.856081018E+02  0.000000000E+00  0.00000E+00  9.000E+00
      21    -1     0     0   511   502  0.000000000E+00  0.000000000E+00 -2.641977728E+02  2.641977728E+02  0.000000000E+00  0.00000E+00  9.000E+00
      25     1     1     2     0     0 -5.576524631E+01 -9.904358742E+01 -1.683185524E+02  2.384859115E+02  1.250000000E+02  0.00000E+00  9.000E+00
      25     1     1     2     0     0  9.017271760E+01  6.477801414E+01  6.277588867E+02  6.496410778E+02  1.250000000E+02  0.00000E+00  9.000E+00
      21     1     1     2   511   501 -3.440747129E+01  3.426557327E+01 -3.803000535E+01  6.167888536E+01  1.348699152E-06  0.00000E+00  9.000E+00
#rwgt            1           1   4.4952406560760952E-002           1      342302           0
</event>
<event>
      5   9999  3.79277E-02  8.37616E+00 -1.00000E+00  2.05095E-01
      21    -1     0     0   502   512  0.000000000E+00  0.000000000E+00  8.529635702E+02  8.529635702E+02  0.000000000E+00  0.00000E+00  9.000E+00
      21    -1     0     0   501   502  0.000000000E+00  0.000000000E+00 -3.900706360E+01  3.900706360E+01  0.000000000E+00  0.00000E+00  9.000E+00
      25     1     1     2     0     0  5.436071931E+01  1.028445089E+02  4.696218265E+02  4.997016517E+02  1.250000000E+02  0.00000E+00  9.000E+00
      25     1     1     2     0     0 -5.779565194E+01 -9.520505626E+01  2.716077941E+02  3.190613325E+02  1.250000000E+02  0.00000E+00  9.000E+00
      21     1     1     2   501   512  3.434932633E+00 -7.639452623E+00  7.272688607E+01  7.320764957E+01  1.348699152E-06  0.00000E+00  9.000E+00
#rwgt            1           1   3.9534620541818589E-002           1      342500           0
</event>
<event>
      5   9999  3.79277E-02  5.95633E+00 -1.00000E+00  2.25966E-01
      21    -1     0     0   511   501  0.000000000E+00  0.000000000E+00  1.427587230E+02  1.427587230E+02  0.000000000E+00  0.00000E+00  9.000E+00
      21    -1     0     0   501   502  0.000000000E+00  0.000000000E+00 -3.875907318E+02  3.875907318E+02  0.000000000E+00  0.00000E+00  9.000E+00
      25     1     1     2     0     0 -2.562256883E+01  1.154853990E+02 -3.003749524E+02  3.461842074E+02  1.250000000E+02  0.00000E+00  9.000E+00
      25     1     1     2     0     0  2.924756493E+01 -1.107591685E+02  5.465112709E+01  1.781425248E+02  1.250000000E+02  0.00000E+00  9.000E+00
      21     1     1     2   511   502 -3.624996097E+00 -4.726230497E+00  8.918164838E-01  6.022722645E+00  1.064155762E-07  0.00000E+00  9.000E+00
#rwgt            1           1   3.4795742769169573E-002           1      342750           0
</event>
<event>
      5   9999  3.79277E-02  1.07854E+01 -1.00000E+00  1.92036E-01
      21    -1     0     0   502   501  0.000000000E+00  0.000000000E+00  5.418392916E+02  5.418392916E+02  0.000000000E+00  0.00000E+00  9.000E+00
      21    -1     0     0   512   502  0.000000000E+00  0.000000000E+00 -6.871945380E+02  6.871945380E+02  0.000000000E+00  0.00000E+00  9.000E+00
      25     1     1     2     0     0  4.928918326E+02  1.877527630E+02  1.897465688E+02  5.743015053E+02  1.250000000E+02  0.00000E+00  9.000E+00
      25     1     1     2     0     0 -4.992273401E+02 -1.964812892E+02 -3.331390876E+02  6.437697459E+02  1.250000000E+02  0.00000E+00  9.000E+00
      21     1     1     2   512   501  6.335507502E+00  8.728526250E+00 -1.962727529E+00  1.096257840E+01  7.884953353E-08  0.00000E+00  9.000E+00
#rwgt            1           1   4.4993090586488330E-002           1      343134           0
</event>
<event>
      5   9999  3.79277E-02  4.25726E+01 -1.00000E+00  1.43181E-01
      21    -1     0     0   511   501  0.000000000E+00  0.000000000E+00  1.173141500E+02  1.173141500E+02  0.000000000E+00  0.00000E+00  9.000E+00
      21    -1     0     0   501   502  0.000000000E+00  0.000000000E+00 -5.677370774E+02  5.677370774E+02  0.000000000E+00  0.00000E+00  9.000E+00
      25     1     1     2     0     0  2.325122264E+01 -1.948644716E+02 -1.435133145E+02  2.733749314E+02  1.250000000E+02  0.00000E+00  9.000E+00
      25     1     1     2     0     0  1.883476157E+01  1.884461713E+02 -2.833697672E+02  3.630291072E+02  1.250000000E+02  0.00000E+00  9.000E+00
      21     1     1     2   511   502 -4.208598420E+01  6.418300348E+00 -2.353984573E+01  4.864718885E+01  5.840038640E-07  0.00000E+00  9.000E+00
#rwgt            1           1   3.4067020869381716E-002           1      343768           0
</event>
<event>
      5   9999  3.79277E-02  3.19013E+01 -1.00000E+00  1.51209E-01
      21    -1     0     0   502   501  0.000000000E+00  0.000000000E+00  4.713181456E+02  4.713181456E+02  0.000000000E+00  0.00000E+00  9.000E+00
      21    -1     0     0   501   512  0.000000000E+00  0.000000000E+00 -3.419896859E+02  3.419896859E+02  0.000000000E+00  0.00000E+00  9.000E+00
      25     1     1     2     0     0  1.075082961E+02  3.564662635E+02  8.279740101E+01  4.013809168E+02  1.250000000E+02  0.00000E+00  9.000E+00
      25     1     1     2     0     0 -7.782945652E+01 -3.447675504E+02  5.502866951E+01  3.789132388E+02  1.250000000E+02  0.00000E+00  9.000E+00
      21     1     1     2   502   512 -2.967883962E+01 -1.169871313E+01 -8.497610798E+00  3.301367594E+01  3.769728732E-07  0.00000E+00  9.000E+00
#rwgt            1           1   2.7721472571539216E-002           1      343899           0
</event>
<event>
      5   9999  3.79277E-02  3.52919E+01 -1.00000E+00  1.48296E-01
      21    -1     0     0   511   501  0.000000000E+00  0.000000000E+00  1.606793691E+03  1.606793691E+03  0.000000000E+00  0.00000E+00  9.000E+00
      21    -1     0     0   501   502  0.000000000E+00  0.000000000E+00 -3.128621097E+01  3.128621097E+01  0.000000000E+00  0.00000E+00  9.000E+00
      25     1     1     2     0     0 -8.560867012E+01 -1.457286688E+02  6.130895359E+02  6.481276636E+02  1.250000000E+02  0.00000E+00  9.000E+00
      25     1     1     2     0     0  1.000239940E+02  1.135151119E+02  8.332604553E+02  8.560598498E+02  1.250000000E+02  0.00000E+00  9.000E+00
      21     1     1     2   511   502 -1.441532389E+01  3.221355691E+01  1.291574892E+02  1.338923890E+02  1.907348633E-06  0.00000E+00  9.000E+00
#rwgt            1           1   4.3698730550342402E-002           1      344186           0
</event>
<event>
      5   9999  3.79277E-02  7.46049E+01 -1.00000E+00  1.29835E-01
      21    -1     0     0   502   501  0.000000000E+00  0.000000000E+00  5.498575289E+01  5.498575289E+01  0.000000000E+00  0.00000E+00  9.000E+00
      21    -1     0     0   512   502  0.000000000E+00  0.000000000E+00 -9.555398758E+02  9.555398758E+02  0.000000000E+00  0.00000E+00  9.000E+00
      25     1     1     2     0     0 -1.296962517E+01 -3.961113321E+01 -5.434343536E+02  5.591807844E+02  1.250000000E+02  0.00000E+00  9.000E+00
      25     1     1     2     0     0 -4.666773991E+01  8.443610147E+01 -1.080200686E+02  1.913130116E+02  1.250000000E+02  0.00000E+00  9.000E+00
      21     1     1     2   512   501  5.963736508E+01 -4.482496826E+01 -2.490997007E+02  2.600318326E+02  2.697398305E-06  0.00000E+00  9.000E+00
#rwgt            1           1   5.4341308607640200E-002           1      344314           0
</event>
<event>
      5   9999  3.79277E-02  7.98170E+01 -1.00000E+00  1.28398E-01
      21    -1     0     0   502   501  0.000000000E+00  0.000000000E+00  3.059585531E+02  3.059585531E+02  0.000000000E+00  0.00000E+00  9.000E+00
      21    -1     0     0   511   502  0.000000000E+00  0.000000000E+00 -5.573147869E+02  5.573147869E+02  0.000000000E+00  0.00000E+00  9.000E+00
      25     1     1     2     0     0 -3.985775433E+01  1.252438439E+02 -5.894427613E+01  1.907199222E+02  1.250000000E+02  0.00000E+00  9.000E+00
      25     1     1     2     0     0  1.556862503E+00 -5.521679349E+01  2.164451897E+02  2.559781988E+02  1.250000000E+02  0.00000E+00  9.000E+00
      21     1     1     2   511   501  3.830089183E+01 -7.002705042E+01 -4.088571475E+02  4.165752191E+02  0.000000000E+00  0.00000E+00  9.000E+00
#rwgt            1           1   4.7874431368966734E-002           1      344580           0
</event>
<event>
      5   9999  3.79277E-02  4.14140E+01 -1.00000E+00  1.43911E-01
      21    -1     0     0   502   512  0.000000000E+00  0.000000000E+00  2.485124012E+02  2.485124012E+02  0.000000000E+00  0.00000E+00  9.000E+00
      21    -1     0     0   501   502  0.000000000E+00  0.000000000E+00 -5.761823207E+02  5.761823207E+02  0.000000000E+00  0.00000E+00  9.000E+00
      25     1     1     2     0     0 -2.706519611E+01  1.917703888E+02 -7.020716384E+01  2.409615171E+02  1.250000000E+02  0.00000E+00  9.000E+00
      25     1     1     2     0     0  4.333407143E+01 -1.536857161E+02 -3.928784536E+02  4.421262493E+02  1.250000000E+02  0.00000E+00  9.000E+00
      21     1     1     2   501   512 -1.626887532E+01 -3.808467275E+01  1.354156979E+02  1.416069555E+02  1.907348633E-06  0.00000E+00  9.000E+00
#rwgt            1           1   2.8177721902613563E-002           1      344658           0
</event>
<event>
      5   9999  3.79277E-02  8.07116E+01 -1.00000E+00  1.28164E-01
      21    -1     0     0   502   501  0.000000000E+00  0.000000000E+00  1.135967738E+03  1.135967738E+03  0.000000000E+00  0.00000E+00  9.000E+00
       2    -1     0     0   501     0  0.000000000E+00  0.000000000E+00 -3.798548626E+02  3.798548626E+02  0.000000000E+00  0.00000E+00  9.000E+00
      25     1     1     2     0     0 -1.503221737E+01  1.106180251E+02  7.623194872E+02  7.805243850E+02  1.250000000E+02  0.00000E+00  9.000E+00
      25     1     1     2     0     0  9.081876589E+01 -1.383806549E+02  3.298720230E+02  3.896637082E+02  1.250000000E+02  0.00000E+00  9.000E+00
       2     1     1     2   502     0 -7.578654852E+01  2.776262984E+01 -3.360786344E+02  3.456345079E+02  6.607249480E-06  0.00000E+00  9.000E+00
#rwgt            1           1   3.6855398427119400E-002           1      344790           0
</event>
<event>
      5   9999  3.79277E-02  1.36738E+02 -1.00000E+00  1.18009E-01
      21    -1     0     0   502   501  0.000000000E+00  0.000000000E+00  3.110354211E+01  3.110354211E+01  0.000000000E+00  0.00000E+00  9.000E+00
      21    -1     0     0   511   502  0.000000000E+00  0.000000000E+00 -2.429203052E+03  2.429203052E+03  0.000000000E+00  0.00000E+00  9.000E+00
      25     1     1     2     0     0 -1.738523320E+01 -1.183425575E+02 -7.697134647E+02  7.889176288E+02  1.250000000E+02  0.00000E+00  9.000E+00
      25     1     1     2     0     0 -1.657095448E+01 -1.411202080E+01 -2.025334353E+02  2.389948495E+02  1.250000000E+02  0.00000E+00  9.000E+00
      21     1     1     2   511   501  3.395618768E+01  1.324545784E+02 -1.425852610E+03  1.432394116E+03  2.157918644E-05  0.00000E+00  9.000E+00
#rwgt            1           1   3.5126310909559588E-002           1      344851           0
</event>
<event>
      5   9999  3.79277E-02  7.31617E+01 -1.00000E+00  1.30256E-01
      21    -1     0     0   502   512  0.000000000E+00  0.000000000E+00  7.146754119E+02  7.146754119E+02  0.000000000E+00  0.00000E+00  9.000E+00
      21    -1     0     0   501   502  0.000000000E+00  0.000000000E+00 -1.983659180E+02  1.983659180E+02  0.000000000E+00  0.00000E+00  9.000E+00
      25     1     1     2     0     0 -7.143744180E+01  1.528679957E+02  2.789249543E+02  3.491361659E+02  1.250000000E+02  0.00000E+00  9.000E+00
      25     1     1     2     0     0  3.448503335E+01 -8.972413565E+01 -1.206025471E+02  1.985185443E+02  1.250000000E+02  0.00000E+00  9.000E+00
      21     1     1     2   501   512  3.695240845E+01 -6.314386002E+01  3.579870868E+02  3.653866197E+02  3.814697266E-06  0.00000E+00  9.000E+00
#rwgt            1           1   6.7240990408309817E-002           1      345064           0
</event>
<event>
      5   9999  3.79277E-02  8.67789E+01 -1.00000E+00  1.26663E-01
      21    -1     0     0   502   501  0.000000000E+00  0.000000000E+00  2.342124253E+02  2.342124253E+02  0.000000000E+00  0.00000E+00  9.000E+00
      21    -1     0     0   511   502  0.000000000E+00  0.000000000E+00 -8.619282132E+02  8.619282132E+02  0.000000000E+00  0.00000E+00  9.000E+00
      25     1     1     2     0     0  7.206546559E+01 -6.546611761E+01  1.866463950E+02  2.448287578E+02  1.250000000E+02  0.00000E+00  9.000E+00
      25     1     1     2     0     0  3.927899205E+00  2.356636103E+01 -2.521876040E+02  2.824790070E+02  1.250000000E+02  0.00000E+00  9.000E+00
      21     1     1     2   511   501 -7.599336479E+01  4.189975658E+01 -5.621745789E+02  5.688328738E+02  1.078959322E-05  0.00000E+00  9.000E+00
#rwgt            1           1   4.0375549466554479E-002           1      345232           0
</event>
<event>
      5   9999  3.79277E-02  4.18957E+01 -1.00000E+00  1.43604E-01
      21    -1     0     0   502   501  0.000000000E+00  0.000000000E+00  8.649548108E+02  8.649548108E+02  0.000000000E+00  0.00000E+00  9.000E+00
       1    -1     0     0   501     0  0.000000000E+00  0.000000000E+00 -6.820074099E+01  6.820074099E+01  0.000000000E+00  0.00000E+00  9.000E+00
      25     1     1     2     0     0  5.589883289E+01  7.950815101E+01  2.264716695E+02  2.763342952E+02  1.250000000E+02  0.00000E+00  9.000E+00
      25     1     1     2     0     0 -7.516725372E+01 -1.167099776E+02  5.836726761E+02  6.128377662E+02  1.250000000E+02  0.00000E+00  9.000E+00
       1     1     1     2   502     0  1.926842082E+01  3.720182660E+01 -1.339027576E+01  4.398349041E+01  1.092571186E-06  0.00000E+00  9.000E+00
#rwgt            1           1   3.5096249717789456E-002           1      345326           0
</event>
<event>
      5   9999  3.79277E-02  2.37138E+01 -1.00000E+00  1.60488E-01
      21    -1     0     0   502   511  0.000000000E+00  0.000000000E+00  4.820698504E+01  4.820698504E+01  0.000000000E+00  0.00000E+00  9.000E+00
      21    -1     0     0   501   502  0.000000000E+00  0.000000000E+00 -1.073431096E+03  1.073431096E+03  0.000000000E+00  0.00000E+00  9.000E+00
      25     1     1     2     0     0  3.267024488E+01  8.736426533E+01 -1.550087136E+02  2.198921578E+02  1.250000000E+02  0.00000E+00  9.000E+00
      25     1     1     2     0     0 -1.131440243E+01 -9.767304573E+01 -8.621533555E+02  8.766991776E+02  1.250000000E+02  0.00000E+00  9.000E+00
      21     1     1     2   501   511 -2.135584245E+01  1.030878040E+01 -8.062042128E+00  2.504674597E+01  2.665600750E-07  0.00000E+00  9.000E+00
#rwgt            1           1   3.5342115516395399E-002           1      345463           0
</event>
<event>
      5   9999  3.79277E-02  4.31028E+01 -1.00000E+00  1.42856E-01
      21    -1     0     0   502   501  0.000000000E+00  0.000000000E+00  8.366637839E+01  8.366637839E+01  0.000000000E+00  0.00000E+00  9.000E+00
      21    -1     0     0   501   512  0.000000000E+00  0.000000000E+00 -4.772889732E+02  4.772889732E+02  0.000000000E+00  0.00000E+00  9.000E+00
      25     1     1     2     0     0 -1.126680575E+02  7.482886654E+01 -2.162272422E+02  2.840293483E+02  1.250000000E+02  0.00000E+00  9.000E+00
      25     1     1     2     0     0  9.044381475E+01 -3.789740750E+01 -9.823736547E+01  1.867936752E+02  1.250000000E+02  0.00000E+00  9.000E+00
      21     1     1     2   502   512  2.222424275E+01 -3.693145904E+01 -7.915798713E+01  9.013232805E+01  0.000000000E+00  0.00000E+00  9.000E+00
#rwgt            1           1   4.9124912225279441E-002           1      345683           0
</event>
<event>
      5   9999  3.79277E-02  1.76288E+01 -1.00000E+00  1.71022E-01
      21    -1     0     0   502   501  0.000000000E+00  0.000000000E+00  7.685498848E+02  7.685498848E+02  0.000000000E+00  0.00000E+00  9.000E+00
      21    -1     0     0   501   511  0.000000000E+00  0.000000000E+00 -5.588024364E+01  5.588024364E+01  0.000000000E+00  0.00000E+00  9.000E+00
      25     1     1     2     0     0 -4.949110513E+00 -3.056628137E+01  5.488993271E+01  1.399881994E+02  1.250000000E+02  0.00000E+00  9.000E+00
      25     1     1     2     0     0  1.466581512E+01  4.527548141E+01  6.524591720E+02  6.660277220E+02  1.250000000E+02  0.00000E+00  9.000E+00
      21     1     1     2   502   511 -9.716704603E+00 -1.470920004E+01  5.320536467E+00  1.841420708E+01  3.475518164E-07  0.00000E+00  9.000E+00
#rwgt            1           1   4.7779558201740617E-002           1      345902           0
</event>
<event>
      5   9999  3.79277E-02  3.27233E+01 -1.00000E+00  1.50464E-01
       2    -1     0     0   502     0  0.000000000E+00  0.000000000E+00  8.612028213E+02  8.612028213E+02  0.000000000E+00  0.00000E+00  9.000E+00
      21    -1     0     0   501   502  0.000000000E+00  0.000000000E+00 -2.710000279E+02  2.710000279E+02  0.000000000E+00  0.00000E+00  9.000E+00
      25     1     1     2     0     0  7.686121743E+01 -7.479873574E+01 -7.698470600E+01  1.818079827E+02  1.250000000E+02  0.00000E+00  9.000E+00
      25     1     1     2     0     0 -6.659810587E+01  4.372656481E+01 -1.023685565E+02  1.801433916E+02  1.250000000E+02  0.00000E+00  9.000E+00
       2     1     1     2   501     0 -1.026311156E+01  3.107217093E+01  7.695560560E+02  7.702514749E+02  1.078959322E-05  0.00000E+00  9.000E+00
#rwgt            1           1   4.0862649708024147E-002           1      346147           0
</event>
<event>
      5   9999  3.79277E-02  4.28433E+01 -1.00000E+00  1.43015E-01
      21    -1     0     0   502   501  0.000000000E+00  0.000000000E+00  4.800124055E+01  4.800124055E+01  0.000000000E+00  0.00000E+00  9.000E+00
      21    -1     0     0   501   511  0.000000000E+00  0.000000000E+00 -9.553853266E+02  9.553853266E+02  0.000000000E+00  0.00000E+00  9.000E+00
      25     1     1     2     0     0  5.665461283E+01 -2.919771405E+00 -4.990434320E+02  5.175786097E+02  1.250000000E+02  0.00000E+00  9.000E+00
      25     1     1     2     0     0 -8.339547403E+01  3.639328525E+01 -1.238207126E+02  1.980804008E+02  1.250000000E+02  0.00000E+00  9.000E+00
      21     1     1     2   502   511  2.674086121E+01 -3.347351385E+01 -2.845199414E+02  2.877275566E+02  3.814697266E-06  0.00000E+00  9.000E+00
#rwgt            1           1   1.7786259655580793E-002           1      346332           0
</event>
<event>
      5   9999  3.79277E-02  1.68760E+01 -1.00000E+00  1.72694E-01
      21    -1     0     0   502   512  0.000000000E+00  0.000000000E+00  2.229384981E+02  2.229384981E+02  0.000000000E+00  0.00000E+00  9.000E+00
      21    -1     0     0   501   502  0.000000000E+00  0.000000000E+00 -4.636669681E+02  4.636669681E+02  0.000000000E+00  0.00000E+00  9.000E+00
      25     1     1     2     0     0  2.069207116E+02  7.924360087E+01  2.717330656E+01  2.558497953E+02  1.250000000E+02  0.00000E+00  9.000E+00
      25     1     1     2     0     0 -1.917396993E+02 -8.661481088E+01 -3.043807274E+02  3.905622421E+02  1.250000000E+02  0.00000E+00  9.000E+00
      21     1     1     2   501   512 -1.518101230E+01  7.371210010E+00  3.647895074E+01  4.019342880E+01  4.768371582E-07  0.00000E+00  9.000E+00
#rwgt            1           1   3.8651941666988120E-002           1      346439           0
</event>
<event>
      5   9999  3.79277E-02  1.70765E+01 -1.00000E+00  1.72238E-01
      21    -1     0     0   511   501  0.000000000E+00  0.000000000E+00  7.049336905E+02  7.049336905E+02  0.000000000E+00  0.00000E+00  9.000E+00
      21    -1     0     0   501   502  0.000000000E+00  0.000000000E+00 -3.174597565E+02  3.174597565E+02  0.000000000E+00  0.00000E+00  9.000E+00
      25     1     1     2     0     0 -2.414768460E+01  2.872519347E+02  4.757294692E+02  5.701230679E+02  1.250000000E+02  0.00000E+00  9.000E+00
      25     1     1     2     0     0  1.672585490E+01 -3.026312695E+02 -1.696180845E+02  3.691351163E+02  1.250000000E+02  0.00000E+00  9.000E+00
      21     1     1     2   511   502  7.421829694E+00  1.537933480E+01  8.136254930E+01  8.313526281E+01  9.536743164E-07  0.00000E+00  9.000E+00
#rwgt            1           1   3.3348646049458738E-002           1      346603           0
</event>
<event>
      5   9999  3.79277E-02  8.24840E+01 -1.00000E+00  1.27710E-01
      21    -1     0     0   512   501  0.000000000E+00  0.000000000E+00  2.009230055E+02  2.009230055E+02  0.000000000E+00  0.00000E+00  9.000E+00
      21    -1     0     0   501   502  0.000000000E+00  0.000000000E+00 -6.847319113E+02  6.847319113E+02  0.000000000E+00  0.00000E+00  9.000E+00
      25     1     1     2     0     0  1.385873460E+02 -9.464661450E+01 -2.381680340E+02  3.170385569E+02  1.250000000E+02  0.00000E+00  9.000E+00
      25     1     1     2     0     0 -8.202373186E+01  1.546813116E+02 -3.649109872E+02  4.236026786E+02  1.250000000E+02  0.00000E+00  9.000E+00
      21     1     1     2   512   502 -5.656361417E+01 -6.003469709E+01  1.192701155E+02  1.450136813E+02  3.568322551E-06  0.00000E+00  9.000E+00
#rwgt            1           1   3.2108905071775197E-002           1      346845           0
</event>
<event>
      5   9999  3.79277E-02  1.14974E+01 -1.00000E+00  1.89003E-01
      21    -1     0     0   502   511  0.000000000E+00  0.000000000E+00  3.969339565E+02  3.969339565E+02  0.000000000E+00  0.00000E+00  9.000E+00
      21    -1     0     0   501   502  0.000000000E+00  0.000000000E+00 -1.872283971E+02  1.872283971E+02  0.000000000E+00  0.00000E+00  9.000E+00
      25     1     1     2     0     0 -7.155931146E+01 -2.522803763E+01  3.231759582E+02  3.547180414E+02  1.250000000E+02  0.00000E+00  9.000E+00
      25     1     1     2     0     0  7.205285171E+01  1.374124590E+01 -1.393928396E+02  2.010865461E+02  1.250000000E+02  0.00000E+00  9.000E+00
      21     1     1     2   501   511 -4.935402568E-01  1.148679173E+01  2.592244079E+01  2.835776619E+01  0.000000000E+00  0.00000E+00  9.000E+00
#rwgt            1           1   3.1793080076497150E-002           1      346929           0
</event>
<event>
      5   9999  3.79277E-02  4.51933E+01 -1.00000E+00  1.41627E-01
      21    -1     0     0   512   501  0.000000000E+00  0.000000000E+00  1.804426492E+03  1.804426492E+03  0.000000000E+00  0.00000E+00  9.000E+00
      21    -1     0     0   501   502  0.000000000E+00  0.000000000E+00 -2.782971300E+01  2.782971300E+01  0.000000000E+00  0.00000E+00  9.000E+00
      25     1     1     2     0     0  5.107256799E+01 -2.521776894E+01  1.919032164E+02  2.360003974E+02  1.250000000E+02  0.00000E+00  9.000E+00
      25     1     1     2     0     0 -3.238760465E+01  6.636760089E+01  1.120303943E+03  1.129672315E+03  1.250000000E+02  0.00000E+00  9.000E+00
      21     1     1     2   512   502 -1.868496334E+01 -4.114983195E+01  4.643896197E+02  4.665834925E+02  7.629394531E-06  0.00000E+00  9.000E+00
#rwgt            1           1   5.2422874772964645E-002           1      347196           0
</event>
<event>
      5   9999  3.79277E-02  1.39541E+02 -1.00000E+00  1.17651E-01
      21    -1     0     0   502   501  0.000000000E+00  0.000000000E+00  6.725327250E+02  6.725327250E+02  0.000000000E+00  0.00000E+00  9.000E+00
      21    -1     0     0   501   511  0.000000000E+00  0.000000000E+00 -1.090443174E+02  1.090443174E+02  0.000000000E+00  0.00000E+00  9.000E+00
      25     1     1     2     0     0 -6.454776396E+01  5.994546688E+01  4.350214537E+02  4.611166209E+02  1.250000000E+02  0.00000E+00  9.000E+00
      25     1     1     2     0     0 -6.837518441E+01 -1.747999485E+01  1.075331363E+02  1.793574405E+02  1.250000000E+02  0.00000E+00  9.000E+00
      21     1     1     2   502   511  1.329229484E+02 -4.246547203E+01  2.093381757E+01  1.411029810E+02  3.371747881E-07  0.00000E+00  9.000E+00
#rwgt            1           1   4.1211172973731953E-002           1      347295           0
</event>
<event>
      5   9999  3.79277E-02  1.67320E+01 -1.00000E+00  1.73026E-01
      21    -1     0     0   502   512  0.000000000E+00  0.000000000E+00  5.054029250E+01  5.054029250E+01  0.000000000E+00  0.00000E+00  9.000E+00
      21    -1     0     0   501   502  0.000000000E+00  0.000000000E+00 -9.010657544E+02  9.010657544E+02  0.000000000E+00  0.00000E+00  9.000E+00
      25     1     1     2     0     0  3.491615875E+01 -4.207282278E+01 -1.694509446E+02  2.175497258E+02  1.250000000E+02  0.00000E+00  9.000E+00
      25     1     1     2     0     0 -3.127322067E+01  5.840343901E+01 -6.968468668E+02  7.110622559E+02  1.250000000E+02  0.00000E+00  9.000E+00
      21     1     1     2   501   512 -3.642938082E+00 -1.633061624E+01  1.577234952E+01  2.299406519E+01  7.725644944E-07  0.00000E+00  9.000E+00
#rwgt            1           1   4.3147018497486658E-002           1      347437           0
</event>
<event>
      5   9999  3.79277E-02  5.51749E+01 -1.00000E+00  1.36678E-01
      21    -1     0     0   502   501  0.000000000E+00  0.000000000E+00  4.402499883E+02  4.402499883E+02  0.000000000E+00  0.00000E+00  9.000E+00
      21    -1     0     0   501   511  0.000000000E+00  0.000000000E+00 -4.754859627E+02  4.754859627E+02  0.000000000E+00  0.00000E+00  9.000E+00
      25     1     1     2     0     0 -1.783372541E+02  8.686760087E+01  3.255767564E+02  4.012173733E+02  1.250000000E+02  0.00000E+00  9.000E+00
      25     1     1     2     0     0  2.320945668E+02 -9.929434671E+01 -2.026683111E+02  3.470255027E+02  1.250000000E+02  0.00000E+00  9.000E+00
      21     1     1     2   502   511 -5.375731263E+01  1.242674584E+01 -1.581444198E+02  1.674930750E+02  2.697398305E-06  0.00000E+00  9.000E+00
#rwgt            1           1   3.8079097956877403E-002           1      347726           0
</event>
<event>
      5   9999  3.79277E-02  9.41290E+01 -1.00000E+00  1.25021E-01
      21    -1     0     0   502   501  0.000000000E+00  0.000000000E+00  4.527906611E+02  4.527906611E+02  0.000000000E+00  0.00000E+00  9.000E+00
      21    -1     0     0   501   512  0.000000000E+00  0.000000000E+00 -4.329815403E+02  4.329815403E+02  0.000000000E+00  0.00000E+00  9.000E+00
      25     1     1     2     0     0 -1.314729551E+02 -3.033858738E+02  2.182214829E+02  4.154199586E+02  1.250000000E+02  0.00000E+00  9.000E+00
      25     1     1     2     0     0  1.959646665E+02  2.348213886E+02 -1.724795436E+02  3.727162836E+02  1.250000000E+02  0.00000E+00  9.000E+00
      21     1     1     2   502   512 -6.449171138E+01  6.856448519E+01 -2.593281850E+01  9.763595927E+01  1.545128989E-06  0.00000E+00  9.000E+00
#rwgt            1           1   4.4087805429012063E-002           1      347971           0
</event>
<event>
      5   9999  3.79277E-02  2.26063E+01 -1.00000E+00  1.62096E-01
      21    -1     0     0   502   501  0.000000000E+00  0.000000000E+00  1.408207416E+02  1.408207416E+02  0.000000000E+00  0.00000E+00  9.000E+00
       1    -1     0     0   501     0  0.000000000E+00  0.000000000E+00 -9.693748141E+02  9.693748141E+02  0.000000000E+00  0.00000E+00  9.000E+00
      25     1     1     2     0     0 -8.514644811E+01  3.960626880E+01 -1.464767734E+02  2.142405641E+02  1.250000000E+02  0.00000E+00  9.000E+00
      25     1     1     2     0     0  6.429901656E+01 -4.834870006E+01  5.502377652E+01  1.585073383E+02  1.250000000E+02  0.00000E+00  9.000E+00
       1     1     1     2   502     0  2.084743155E+01  8.742431265E+00 -7.371010757E+02  7.374476533E+02  1.525878906E-05  0.00000E+00  9.000E+00
#rwgt            1           1   3.4169955962872631E-002           1      348035           0
</event>
<event>
      5   9999  3.79277E-02  2.71034E+01 -1.00000E+00  1.56167E-01
      21    -1     0     0   502   501  0.000000000E+00  0.000000000E+00  2.505904109E+02  2.505904109E+02  0.000000000E+00  0.00000E+00  9.000E+00
       2    -1     0     0   501     0  0.000000000E+00  0.000000000E+00 -6.536705741E+02  6.536705741E+02  0.000000000E+00  0.00000E+00  9.000E+00
      25     1     1     2     0     0  2.741798032E+02  5.930484489E+01  4.759645229E+01  3.107765296E+02  1.250000000E+02  0.00000E+00  9.000E+00
      25     1     1     2     0     0 -2.524656025E+02 -4.308494692E+01 -2.169005434E+02  3.581424839E+02  1.250000000E+02  0.00000E+00  9.000E+00
       2     1     1     2   502     0 -2.171420074E+01 -1.621989796E+01 -2.337760721E+02  2.353419714E+02  3.814697266E-06  0.00000E+00  9.000E+00
#rwgt            1           1   2.6211801064189667E-002           1      348286           0
</event>
<event>
      5   9999  3.79277E-02  5.35439E+00 -1.00000E+00  2.33435E-01
      21    -1     0     0   511   501  0.000000000E+00  0.000000000E+00  7.271150335E+01  7.271150335E+01  0.000000000E+00  0.00000E+00  9.000E+00
      21    -1     0     0   501   502  0.000000000E+00  0.000000000E+00 -7.530133594E+02  7.530133594E+02  0.000000000E+00  0.00000E+00  9.000E+00
      25     1     1     2     0     0 -1.923732586E+02 -4.834649627E-01 -4.051218273E+02  4.655710465E+02  1.250000000E+02  0.00000E+00  9.000E+00
      25     1     1     2     0     0  1.876814569E+02  3.063484459E+00 -2.736145006E+02  3.545752517E+02  1.250000000E+02  0.00000E+00  9.000E+00
      21     1     1     2   511   502  4.691801717E+00 -2.580019496E+00 -1.565528118E+00  5.578564532E+00  9.185692672E-08  0.00000E+00  9.000E+00
#rwgt            1           1   3.4700194601601335E-002           1      348449           0
</event>
<event>
      5   9999  3.79277E-02  9.88508E+01 -1.00000E+00  1.24054E-01
      21    -1     0     0   512   501  0.000000000E+00  0.000000000E+00  7.412139909E+01  7.412139909E+01  0.000000000E+00  0.00000E+00  9.000E+00
      21    -1     0     0   501   502  0.000000000E+00  0.000000000E+00 -2.225656085E+03  2.225656085E+03  0.000000000E+00  0.00000E+00  9.000E+00
      25     1     1     2     0     0  6.360877407E+01 -8.386073655E+01 -2.891710701E+02  3.321499768E+02  1.250000000E+02  0.00000E+00  9.000E+00
      25     1     1     2     0     0 -3.202810851E+01 -9.809621751E+00 -1.864272141E+03  1.868758316E+03  1.250000000E+02  0.00000E+00  9.000E+00
      21     1     1     2   512   502 -3.158066555E+01  9.367035830E+01  1.908525394E+00  9.886919100E+01  1.989179444E-06  0.00000E+00  9.000E+00
#rwgt            1           1  0.10679600162277070                1      348813           0
</event>
<event>
      5   9999  3.79277E-02  4.34140E+01 -1.00000E+00  1.42668E-01
      21    -1     0     0   502   501  0.000000000E+00  0.000000000E+00  1.262863602E+02  1.262863602E+02  0.000000000E+00  0.00000E+00  9.000E+00
      21    -1     0     0   511   502  0.000000000E+00  0.000000000E+00 -4.218308817E+02  4.218308817E+02  0.000000000E+00  0.00000E+00  9.000E+00
      25     1     1     2     0     0 -1.161694966E+02  2.114440692E+01  6.308408144E+00  1.720675271E+02  1.250000000E+02  0.00000E+00  9.000E+00
      25     1     1     2     0     0  1.064421246E+02 -6.345463673E+01 -2.695783608E+02  3.219532721E+02  1.250000000E+02  0.00000E+00  9.000E+00
      21     1     1     2   511   501  9.727371948E+00  4.231022981E+01 -3.227456890E+01  5.409644267E+01  1.261592536E-06  0.00000E+00  9.000E+00
#rwgt            1           1   4.1438737968241983E-002           1      349057           0
</event>
<event>
      5   9999  3.79277E-02  2.84593E+01 -1.00000E+00  1.54647E-01
      21    -1     0     0   502   501  0.000000000E+00  0.000000000E+00  1.345988106E+01  1.345988106E+01  0.000000000E+00  0.00000E+00  9.000E+00
       2    -1     0     0   501     0  0.000000000E+00  0.000000000E+00 -4.000518316E+03  4.000518316E+03  0.000000000E+00  0.00000E+00  9.000E+00
      25     1     1     2     0     0  1.149458076E+02 -8.311368843E+01 -1.348111690E+03  1.361304725E+03  1.250000000E+02  0.00000E+00  9.000E+00
      25     1     1     2     0     0 -1.413686205E+02  7.254180775E+01 -1.522509309E+03  1.535873366E+03  1.250000000E+02  0.00000E+00  9.000E+00
       2     1     1     2   502     0  2.642281294E+01  1.057188068E+01 -1.116437436E+03  1.116800106E+03  0.000000000E+00  0.00000E+00  9.000E+00
#rwgt            1           1   3.7167311664950284E-002           1      349299           0
</event>
<event>
      5   9999  3.79277E-02  5.05769E+01 -1.00000E+00  1.38792E-01
      21    -1     0     0   502   501  0.000000000E+00  0.000000000E+00  6.960878467E+02  6.960878467E+02  0.000000000E+00  0.00000E+00  9.000E+00
      21    -1     0     0   511   502  0.000000000E+00  0.000000000E+00 -2.708383708E+02  2.708383708E+02  0.000000000E+00  0.00000E+00  9.000E+00
      25     1     1     2     0     0  6.660621936E+01  8.574458686E+01  2.262664929E+02  2.803748356E+02  1.250000000E+02  0.00000E+00  9.000E+00
      25     1     1     2     0     0 -8.607816886E+01 -1.324228982E+02  4.168117916E+02  4.629280125E+02  1.250000000E+02  0.00000E+00  9.000E+00
      21     1     1     2   511   501  1.947194950E+01  4.667831136E+01 -2.178288085E+02  2.236233695E+02  2.697398305E-06  0.00000E+00  9.000E+00
#rwgt            1           1   4.7672898037594690E-002           1      349462           0
</event>
<event>
      5   9999  3.79277E-02  9.84057E+01 -1.00000E+00  1.24143E-01
      21    -1     0     0   502   501  0.000000000E+00  0.000000000E+00  3.412732734E+02  3.412732734E+02  0.000000000E+00  0.00000E+00  9.000E+00
      21    -1     0     0   512   502  0.000000000E+00  0.000000000E+00 -5.527857974E+02  5.527857974E+02  0.000000000E+00  0.00000E+00  9.000E+00
      25     1     1     2     0     0 -2.226348003E+02 -1.027272125E+01  1.225335084E+02  2.833923848E+02  1.250000000E+02  0.00000E+00  9.000E+00
      25     1     1     2     0     0  2.103295083E+02 -8.736060989E+01  2.724825330E+00  2.598130153E+02  1.250000000E+02  0.00000E+00  9.000E+00
      21     1     1     2   512   501  1.230529198E+01  9.763333114E+01 -3.367708578E+02  3.508536707E+02  0.000000000E+00  0.00000E+00  9.000E+00
#rwgt            1           1   3.4878412941100514E-002           1      349754           0
</event>
<event>
      5   9999  3.79277E-02  1.84290E+01 -1.00000E+00  1.69355E-01
      21    -1     0     0   502   511  0.000000000E+00  0.000000000E+00  2.888192675E+02  2.888192675E+02  0.000000000E+00  0.00000E+00  9.000E+00
      21    -1     0     0   501   502  0.000000000E+00  0.000000000E+00 -3.176459092E+02  3.176459092E+02  0.000000000E+00  0.00000E+00  9.000E+00
      25     1     1     2     0     0 -8.689057806E+01  1.506434604E+02 -2.259200716E+02  3.113009854E+02  1.250000000E+02  0.00000E+00  9.000E+00
      25     1     1     2     0     0  7.754304781E+01 -1.347610303E+02  1.897550289E+02  2.753278600E+02  1.250000000E+02  0.00000E+00  9.000E+00
      21     1     1     2   501   511  9.347530248E+00 -1.588243018E+01  7.338400991E+00  1.983633129E+01  2.795705652E-07  0.00000E+00  9.000E+00
#rwgt            1           1   4.1400281111497204E-002           1      349912           0
</event>
<event>
      5   9999  3.79277E-02  5.79706E+01 -1.00000E+00  1.35507E-01
      21    -1     0     0   502   501  0.000000000E+00  0.000000000E+00  9.346370050E+01  9.346370050E+01  0.000000000E+00  0.00000E+00  9.000E+00
      21    -1     0     0   512   502  0.000000000E+00  0.000000000E+00 -6.432836337E+02  6.432836337E+02  0.000000000E+00  0.00000E+00  9.000E+00
      25     1     1     2     0     0  5.981019454E+01 -1.147983811E+02 -1.950071429E+02  2.653464028E+02  1.250000000E+02  0.00000E+00  9.000E+00
      25     1     1     2     0     0 -1.176893963E+02  1.180531457E+02 -1.453014908E+02  2.540174452E+02  1.250000000E+02  0.00000E+00  9.000E+00
      21     1     1     2   512   501  5.787920177E+01 -3.254764563E+00 -2.095112995E+02  2.173834863E+02  2.697398305E-06  0.00000E+00  9.000E+00
#rwgt            1           1   2.6904238461173121E-002           1      350221           0
</event>
<event>
      5   9999  3.79277E-02  1.87342E+01 -1.00000E+00  1.68746E-01
      21    -1     0     0   511   501  0.000000000E+00  0.000000000E+00  1.357643959E+03  1.357643959E+03  0.000000000E+00  0.00000E+00  9.000E+00
      21    -1     0     0   501   502  0.000000000E+00  0.000000000E+00 -1.962727214E+01  1.962727214E+01  0.000000000E+00  0.00000E+00  9.000E+00
      25     1     1     2     0     0 -4.116014830E+01 -5.108035837E+01  6.634021596E+02  6.782556938E+02  1.250000000E+02  0.00000E+00  9.000E+00
      25     1     1     2     0     0  5.979372415E+01  4.914122886E+01  4.454202139E+02  4.690568375E+02  1.250000000E+02  0.00000E+00  9.000E+00
      21     1     1     2   511   502 -1.863357585E+01  1.939129512E+00  2.291943129E+02  2.299586994E+02  0.000000000E+00  0.00000E+00  9.000E+00
#rwgt            1           1   7.7089230899120995E-002           1      350349           0
</event>
<event>
      5   9999 -3.79277E-02  1.50735E+01 -1.00000E+00  1.77184E-01
      21    -1     0     0   502   501  0.000000000E+00  0.000000000E+00  8.326866104E+01  8.326866104E+01  0.000000000E+00  0.00000E+00  9.000E+00
      21    -1     0     0   512   502  0.000000000E+00  0.000000000E+00 -6.202318118E+02  6.202318118E+02  0.000000000E+00  0.00000E+00  9.000E+00
      25     1     1     2     0     0  3.734133171E+01 -1.646848076E+02 -3.230817957E+02  3.853859204E+02  1.250000000E+02  0.00000E+00  9.000E+00
      25     1     1     2     0     0 -5.162979142E+01  1.694859456E+02 -1.829348950E+02  2.836922574E+02  1.250000000E+02  0.00000E+00  9.000E+00
      21     1     1     2   512   501  1.428845970E+01 -4.801137933E+00 -3.094646015E+01  3.442229513E+01  5.840038640E-07  0.00000E+00  9.000E+00
#rwgt            1           1  -6.9091934205284491E-002           1      350516           0
</event>
<event>
      5   9999  3.79277E-02  3.29311E+01 -1.00000E+00  1.50280E-01
      21    -1     0     0   502   501  0.000000000E+00  0.000000000E+00  3.978672337E+02  3.978672337E+02  0.000000000E+00  0.00000E+00  9.000E+00
      21    -1     0     0   511   502  0.000000000E+00  0.000000000E+00 -1.393204333E+02  1.393204333E+02  0.000000000E+00  0.00000E+00  9.000E+00
      25     1     1     2     0     0  3.074325597E+01  1.810896509E+02  1.544650349E+02  2.705975914E+02  1.250000000E+02  0.00000E+00  9.000E+00
      25     1     1     2     0     0 -5.669656960E+01 -1.608193968E+02  9.826636760E+01  2.331494336E+02  1.250000000E+02  0.00000E+00  9.000E+00
      21     1     1     2   511   501  2.595331363E+01 -2.027025411E+01  5.815397916E+00  3.344064208E+01  6.583548198E-07  0.00000E+00  9.000E+00
#rwgt            1           1   2.6222967609623705E-002           1      350745           0
</event>
<event>
      5   9999  3.79277E-02  1.09929E+02 -1.00000E+00  1.22007E-01
      21    -1     0     0   502   501  0.000000000E+00  0.000000000E+00  7.032862703E+02  7.032862703E+02  0.000000000E+00  0.00000E+00  9.000E+00
      21    -1     0     0   501   512  0.000000000E+00  0.000000000E+00 -2.316263485E+02  2.316263485E+02  0.000000000E+00  0.00000E+00  9.000E+00
      25     1     1     2     0     0  9.463326850E+01 -6.435771143E+01  5.969688414E+02  6.205595605E+02  1.250000000E+02  0.00000E+00  9.000E+00
      25     1     1     2     0     0 -1.890403849E+01 -1.532580003E+01  2.334427140E+01  1.294689068E+02  1.250000000E+02  0.00000E+00  9.000E+00
      21     1     1     2   502   512 -7.572923001E+01  7.968351146E+01 -1.486531910E+02  1.848841515E+02  0.000000000E+00  0.00000E+00  9.000E+00
#rwgt            1           1   5.2313044911723720E-002           1      350908           0
</event>
<event>
      5   9999  3.79277E-02  3.11848E+01 -1.00000E+00  1.51881E-01
      21    -1     0     0   502   511  0.000000000E+00  0.000000000E+00  2.047430372E+02  2.047430372E+02  0.000000000E+00  0.00000E+00  9.000E+00
      21    -1     0     0   501   502  0.000000000E+00  0.000000000E+00 -2.827858688E+02  2.827858688E+02  0.000000000E+00  0.00000E+00  9.000E+00
      25     1     1     2     0     0  9.080966246E+01 -1.214154606E+02  3.812062629E+01  2.001656589E+02  1.250000000E+02  0.00000E+00  9.000E+00
      25     1     1     2     0     0 -9.804223105E+01  1.517499602E+02 -1.277017619E+02  2.541123167E+02  1.250000000E+02  0.00000E+00  9.000E+00
      21     1     1     2   501   511  7.232568591E+00 -3.033449956E+01  1.153830411E+01  3.325093041E+01  5.331201500E-07  0.00000E+00  9.000E+00
#rwgt            1           1   3.8136824254114882E-002           1      350936           0
</event>
<event>
      5   9999  3.79277E-02  7.15579E+01 -1.00000E+00  1.30738E-01
      21    -1     0     0   502   501  0.000000000E+00  0.000000000E+00  1.114296097E+03  1.114296097E+03  0.000000000E+00  0.00000E+00  9.000E+00
      21    -1     0     0   501   512  0.000000000E+00  0.000000000E+00 -7.247016500E+01  7.247016500E+01  0.000000000E+00  0.00000E+00  9.000E+00
      25     1     1     2     0     0  1.522220827E+02  1.052127756E+02  4.666267073E+02  5.173072343E+02  1.250000000E+02  0.00000E+00  9.000E+00
      25     1     1     2     0     0 -1.331362859E+02 -3.624704113E+01  5.677690359E+02  5.975163569E+02  1.250000000E+02  0.00000E+00  9.000E+00
      21     1     1     2   502   512 -1.908579673E+01 -6.896573452E+01  7.430188675E+00  7.194267077E+01  7.952251473E-07  0.00000E+00  9.000E+00
#rwgt            1           1   1.9111000953765372E-002           1      351033           0
</event>
<event>
      5   9999  3.79277E-02  1.22916E+02 -1.00000E+00  1.19927E-01
      21    -1     0     0   502   511  0.000000000E+00  0.000000000E+00  4.569544158E+02  4.569544158E+02  0.000000000E+00  0.00000E+00  9.000E+00
      21    -1     0     0   501   502  0.000000000E+00  0.000000000E+00 -1.024377007E+03  1.024377007E+03  0.000000000E+00  0.00000E+00  9.000E+00
      25     1     1     2     0     0 -5.001709054E+02  4.135726694E+02 -1.724574504E+02  6.830665119E+02  1.250000000E+02  0.00000E+00  9.000E+00
      25     1     1     2     0     0  4.708800142E+02 -2.941979641E+02 -3.453609103E+02  6.657173486E+02  1.250000000E+02  0.00000E+00  9.000E+00
      21     1     1     2   501   511  2.929089121E+01 -1.193747052E+02 -4.960423024E+01  1.325475621E+02  1.168007728E-06  0.00000E+00  9.000E+00
#rwgt            1           1   4.3941222019617900E-002           1      351108           0
</event>
<event>
      5   9999  3.79277E-02  5.96520E+01 -1.00000E+00  1.34839E-01
      21    -1     0     0   502   501  0.000000000E+00  0.000000000E+00  2.406474192E+03  2.406474192E+03  0.000000000E+00  0.00000E+00  9.000E+00
       4    -1     0     0   501     0  0.000000000E+00  0.000000000E+00 -1.567106121E+02  1.567106121E+02  0.000000000E+00  0.00000E+00  9.000E+00
      25     1     1     2     0     0  2.055252399E+01  6.620431678E+01  1.460181933E+03  1.467161100E+03  1.250000000E+02  0.00000E+00  9.000E+00
      25     1     1     2     0     0 -1.998223998E+01 -1.258535664E+02  9.281509854E+02  9.451601250E+02  1.250000000E+02  0.00000E+00  9.000E+00
       4     1     1     2   502     0 -5.702840067E-01  5.964924964E+01 -1.385693377E+02  1.508635793E+02  7.387129490E-06  0.00000E+00  9.000E+00
#rwgt            1           1   4.7012700357239735E-002           1      351195           0
</event>
<event>
      5   9999  3.79277E-02  5.14036E+02 -1.00000E+00  9.85116E-02
      21    -1     0     0   502   501  0.000000000E+00  0.000000000E+00  1.164266079E+03  1.164266079E+03  0.000000000E+00  0.00000E+00  9.000E+00
       1    -1     0     0   501     0  0.000000000E+00  0.000000000E+00 -3.714401593E+02  3.714401593E+02  0.000000000E+00  0.00000E+00  9.000E+00
      25     1     1     2     0     0  8.283718989E+01 -6.721867403E+01 -1.256847516E+02  2.068864591E+02  1.250000000E+02  0.00000E+00  9.000E+00
      25     1     1     2     0     0  7.970945942E+01 -4.204403657E+02  4.072219962E+02  6.038033233E+02  1.250000000E+02  0.00000E+00  9.000E+00
       1     1     1     2   502     0 -1.625466493E+02  4.876590397E+02  5.112886755E+02  7.250164563E+02  9.344061824E-06  0.00000E+00  9.000E+00
#rwgt            2          12   1.8869328294250668E-006           1      351424           0
</event>
<event>
      5   9999  3.79277E-02  1.81300E+01 -1.00000E+00  1.69965E-01
       2    -1     0     0   502     0  0.000000000E+00  0.000000000E+00  1.727310526E+03  1.727310526E+03  0.000000000E+00  0.00000E+00  9.000E+00
      21    -1     0     0   501   502  0.000000000E+00  0.000000000E+00 -7.414904360E+01  7.414904360E+01  0.000000000E+00  0.00000E+00  9.000E+00
      25     1     1     2     0     0  3.217065573E+01 -1.502299416E+02  1.090207413E+02  2.260851797E+02  1.250000000E+02  0.00000E+00  9.000E+00
      25     1     1     2     0     0 -1.707912073E+01  1.401829822E+02  5.569025390E+02  5.879697295E+02  1.250000000E+02  0.00000E+00  9.000E+00
       2     1     1     2   501     0 -1.509153500E+01  1.004695941E+01  9.872382020E+02  9.874046603E+02  1.078959322E-05  0.00000E+00  9.000E+00
#rwgt            1           1   5.0750992889157472E-002           1      351443           0
</event>
<event>
      5   9999  3.79277E-02  5.73324E+01 -1.00000E+00  1.35767E-01
      21    -1     0     0   502   501  0.000000000E+00  0.000000000E+00  2.550090337E+02  2.550090337E+02  0.000000000E+00  0.00000E+00  9.000E+00
      21    -1     0     0   501   511  0.000000000E+00  0.000000000E+00 -2.818093436E+02  2.818093436E+02  0.000000000E+00  0.00000E+00  9.000E+00
      25     1     1     2     0     0 -1.325048494E+02 -1.128653298E+02 -7.635807716E+01  2.274899420E+02  1.250000000E+02  0.00000E+00  9.000E+00
      25     1     1     2     0     0  1.877489463E+02  9.753241813E+01  5.474342980E+01  2.517619561E+02  1.250000000E+02  0.00000E+00  9.000E+00
      21     1     1     2   502   511 -5.524409690E+01  1.533291163E+01 -5.185662586E+00  5.756647912E+01  4.951133646E-07  0.00000E+00  9.000E+00
#rwgt            1           1   4.0772822129500098E-002           1      351636           0
</event>
<event>
      5   9999  3.79277E-02  2.68778E+01 -1.00000E+00  1.56430E-01
      21    -1     0     0   502   501  0.000000000E+00  0.000000000E+00  6.961909174E+02  6.961909174E+02  0.000000000E+00  0.00000E+00  9.000E+00
      21    -1     0     0   501   512  0.000000000E+00  0.000000000E+00 -1.074866286E+02  1.074866286E+02  0.000000000E+00  0.00000E+00  9.000E+00
      25     1     1     2     0     0  3.115225744E+01 -1.149068699E+02  5.268576723E+02  5.544168637E+02  1.250000000E+02  0.00000E+00  9.000E+00
      25     1     1     2     0     0 -1.936726420E+01  1.390632495E+02  9.164186631E+01  2.091337131E+02  1.250000000E+02  0.00000E+00  9.000E+00
      21     1     1     2   502   512 -1.178499324E+01 -2.415637960E+01 -2.979524985E+01  4.012696917E+01  3.371747881E-07  0.00000E+00  9.000E+00
#rwgt            1           1   2.2977868502188779E-002           1      351685           0
</event>
<event>
      5   9999  3.79277E-02  1.42069E+01 -1.00000E+00  1.79635E-01
      21    -1     0     0   511   501  0.000000000E+00  0.000000000E+00  7.585297594E+01  7.585297594E+01  0.000000000E+00  0.00000E+00  9.000E+00
      21    -1     0     0   501   502  0.000000000E+00  0.000000000E+00 -5.171477657E+02  5.171477657E+02  0.000000000E+00  0.00000E+00  9.000E+00
      25     1     1     2     0     0 -4.793184984E+01  4.334975595E+01 -3.810289440E+02  4.061831111E+02  1.250000000E+02  0.00000E+00  9.000E+00
      25     1     1     2     0     0  3.559835989E+01 -5.040107212E+01 -8.134438641E+01  1.613983287E+02  1.250000000E+02  0.00000E+00  9.000E+00
      21     1     1     2   511   502  1.233348994E+01  7.051316166E+00  2.107854062E+01  2.541930189E+01  9.233911863E-07  0.00000E+00  9.000E+00
#rwgt            1           1   4.7674069698852642E-002           1      351862           0
</event>
<event>
      5   9999  3.79277E-02  6.53001E+01 -1.00000E+00  1.32768E-01
      21    -1     0     0   502   501  0.000000000E+00  0.000000000E+00  7.153393005E+01  7.153393005E+01  0.000000000E+00  0.00000E+00  9.000E+00
       1    -1     0     0   501     0  0.000000000E+00  0.000000000E+00 -1.920462785E+03  1.920462785E+03  0.000000000E+00  0.00000E+00  9.000E+00
      25     1     1     2     0     0  1.074726286E+02  8.237007722E+01 -9.727661368E+01  2.083817053E+02  1.250000000E+02  0.00000E+00  9.000E+00
      25     1     1     2     0     0 -4.552917049E+01 -6.170344423E+01 -3.378311717E+02  3.682867374E+02  1.250000000E+02  0.00000E+00  9.000E+00
       1     1     1     2   502     0 -6.194345814E+01 -2.066663299E+01 -1.413821070E+03  1.415328273E+03  2.157918644E-05  0.00000E+00  9.000E+00
#rwgt            1           1   4.3584855047310730E-002           1      352116           0
</event>
<event>
      5   9999  3.79277E-02  3.20263E+01 -1.00000E+00  1.51094E-01
      21    -1     0     0   511   501  0.000000000E+00  0.000000000E+00  1.522506141E+02  1.522506141E+02  0.000000000E+00  0.00000E+00  9.000E+00
      21    -1     0     0   501   502  0.000000000E+00  0.000000000E+00 -6.560525911E+02  6.560525911E+02  0.000000000E+00  0.00000E+00  9.000E+00
      25     1     1     2     0     0 -1.837221131E+02  6.514503844E+01 -3.502411470E+02  4.198708753E+02  1.250000000E+02  0.00000E+00  9.000E+00
      25     1     1     2     0     0  2.101562256E+02 -8.322596173E+01 -2.036886456E+02  3.289472058E+02  1.250000000E+02  0.00000E+00  9.000E+00
      21     1     1     2   511   502 -2.643411249E+01  1.808092330E+01  5.012781566E+01  5.948512413E+01  6.743495762E-07  0.00000E+00  9.000E+00
#rwgt            1           1   3.5346450917075251E-002           1      352195           0
</event>
<event>
      5   9999  3.79277E-02  3.64202E+01 -1.00000E+00  1.47411E-01
      21    -1     0     0   512   501  0.000000000E+00  0.000000000E+00  1.564721828E+02  1.564721828E+02  0.000000000E+00  0.00000E+00  9.000E+00
      21    -1     0     0   501   502  0.000000000E+00  0.000000000E+00 -2.106791281E+02  2.106791281E+02  0.000000000E+00  0.00000E+00  9.000E+00
      25     1     1     2     0     0 -7.082955501E+01 -3.677017216E+01  4.361778761E+01  1.545845491E+02  1.250000000E+02  0.00000E+00  9.000E+00
      25     1     1     2     0     0  3.740095481E+01  5.122555880E+01 -1.053878562E+02  1.753695798E+02  1.250000000E+02  0.00000E+00  9.000E+00
      21     1     1     2   512   502  3.342860021E+01 -1.445538664E+01  7.563123230E+00  3.719718199E+01  5.527507362E-07  0.00000E+00  9.000E+00
#rwgt            1           1   4.2078580640611728E-002           1      352325           0
</event>
<event>
      5   9999  3.79277E-02  2.22422E+01 -1.00000E+00  1.62649E-01
       2    -1     0     0   502     0  0.000000000E+00  0.000000000E+00  1.486198111E+03  1.486198111E+03  0.000000000E+00  0.00000E+00  9.000E+00
      21    -1     0     0   501   502  0.000000000E+00  0.000000000E+00 -1.857856633E+02  1.857856633E+02  0.000000000E+00  0.00000E+00  9.000E+00
      25     1     1     2     0     0 -1.537710953E+02 -9.137836349E+01 -1.230466803E+01  2.185679755E+02  1.250000000E+02  0.00000E+00  9.000E+00
      25     1     1     2     0     0  1.638041917E+02  7.152762397E+01  9.905769735E+01  2.395525863E+02  1.250000000E+02  0.00000E+00  9.000E+00
       2     1     1     2   501     0 -1.003309640E+01  1.985073952E+01  1.213659418E+03  1.213863213E+03  0.000000000E+00  0.00000E+00  9.000E+00
#rwgt            1           1   3.8811418547389828E-002           1      352404           0
</event>
<event>
      5   9999  3.79277E-02  1.24607E+02 -1.00000E+00  1.19678E-01
      21    -1     0     0   502   501  0.000000000E+00  0.000000000E+00  2.991380750E+02  2.991380750E+02  0.000000000E+00  0.00000E+00  9.000E+00
      21    -1     0     0   501   511  0.000000000E+00  0.000000000E+00 -2.005858047E+03  2.005858047E+03  0.000000000E+00  0.00000E+00  9.000E+00
      25     1     1     2     0     0  5.559328515E+01 -5.596650297E+01  1.456510618E+02  2.075140830E+02  1.250000000E+02  0.00000E+00  9.000E+00
      25     1     1     2     0     0 -1.699807631E+02  6.545545166E+00  2.803760696E+01  2.129493165E+02  1.250000000E+02  0.00000E+00  9.000E+00
      21     1     1     2   502   511  1.143874780E+02  4.942095780E+01 -1.880408641E+03  1.884532723E+03  0.000000000E+00  0.00000E+00  9.000E+00
#rwgt            1           1   8.4853662565695376E-002           1      352676           0
</event>
<event>
      5   9999  3.79277E-02  2.32220E+02 -1.00000E+00  1.09336E-01
      21    -1     0     0   502   501  0.000000000E+00  0.000000000E+00  4.359403691E+02  4.359403691E+02  0.000000000E+00  0.00000E+00  9.000E+00
       2    -1     0     0   501     0  0.000000000E+00  0.000000000E+00 -4.289068770E+03  4.289068770E+03  0.000000000E+00  0.00000E+00  9.000E+00
      25     1     1     2     0     0  3.610820537E+02  3.003432859E+02 -2.587456583E+02  5.506002675E+02  1.250000000E+02  0.00000E+00  9.000E+00
      25     1     1     2     0     0 -5.932840159E+02 -3.032281295E+02 -1.153697251E+02  6.876542704E+02  1.250000000E+02  0.00000E+00  9.000E+00
       2     1     1     2   502     0  2.322019622E+02  2.884843660E+00 -3.479013017E+03  3.486754601E+03  6.103515625E-05  0.00000E+00  9.000E+00
#rwgt            1           1   4.6326534484632330E-002           1      352792           0
</event>
<event>
      5   9999  3.79277E-02  1.75450E+01 -1.00000E+00  1.71203E-01
      21    -1     0     0   502   501  0.000000000E+00  0.000000000E+00  3.258228885E+02  3.258228885E+02  0.000000000E+00  0.00000E+00  9.000E+00
       1    -1     0     0   501     0  0.000000000E+00  0.000000000E+00 -1.487855627E+02  1.487855627E+02  0.000000000E+00  0.00000E+00  9.000E+00
      25     1     1     2     0     0  2.525237726E+01 -6.201727506E+01  1.511846931E+01  1.426092321E+02  1.250000000E+02  0.00000E+00  9.000E+00
      25     1     1     2     0     0 -1.108247627E+01  5.167123688E+01  2.270658753E+02  2.645309995E+02  1.250000000E+02  0.00000E+00  9.000E+00
       1     1     1     2   502     0 -1.416990099E+01  1.034603818E+01 -6.514701880E+01  6.746821962E+01  0.000000000E+00  0.00000E+00  9.000E+00
#rwgt            1           1   5.1166150497430667E-002           1      352847           0
</event>
<event>
      5   9999  3.79277E-02  3.69480E+01 -1.00000E+00  1.47011E-01
      21    -1     0     0   502   511  0.000000000E+00  0.000000000E+00  3.425104801E+01  3.425104801E+01  0.000000000E+00  0.00000E+00  9.000E+00
      21    -1     0     0   501   502  0.000000000E+00  0.000000000E+00 -1.515477650E+03  1.515477650E+03  0.000000000E+00  0.00000E+00  9.000E+00
      25     1     1     2     0     0  1.591647414E+01  1.949974648E+00 -1.266367011E+03  1.272622310E+03  1.250000000E+02  0.00000E+00  9.000E+00
      25     1     1     2     0     0 -3.629879231E+01  2.886742651E+01 -1.916809724E+02  2.334898837E+02  1.250000000E+02  0.00000E+00  9.000E+00
      21     1     1     2   501   511  2.038231817E+01 -3.081740116E+01 -2.317861850E+01  4.361650449E+01  1.348699152E-06  0.00000E+00  9.000E+00
#rwgt            1           1   1.9253158392697863E-002           1      353047           0
</event>
<event>
      5   9999  3.79277E-02  7.73154E+01 -1.00000E+00  1.29071E-01
      21    -1     0     0   502   501  0.000000000E+00  0.000000000E+00  7.118565694E+02  7.118565694E+02  0.000000000E+00  0.00000E+00  9.000E+00
      21    -1     0     0   512   502  0.000000000E+00  0.000000000E+00 -1.207770419E+02  1.207770419E+02  0.000000000E+00  0.00000E+00  9.000E+00
      25     1     1     2     0     0  8.685692134E+01  1.200267812E+02  3.897944991E+02  4.353335555E+02  1.250000000E+02  0.00000E+00  9.000E+00
      25     1     1     2     0     0 -7.062160940E+01 -1.956183962E+02  2.081292482E+02  3.196822682E+02  1.250000000E+02  0.00000E+00  9.000E+00
      21     1     1     2   512   501 -1.623531195E+01  7.559161497E+01 -6.844219826E+00  7.761778760E+01  1.590450295E-06  0.00000E+00  9.000E+00
#rwgt            1           1   4.0604249479915609E-002           1      353196           0
</event>
<event>
      5   9999  3.79277E-02  2.08191E+01 -1.00000E+00  1.64943E-01
      21    -1     0     0   502   511  0.000000000E+00  0.000000000E+00  8.154190527E+01  8.154190527E+01  0.000000000E+00  0.00000E+00  9.000E+00
      21    -1     0     0   501   502  0.000000000E+00  0.000000000E+00 -6.056935126E+02  6.056935126E+02  0.000000000E+00  0.00000E+00  9.000E+00
      25     1     1     2     0     0 -1.033497416E+02 -8.616766148E+01 -3.684854467E+02  4.117190297E+02  1.250000000E+02  0.00000E+00  9.000E+00
      25     1     1     2     0     0  8.882507612E+01  1.010831229E+02 -1.699797411E+02  2.502514820E+02  1.250000000E+02  0.00000E+00  9.000E+00
      21     1     1     2   501   511  1.452466550E+01 -1.491546145E+01  1.431358043E+01  2.526490615E+01  4.460403188E-07  0.00000E+00  9.000E+00
#rwgt            1           1   2.6546339845501560E-002           1      353244           0
</event>
<event>
      5   9999  3.79277E-02  1.63882E+01 -1.00000E+00  1.73837E-01
      21    -1     0     0   502   512  0.000000000E+00  0.000000000E+00  4.934494098E+02  4.934494098E+02  0.000000000E+00  0.00000E+00  9.000E+00
      21    -1     0     0   501   502  0.000000000E+00  0.000000000E+00 -1.072512296E+02  1.072512296E+02  0.000000000E+00  0.00000E+00  9.000E+00
      25     1     1     2     0     0 -1.484452450E+02 -3.626385774E+01  1.465064681E+02  2.458458934E+02  1.250000000E+02  0.00000E+00  9.000E+00
      25     1     1     2     0     0  1.505213314E+02  5.252002994E+01  1.229621955E+02  2.369804344E+02  1.250000000E+02  0.00000E+00  9.000E+00
      21     1     1     2   501   512 -2.076086465E+00 -1.625617220E+01  1.167295167E+02  1.178743116E+02  1.907348633E-06  0.00000E+00  9.000E+00
#rwgt            1           1   2.6230227694537565E-002           1      353431           0
</event>
<event>
      5   9999 -5.09793E-02  1.00480E+01 -1.00000E+00  1.95517E-01
      21    -1     0     0   502   501  0.000000000E+00  0.000000000E+00  1.151494033E+03  1.151494033E+03  0.000000000E+00  0.00000E+00  9.000E+00
      21    -1     0     0   511   502  0.000000000E+00  0.000000000E+00 -7.357729572E+01  7.357729572E+01  0.000000000E+00  0.00000E+00  9.000E+00
      25     1     1     2     0     0 -1.947831288E+02 -1.040950204E+02  6.810181812E+02  7.267647513E+02  1.250000000E+02  0.00000E+00  9.000E+00
      25     1     1     2     0     0  1.902999289E+02  9.510262451E+01  4.119590482E+02  4.802018633E+02  1.250000000E+02  0.00000E+00  9.000E+00
      21     1     1     2   511   501  4.483199904E+00  8.992395899E+00 -1.506049192E+01  1.810471437E+01  6.529361695E-07  0.00000E+00  9.000E+00
#rwgt            1           1 -0.76739106413791336                1      353760           0
</event>
<event>
      5   9999  3.79277E-02  1.18672E+02 -1.00000E+00  1.20574E-01
      21    -1     0     0   512   501  0.000000000E+00  0.000000000E+00  2.676772058E+03  2.676772058E+03  0.000000000E+00  0.00000E+00  9.000E+00
      21    -1     0     0   501   502  0.000000000E+00  0.000000000E+00 -7.246985195E+01  7.246985195E+01  0.000000000E+00  0.00000E+00  9.000E+00
      25     1     1     2     0     0 -7.444361448E+01  6.790822235E+01  3.793402344E+01  1.649768727E+02  1.250000000E+02  0.00000E+00  9.000E+00
      25     1     1     2     0     0  1.040343037E+01  3.200076261E+01  2.064608412E+03  2.068662653E+03  1.250000000E+02  0.00000E+00  9.000E+00
      21     1     1     2   512   502  6.404018410E+01 -9.990898496E+01  5.017597712E+02  5.156023841E+02  1.078959322E-05  0.00000E+00  9.000E+00
#rwgt            1           1   4.9490881178931939E-002           1      353999           0
</event>
<event>
      5   9999  3.79277E-02  7.52506E+01 -1.00000E+00  1.29649E-01
      21    -1     0     0   511   501  0.000000000E+00  0.000000000E+00  1.531898777E+03  1.531898777E+03  0.000000000E+00  0.00000E+00  9.000E+00
      21    -1     0     0   501   502  0.000000000E+00  0.000000000E+00 -3.298286348E+01  3.298286348E+01  0.000000000E+00  0.00000E+00  9.000E+00
      25     1     1     2     0     0 -1.081596071E+01 -7.906184510E+01  1.046274810E+03  1.056732577E+03  1.250000000E+02  0.00000E+00  9.000E+00
      25     1     1     2     0     0  5.803160156E+01  2.046713760E+01  1.944266229E+02  2.391929811E+02  1.250000000E+02  0.00000E+00  9.000E+00
      21     1     1     2   511   502 -4.721564085E+01  5.859470750E+01  2.582144804E+02  2.689560826E+02  3.814697266E-06  0.00000E+00  9.000E+00
#rwgt            1           1   2.0635227912924398E-002           1      354166           0
</event>
<event>
      5   9999  3.79277E-02  1.26253E+02 -1.00000E+00  1.19439E-01
      21    -1     0     0   512   501  0.000000000E+00  0.000000000E+00  1.978800021E+02  1.978800021E+02  0.000000000E+00  0.00000E+00  9.000E+00
      21    -1     0     0   501   502  0.000000000E+00  0.000000000E+00 -5.495558005E+02  5.495558005E+02  0.000000000E+00  0.00000E+00  9.000E+00
      25     1     1     2     0     0  4.669517707E+01 -2.184900162E+02 -1.835301361E+02  3.150025993E+02  1.250000000E+02  0.00000E+00  9.000E+00
      25     1     1     2     0     0 -1.297914559E+02  1.234382005E+02 -2.063976548E+02  3.005125676E+02  1.250000000E+02  0.00000E+00  9.000E+00
      21     1     1     2   512   502  8.309627879E+01  9.505181561E+01  3.825199239E+01  1.319206357E+02  2.336015456E-06  0.00000E+00  9.000E+00
#rwgt            1           1   3.5141176209586289E-002           1      354228           0
</event>
<event>
      5   9999  3.79277E-02  2.14193E+01 -1.00000E+00  1.63949E-01
      21    -1     0     0   502   511  0.000000000E+00  0.000000000E+00  3.024414030E+02  3.024414030E+02  0.000000000E+00  0.00000E+00  9.000E+00
      21    -1     0     0   501   502  0.000000000E+00  0.000000000E+00 -2.262829129E+02  2.262829129E+02  0.000000000E+00  0.00000E+00  9.000E+00
      25     1     1     2     0     0 -1.742732200E+01  1.567473140E+00  2.444212479E+02  2.750871043E+02  1.250000000E+02  0.00000E+00  9.000E+00
      25     1     1     2     0     0  3.824845838E+01  3.459231933E+00 -1.849329791E+02  2.264952927E+02  1.250000000E+02  0.00000E+00  9.000E+00
      21     1     1     2   501   511 -2.082113638E+01 -5.026705073E+00  1.667022126E+01  2.714191889E+01  4.129530925E-07  0.00000E+00  9.000E+00
#rwgt            1           1   2.4932638686777243E-002           1      354294           0
</event>
<event>
      5   9999  3.79277E-02  3.22017E+01 -1.00000E+00  1.50934E-01
      21    -1     0     0   502   501  0.000000000E+00  0.000000000E+00  3.962258739E+02  3.962258739E+02  0.000000000E+00  0.00000E+00  9.000E+00
      21    -1     0     0   512   502  0.000000000E+00  0.000000000E+00 -4.634328703E+02  4.634328703E+02  0.000000000E+00  0.00000E+00  9.000E+00
      25     1     1     2     0     0  1.366748663E+02  1.154063894E+02  2.047040662E+02  2.992113108E+02  1.250000000E+02  0.00000E+00  9.000E+00
      25     1     1     2     0     0 -1.076984120E+02 -1.294532119E+02  6.688342072E+01  2.201260411E+02  1.250000000E+02  0.00000E+00  9.000E+00
      21     1     1     2   512   501 -2.897645434E+01  1.404682253E+01 -3.387944833E+02  3.403213923E+02  3.814697266E-06  0.00000E+00  9.000E+00
#rwgt            1           1   2.5286029737448038E-002           1      354441           0
</event>
<event>
      5   9999  3.79277E-02  8.81496E+01 -1.00000E+00  1.26343E-01
      21    -1     0     0   502   511  0.000000000E+00  0.000000000E+00  7.422278213E+01  7.422278213E+01  0.000000000E+00  0.00000E+00  9.000E+00
      21    -1     0     0   501   502  0.000000000E+00  0.000000000E+00 -8.587427585E+02  8.587427585E+02  0.000000000E+00  0.00000E+00  9.000E+00
      25     1     1     2     0     0  1.924133795E+01 -9.867851226E+01 -1.573358225E+02  2.246936557E+02  1.250000000E+02  0.00000E+00  9.000E+00
      25     1     1     2     0     0 -8.161332832E+01  1.609688010E+02 -5.458008259E+02  5.882985907E+02  1.250000000E+02  0.00000E+00  9.000E+00
      21     1     1     2   501   511  6.237199037E+01 -6.229028876E+01 -8.138332793E+01  1.199732942E+02  9.536743164E-07  0.00000E+00  9.000E+00
#rwgt            1           1   4.7866937421734174E-002           1      354657           0
</event>
<event>
      5   9999  3.79277E-02  5.10195E+01 -1.00000E+00  1.38577E-01
      21    -1     0     0   512   501  0.000000000E+00  0.000000000E+00  7.249064846E+02  7.249064846E+02  0.000000000E+00  0.00000E+00  9.000E+00
      21    -1     0     0   501   502  0.000000000E+00  0.000000000E+00 -6.053421226E+02  6.053421226E+02  0.000000000E+00  0.00000E+00  9.000E+00
      25     1     1     2     0     0  2.537940434E+02  2.614906552E+02 -2.446294093E+02  4.563521964E+02  1.250000000E+02  0.00000E+00  9.000E+00
      25     1     1     2     0     0 -2.032212241E+02 -2.682267761E+02 -1.264527030E+02  3.806044606E+02  1.250000000E+02  0.00000E+00  9.000E+00
      21     1     1     2   512   502 -5.057281929E+01  6.736120911E+00  4.906464743E+02  4.932919502E+02  5.394796609E-06  0.00000E+00  9.000E+00
#rwgt            1           1   3.5257158674144286E-002           1      354782           0
</event>
<event>
      5   9999  3.79277E-02  1.49368E+02 -1.00000E+00  1.16466E-01
      21    -1     0     0   502   501  0.000000000E+00  0.000000000E+00  4.230834391E+02  4.230834391E+02  0.000000000E+00  0.00000E+00  9.000E+00
      21    -1     0     0   501   511  0.000000000E+00  0.000000000E+00 -4.766903245E+02  4.766903245E+02  0.000000000E+00  0.00000E+00  9.000E+00
      25     1     1     2     0     0  6.103196899E+01 -2.673369617E+02  1.979079861E+02  3.605364383E+02  1.250000000E+02  0.00000E+00  9.000E+00
      25     1     1     2     0     0 -3.491336799E+01  1.202704597E+02  6.559464495E+01  1.887103182E+02  1.250000000E+02  0.00000E+00  9.000E+00
      21     1     1     2   502   511 -2.611860101E+01  1.470665021E+02 -3.171095165E+02  3.505270072E+02  6.607249480E-06  0.00000E+00  9.000E+00
#rwgt            1           1   4.1233787664673879E-002           1      354900           0
</event>
<event>
      5   9999  3.79277E-02  1.98482E+02 -1.00000E+00  1.11769E-01
      21    -1     0     0   502   501  0.000000000E+00  0.000000000E+00  1.450289406E+02  1.450289406E+02  0.000000000E+00  0.00000E+00  9.000E+00
       4    -1     0     0   501     0  0.000000000E+00  0.000000000E+00 -1.096892380E+03  1.096892380E+03  0.000000000E+00  0.00000E+00  9.000E+00
      25     1     1     2     0     0  2.120331715E+02 -1.893982719E+02 -2.931846159E+02  4.270971672E+02  1.250000000E+02  0.00000E+00  9.000E+00
      25     1     1     2     0     0 -1.690717419E+01  2.257443428E+02 -2.460875283E+02  3.569739940E+02  1.250000000E+02  0.00000E+00  9.000E+00
       4     1     1     2   502     0 -1.951259973E+02 -3.634607090E+01 -4.125912956E+02  4.578501599E+02  0.000000000E+00  0.00000E+00  9.000E+00
#rwgt            1           1  0.22538429948928254                1      354979           0
</event>
<event>
      5   9999  3.79277E-02  8.37443E+01 -1.00000E+00  1.27395E-01
      21    -1     0     0   511   501  0.000000000E+00  0.000000000E+00  1.043965004E+02  1.043965004E+02  0.000000000E+00  0.00000E+00  9.000E+00
      21    -1     0     0   501   502  0.000000000E+00  0.000000000E+00 -7.273736444E+02  7.273736444E+02  0.000000000E+00  0.00000E+00  9.000E+00
      25     1     1     2     0     0  2.474181213E-01 -8.116631446E+01 -2.269154786E+01  1.507578793E+02  1.250000000E+02  0.00000E+00  9.000E+00
      25     1     1     2     0     0  6.747586901E+01  1.304275715E+02 -5.511574496E+02  5.839211235E+02  1.250000000E+02  0.00000E+00  9.000E+00
      21     1     1     2   511   502 -6.772328714E+01 -4.926125705E+01 -4.912814652E+01  9.709114196E+01  9.536743164E-07  0.00000E+00  9.000E+00
#rwgt            1           1   4.8183573887624627E-002           1      355087           0
</event>
<event>
      5   9999  3.79277E-02  3.95044E+01 -1.00000E+00  1.45177E-01
      21    -1     0     0   502   501  0.000000000E+00  0.000000000E+00  1.188150310E+03  1.188150310E+03  0.000000000E+00  0.00000E+00  9.000E+00
      21    -1     0     0   501   512  0.000000000E+00  0.000000000E+00 -3.098971592E+02  3.098971592E+02  0.000000000E+00  0.00000E+00  9.000E+00
      25     1     1     2     0     0 -1.881532024E+01  1.530128533E+02  7.579294131E+02  7.834851274E+02  1.250000000E+02  0.00000E+00  9.000E+00
      25     1     1     2     0     0  5.753573847E+01 -1.608439612E+02  3.890722441E+02  4.429258993E+02  1.250000000E+02  0.00000E+00  9.000E+00
      21     1     1     2   502   512 -3.872041823E+01  7.831107926E+00 -2.687485066E+02  2.716364424E+02  7.629394531E-06  0.00000E+00  9.000E+00
#rwgt            1           1   4.3546547327690685E-002           1      355264           0
</event>
<event>
      5   9999  3.79277E-02  3.17374E+01 -1.00000E+00  1.51361E-01
      21    -1     0     0   502   501  0.000000000E+00  0.000000000E+00  3.944741671E+02  3.944741671E+02  0.000000000E+00  0.00000E+00  9.000E+00
      21    -1     0     0   501   511  0.000000000E+00  0.000000000E+00 -1.905866835E+02  1.905866835E+02  0.000000000E+00  0.00000E+00  9.000E+00
      25     1     1     2     0     0 -1.554677011E+02  1.441760773E+02  1.330400850E+02  2.797885122E+02  1.250000000E+02  0.00000E+00  9.000E+00
      25     1     1     2     0     0  1.779663987E+02 -1.217915272E+02  9.356561122E+01  2.662418802E+02  1.250000000E+02  0.00000E+00  9.000E+00
      21     1     1     2   502   511 -2.249869758E+01 -2.238455011E+01 -2.271821269E+01  3.903045816E+01  0.000000000E+00  0.00000E+00  9.000E+00
#rwgt            1           1   2.6322400349609164E-002           1      355425           0
</event>
<event>
      5   9999  3.79277E-02  3.73655E+01 -1.00000E+00  1.46699E-01
      21    -1     0     0   502   501  0.000000000E+00  0.000000000E+00  2.622843492E+02  2.622843492E+02  0.000000000E+00  0.00000E+00  9.000E+00
      21    -1     0     0   512   502  0.000000000E+00  0.000000000E+00 -4.411879922E+02  4.411879922E+02  0.000000000E+00  0.00000E+00  9.000E+00
      25     1     1     2     0     0 -1.527255864E+02 -1.646015311E+02 -2.258432366E+02  3.421241534E+02  1.250000000E+02  0.00000E+00  9.000E+00
      25     1     1     2     0     0  1.755034050E+02  1.349813677E+02  1.185800454E+02  2.805488228E+02  1.250000000E+02  0.00000E+00  9.000E+00
      21     1     1     2   512   501 -2.277781857E+01  2.962016342E+01 -7.164045174E+01  8.079936525E+01  9.536743164E-07  0.00000E+00  9.000E+00
#rwgt            1           1   3.7226388321150966E-002           1      355733           0
</event>
<event>
      5   9999  3.79277E-02  8.92648E+00 -1.00000E+00  2.01637E-01
      -2    -1     0     0     0   501  0.000000000E+00  0.000000000E+00  6.743441245E+02  6.743441245E+02  0.000000000E+00  0.00000E+00  9.000E+00
      21    -1     0     0   501   502  0.000000000E+00  0.000000000E+00 -1.252892566E+03  1.252892566E+03  0.000000000E+00  0.00000E+00  9.000E+00
      25     1     1     2     0     0 -8.095228490E+01 -1.410892298E+02 -3.710239790E+02  4.239613617E+02  1.250000000E+02  0.00000E+00  9.000E+00
      25     1     1     2     0     0  7.933269157E+01  1.323109022E+02 -8.438458245E+02  8.668913579E+02  1.250000000E+02  0.00000E+00  9.000E+00
      -2     1     1     2     0   502  1.619593322E+00  8.778327619E+00  6.363213623E+02  6.363839708E+02  7.629394531E-06  0.00000E+00  9.000E+00
#rwgt            1           1   4.8973957197758974E-002           1      355861           0
</event>
<event>
      5   9999  3.79277E-02  5.55778E+01 -1.00000E+00  1.36505E-01
      21    -1     0     0   511   501  0.000000000E+00  0.000000000E+00  1.666540957E+02  1.666540957E+02  0.000000000E+00  0.00000E+00  9.000E+00
      21    -1     0     0   501   502  0.000000000E+00  0.000000000E+00 -7.831616673E+02  7.831616673E+02  0.000000000E+00  0.00000E+00  9.000E+00
      25     1     1     2     0     0  1.093799695E+02 -1.097360427E+02 -1.773044381E+02  2.665855220E+02  1.250000000E+02  0.00000E+00  9.000E+00
      25     1     1     2     0     0 -1.333374949E+02  1.598850868E+02 -5.264667339E+02  5.797709465E+02  1.250000000E+02  0.00000E+00  9.000E+00
      21     1     1     2   511   502  2.395752533E+01 -5.014904411E+01  8.726360041E+01  1.034592944E+02  1.907348633E-06  0.00000E+00  9.000E+00
#rwgt            1           1   6.0411034259713385E-002           1      356231           0
</event>
<event>
      5   9999  3.79277E-02  1.08131E+01 -1.00000E+00  1.91913E-01
      21    -1     0     0   512   501  0.000000000E+00  0.000000000E+00  6.411688679E+01  6.411688679E+01  0.000000000E+00  0.00000E+00  9.000E+00
      21    -1     0     0   501   502  0.000000000E+00  0.000000000E+00 -1.320820632E+03  1.320820632E+03  0.000000000E+00  0.00000E+00  9.000E+00
      25     1     1     2     0     0 -1.461645819E+02 -3.682519317E+01 -1.376810386E+02  2.393767914E+02  1.250000000E+02  0.00000E+00  9.000E+00
      25     1     1     2     0     0  1.541545430E+02  4.411105247E+01 -1.115951218E+03  1.134319853E+03  1.250000000E+02  0.00000E+00  9.000E+00
      21     1     1     2   512   502 -7.989961057E+00 -7.285859295E+00 -3.071489143E+00  1.124087492E+01  2.021291847E-07  0.00000E+00  9.000E+00
#rwgt            1           1   3.8532503073875825E-002           1      356287           0
</event>
<event>
      5   9999  3.79277E-02  3.75815E+01 -1.00000E+00  1.46540E-01
      21    -1     0     0   511   501  0.000000000E+00  0.000000000E+00  5.735889542E+02  5.735889542E+02  0.000000000E+00  0.00000E+00  9.000E+00
      21    -1     0     0   501   502  0.000000000E+00  0.000000000E+00 -5.176335241E+01  5.176335241E+01  0.000000000E+00  0.00000E+00  9.000E+00
      25     1     1     2     0     0  5.098358111E+01 -4.367842082E+01  1.864958315E+02  2.343348569E+02  1.250000000E+02  0.00000E+00  9.000E+00
      25     1     1     2     0     0 -1.616459342E+01  5.782069408E+01  1.601111573E+02  2.118138556E+02  1.250000000E+02  0.00000E+00  9.000E+00
      21     1     1     2   511   502 -3.481898769E+01 -1.414227326E+01  1.752186130E+02  1.792035941E+02  2.697398305E-06  0.00000E+00  9.000E+00
#rwgt            1           1  0.12483578747195917                1      356611           0
</event>
<event>
      5   9999  3.79277E-02  7.37276E+01 -1.00000E+00  1.30090E-01
      21    -1     0     0   502   501  0.000000000E+00  0.000000000E+00  3.181754319E+02  3.181754319E+02  0.000000000E+00  0.00000E+00  9.000E+00
      21    -1     0     0   501   512  0.000000000E+00  0.000000000E+00 -1.183484112E+02  1.183484112E+02  0.000000000E+00  0.00000E+00  9.000E+00
      25     1     1     2     0     0  2.359122308E+01  1.483332406E+01 -4.808590056E+00  1.281588696E+02  1.250000000E+02  0.00000E+00  9.000E+00
      25     1     1     2     0     0  3.292950984E+01  3.250766158E+01  1.917411907E+02  2.335182753E+02  1.250000000E+02  0.00000E+00  9.000E+00
      21     1     1     2   502   512 -5.652073293E+01 -4.734098564E+01  1.289442014E+01  7.484669827E+01  1.079486029E-06  0.00000E+00  9.000E+00
#rwgt            1           1  0.12270438582571300                1      356676           0
</event>
<event>
      5   9999  3.79277E-02  4.27206E+00 -1.00000E+00  2.56914E-01
      21    -1     0     0   502   501  0.000000000E+00  0.000000000E+00  3.347158809E+02  3.347158809E+02  0.000000000E+00  0.00000E+00  9.000E+00
       3    -1     0     0   501     0  0.000000000E+00  0.000000000E+00 -1.069034214E+03  1.069034214E+03  0.000000000E+00  0.00000E+00  9.000E+00
      25     1     1     2     0     0 -1.340867996E+02 -1.181327322E+02  1.735283460E+02  2.786964282E+02  1.250000000E+02  0.00000E+00  9.000E+00
      25     1     1     2     0     0  1.325856282E+02  1.221323585E+02 -2.177202196E+00  2.193741142E+02  1.250000000E+02  0.00000E+00  9.000E+00
       3     1     1     2   502     0  1.501171483E+00 -3.999626291E+00 -9.056694767E+02  9.056795523E+02  1.078959322E-05  0.00000E+00  9.000E+00
#rwgt            1           1   2.7870843875195003E-002           1      356740           0
</event>
<event>
      5   9999  3.79277E-02  2.81660E+01 -1.00000E+00  1.54967E-01
      21    -1     0     0   502   511  0.000000000E+00  0.000000000E+00  1.071707406E+03  1.071707406E+03  0.000000000E+00  0.00000E+00  9.000E+00
      21    -1     0     0   501   502  0.000000000E+00  0.000000000E+00 -2.879765873E+02  2.879765873E+02  0.000000000E+00  0.00000E+00  9.000E+00
      25     1     1     2     0     0  8.073789916E+01  1.565519562E+02  5.737706029E+01  2.234821031E+02  1.250000000E+02  0.00000E+00  9.000E+00
      25     1     1     2     0     0 -5.838252840E+01 -1.394184011E+02 -1.577151112E+02  2.516844582E+02  1.250000000E+02  0.00000E+00  9.000E+00
      21     1     1     2   501   511 -2.235537076E+01 -1.713355503E+01  8.840688701E+02  8.845174325E+02  1.078959322E-05  0.00000E+00  9.000E+00
#rwgt            1           1   3.5049514550109441E-002           1      357143           0
</event>
<event>
      5   9999  3.79277E-02  6.15262E+01 -1.00000E+00  1.34123E-01
      21    -1     0     0   502   501  0.000000000E+00  0.000000000E+00  1.053952990E+02  1.053952990E+02  0.000000000E+00  0.00000E+00  9.000E+00
      21    -1     0     0   501   512  0.000000000E+00  0.000000000E+00 -4.469514306E+02  4.469514306E+02  0.000000000E+00  0.00000E+00  9.000E+00
      25     1     1     2     0     0 -1.250280801E+02  7.582609031E+01 -2.096711021E+02  2.845497985E+02  1.250000000E+02  0.00000E+00  9.000E+00
      25     1     1     2     0     0  9.805580852E+01 -2.052719745E+01 -5.510013171E+01  1.694028687E+02  1.250000000E+02  0.00000E+00  9.000E+00
      21     1     1     2   502   512  2.697227158E+01 -5.529889285E+01 -7.678489774E+01  9.839406235E+01  1.651812370E-06  0.00000E+00  9.000E+00
#rwgt            1           1   4.5589357202831339E-002           1      357291           0
</event>
<event>
      5   9999  3.79277E-02  4.14974E+01 -1.00000E+00  1.43857E-01
      21    -1     0     0   502   501  0.000000000E+00  0.000000000E+00  2.897523266E+02  2.897523266E+02  0.000000000E+00  0.00000E+00  9.000E+00
      21    -1     0     0   511   502  0.000000000E+00  0.000000000E+00 -1.972291720E+02  1.972291720E+02  0.000000000E+00  0.00000E+00  9.000E+00
      25     1     1     2     0     0 -1.041601360E+02  1.038483642E+02  1.517854212E+02  2.455557590E+02  1.250000000E+02  0.00000E+00  9.000E+00
      25     1     1     2     0     0  6.322327565E+01 -1.106461413E+02 -1.255658897E+01  1.789480905E+02  1.250000000E+02  0.00000E+00  9.000E+00
      21     1     1     2   511   501  4.093686034E+01  6.797777125E+00 -4.670567769E+01  6.247764909E+01  6.743495762E-07  0.00000E+00  9.000E+00
#rwgt            1           1   3.8636732136397567E-002           1      357392           0
</event>
<event>
      5   9999 -3.79277E-02  4.28814E+01 -1.00000E+00  1.42991E-01
      21    -1     0     0   512   501  0.000000000E+00  0.000000000E+00  6.095319660E+02  6.095319660E+02  0.000000000E+00  0.00000E+00  9.000E+00
      21    -1     0     0   501   502  0.000000000E+00  0.000000000E+00 -9.172622653E+01  9.172622653E+01  0.000000000E+00  0.00000E+00  9.000E+00
      25     1     1     2     0     0  6.073215284E+01  1.386237194E+02  1.873684850E+02  2.713611600E+02  1.250000000E+02  0.00000E+00  9.000E+00
      25     1     1     2     0     0 -3.237692799E+01 -1.707920046E+02  2.014997953E+02  2.940158870E+02  1.250000000E+02  0.00000E+00  9.000E+00
      21     1     1     2   512   502 -2.835522485E+01  3.216828520E+01  1.289374592E+02  1.358811456E+02  0.000000000E+00  0.00000E+00  9.000E+00
#rwgt            1           1  -8.2728746297944314E-002           1      357486           0
</event>
<event>
      5   9999  3.79277E-02  6.27256E+01 -1.00000E+00  1.33680E-01
      21    -1     0     0   502   501  0.000000000E+00  0.000000000E+00  1.211483402E+02  1.211483402E+02  0.000000000E+00  0.00000E+00  9.000E+00
      21    -1     0     0   501   511  0.000000000E+00  0.000000000E+00 -5.827458631E+02  5.827458631E+02  0.000000000E+00  0.00000E+00  9.000E+00
      25     1     1     2     0     0  1.396362881E+02  1.556513892E+02 -1.261461237E+02  2.743419262E+02  1.250000000E+02  0.00000E+00  9.000E+00
      25     1     1     2     0     0 -7.818131932E+01 -1.430902135E+02 -2.624256219E+02  3.332856656E+02  1.250000000E+02  0.00000E+00  9.000E+00
      21     1     1     2   502   511 -6.145496883E+01 -1.256117575E+01 -7.302577736E+01  9.626661149E+01  9.536743164E-07  0.00000E+00  9.000E+00
#rwgt            1           1   4.0824972930032170E-002           1      357666           0
</event>
<event>
      5   9999  3.79277E-02  2.16704E+01 -1.00000E+00  1.63545E-01
      21    -1     0     0   512   501  0.000000000E+00  0.000000000E+00  2.784479162E+02  2.784479162E+02  0.000000000E+00  0.00000E+00  9.000E+00
      21    -1     0     0   501   502  0.000000000E+00  0.000000000E+00 -2.265580015E+02  2.265580015E+02  0.000000000E+00  0.00000E+00  9.000E+00
      25     1     1     2     0     0 -1.885285058E+02 -8.971037432E+01  6.010759967E+01  2.506568816E+02  1.250000000E+02  0.00000E+00  9.000E+00
      25     1     1     2     0     0  1.668586197E+02  8.986546780E+01 -2.288661854E+01  2.281806271E+02  1.250000000E+02  0.00000E+00  9.000E+00
      21     1     1     2   512   502  2.166988609E+01 -1.550934847E-01  1.466893358E+01  2.616840900E+01  2.920019320E-07  0.00000E+00  9.000E+00
#rwgt            1           1   5.3248995795409329E-002           1      357812           0
</event>
<event>
      5   9999  3.79277E-02  2.93379E+01 -1.00000E+00  1.53716E-01
      21    -1     0     0   502   501  0.000000000E+00  0.000000000E+00  5.371445598E+02  5.371445598E+02  0.000000000E+00  0.00000E+00  9.000E+00
      21    -1     0     0   511   502  0.000000000E+00  0.000000000E+00 -1.080349871E+02  1.080349871E+02  0.000000000E+00  0.00000E+00  9.000E+00
      25     1     1     2     0     0  1.490509719E+02  8.161651946E+01  2.473693473E+02  3.251062018E+02  1.250000000E+02  0.00000E+00  9.000E+00
      25     1     1     2     0     0 -1.688902456E+02 -1.032293163E+02  1.629774959E+02  2.852487878E+02  1.250000000E+02  0.00000E+00  9.000E+00
      21     1     1     2   511   501  1.983927363E+01  2.161279682E+01  1.876272953E+01  3.482455719E+01  3.371747881E-07  0.00000E+00  9.000E+00
#rwgt            1           1   3.2265894784564556E-002           1      357989           0
</event>
<event>
      5   9999  3.79277E-02  9.28285E+01 -1.00000E+00  1.25299E-01
      21    -1     0     0   502   501  0.000000000E+00  0.000000000E+00  9.812627524E+01  9.812627524E+01  0.000000000E+00  0.00000E+00  9.000E+00
      21    -1     0     0   512   502  0.000000000E+00  0.000000000E+00 -9.052720045E+02  9.052720045E+02  0.000000000E+00  0.00000E+00  9.000E+00
      25     1     1     2     0     0 -5.121809609E+01 -6.682585143E+01 -6.371937503E+02  6.547746659E+02  1.250000000E+02  0.00000E+00  9.000E+00
      25     1     1     2     0     0  7.284162388E+00 -1.494785872E+01  2.872375158E+01  1.293311695E+02  1.250000000E+02  0.00000E+00  9.000E+00
      21     1     1     2   512   501  4.393393370E+01  8.177371015E+01 -1.986757306E+02  2.192924443E+02  3.814697266E-06  0.00000E+00  9.000E+00
#rwgt            1           1   4.5356796663641598E-002           1      358150           0
</event>
<event>
      5   9999  3.79277E-02  4.73443E+01 -1.00000E+00  1.40442E-01
      21    -1     0     0   502   501  0.000000000E+00  0.000000000E+00  2.065151699E+02  2.065151699E+02  0.000000000E+00  0.00000E+00  9.000E+00
      21    -1     0     0   501   511  0.000000000E+00  0.000000000E+00 -2.245515172E+02  2.245515172E+02  0.000000000E+00  0.00000E+00  9.000E+00
      25     1     1     2     0     0 -1.280478886E+02  8.374444772E+01 -3.433905709E+01  2.005332021E+02  1.250000000E+02  0.00000E+00  9.000E+00
      25     1     1     2     0     0  8.170588734E+01 -9.343456990E+01  3.505641826E+01  1.796101983E+02  1.250000000E+02  0.00000E+00  9.000E+00
      21     1     1     2   502   511  4.634200124E+01  9.690122180E+00 -1.875370847E+01  5.092328670E+01  7.152557373E-07  0.00000E+00  9.000E+00
#rwgt            1           1   2.1972075344652394E-002           1      358337           0
</event>
<event>
      5   9999  3.79277E-02  2.75052E+01 -1.00000E+00  1.55706E-01
      21    -1     0     0   512   501  0.000000000E+00  0.000000000E+00  3.862226244E+02  3.862226244E+02  0.000000000E+00  0.00000E+00  9.000E+00
      21    -1     0     0   501   502  0.000000000E+00  0.000000000E+00 -2.146464284E+02  2.146464284E+02  0.000000000E+00  0.00000E+00  9.000E+00
      25     1     1     2     0     0  1.674174181E+02 -1.179467804E+02  2.308564532E+01  2.410352296E+02  1.250000000E+02  0.00000E+00  9.000E+00
      25     1     1     2     0     0 -1.409862740E+02  1.255579999E+02  1.873583862E+01  2.271958900E+02  1.250000000E+02  0.00000E+00  9.000E+00
      21     1     1     2   512   502 -2.643114413E+01 -7.611219520E+00  1.297547121E+02  1.326379333E+02  2.697398305E-06  0.00000E+00  9.000E+00
#rwgt            1           1   3.4462257301848181E-002           1      358464           0
</event>
<event>
      5   9999  3.79277E-02  4.71954E+01 -1.00000E+00  1.40521E-01
      21    -1     0     0   511   501  0.000000000E+00  0.000000000E+00  3.897008294E+02  3.897008294E+02  0.000000000E+00  0.00000E+00  9.000E+00
      21    -1     0     0   501   502  0.000000000E+00  0.000000000E+00 -4.315362585E+02  4.315362585E+02  0.000000000E+00  0.00000E+00  9.000E+00
      25     1     1     2     0     0  3.495977968E+01  1.971376612E+02 -2.942215598E+02  3.771959304E+02  1.250000000E+02  0.00000E+00  9.000E+00
      25     1     1     2     0     0  1.131203963E+01 -2.064289247E+02  6.412687131E+01  2.499562338E+02  1.250000000E+02  0.00000E+00  9.000E+00
      21     1     1     2   511   502 -4.627181931E+01  9.291263540E+00  1.882592594E+02  1.940849237E+02  2.697398305E-06  0.00000E+00  9.000E+00
#rwgt            1           1   6.5988191750537217E-002           1      358698           0
</event>
<event>
      5   9999  3.79277E-02  7.59790E+01 -1.00000E+00  1.29443E-01
      21    -1     0     0   502   512  0.000000000E+00  0.000000000E+00  7.032823457E+01  7.032823457E+01  0.000000000E+00  0.00000E+00  9.000E+00
      21    -1     0     0   501   502  0.000000000E+00  0.000000000E+00 -1.874603652E+03  1.874603652E+03  0.000000000E+00  0.00000E+00  9.000E+00
      25     1     1     2     0     0 -1.696304207E+02  1.976178180E+02 -6.829698860E+02  7.415525247E+02  1.250000000E+02  0.00000E+00  9.000E+00
      25     1     1     2     0     0  2.352117706E+02 -2.359830838E+02 -9.852378736E+02  1.047535804E+03  1.250000000E+02  0.00000E+00  9.000E+00
      21     1     1     2   501   512 -6.558134986E+01  3.836526583E+01 -1.360676578E+02  1.558435580E+02  0.000000000E+00  0.00000E+00  9.000E+00
#rwgt            1           1   4.0528271844901646E-002           1      358833           0
</event>
<event>
      5   9999  3.79277E-02  1.39776E+01 -1.00000E+00  1.80321E-01
      21    -1     0     0   502   501  0.000000000E+00  0.000000000E+00  1.003369573E+02  1.003369573E+02  0.000000000E+00  0.00000E+00  9.000E+00
      21    -1     0     0   511   502  0.000000000E+00  0.000000000E+00 -4.326920439E+02  4.326920439E+02  0.000000000E+00  0.00000E+00  9.000E+00
      25     1     1     2     0     0 -5.358309649E+01 -8.890022961E-01  3.123745878E+01  1.395446788E+02  1.250000000E+02  0.00000E+00  9.000E+00
      25     1     1     2     0     0  4.331851222E+01  1.037642142E+01 -2.948519360E+02  3.233370189E+02  1.250000000E+02  0.00000E+00  9.000E+00
      21     1     1     2   511   501  1.026458426E+01 -9.487419129E+00 -6.874060939E+01  7.014730352E+01  0.000000000E+00  0.00000E+00  9.000E+00
#rwgt            1           1   5.1851265299779237E-002           1      359000           0
</event>
<event>
      5   9999  3.79277E-02  2.45418E+01 -1.00000E+00  1.59355E-01
      21    -1     0     0   512   501  0.000000000E+00  0.000000000E+00  1.197128672E+03  1.197128672E+03  0.000000000E+00  0.00000E+00  9.000E+00
      21    -1     0     0   501   502  0.000000000E+00  0.000000000E+00 -8.662540471E+01  8.662540471E+01  0.000000000E+00  0.00000E+00  9.000E+00
      25     1     1     2     0     0  1.937870417E+02 -1.938103159E+02  5.121125248E+02  5.941381103E+02  1.250000000E+02  0.00000E+00  9.000E+00
      25     1     1     2     0     0 -2.178997335E+02  1.892413025E+02  5.224987761E+02  6.098545199E+02  1.250000000E+02  0.00000E+00  9.000E+00
      21     1     1     2   512   502  2.411269179E+01  4.569013387E+00  7.589196677E+01  7.976144689E+01  1.348699152E-06  0.00000E+00  9.000E+00
#rwgt            1           1   1.7138967193228289E-002           1      359274           0
</event>
<event>
      5   9999  3.79277E-02  1.08761E+02 -1.00000E+00  1.22209E-01
       1    -1     0     0   502     0  0.000000000E+00  0.000000000E+00  1.267688867E+03  1.267688867E+03  0.000000000E+00  0.00000E+00  9.000E+00
      21    -1     0     0   501   502  0.000000000E+00  0.000000000E+00 -1.005102759E+02  1.005102759E+02  0.000000000E+00  0.00000E+00  9.000E+00
      25     1     1     2     0     0 -4.698792540E+01  3.345156032E+01 -2.065372992E+01  1.392064962E+02  1.250000000E+02  0.00000E+00  9.000E+00
      25     1     1     2     0     0  4.562829142E+01  7.530059500E+01  3.231314418E+02  3.574787396E+02  1.250000000E+02  0.00000E+00  9.000E+00
       1     1     1     2   501     0  1.359633975E+00 -1.087521553E+02  8.647008797E+02  8.715139077E+02  1.078959322E-05  0.00000E+00  9.000E+00
#rwgt            1           1   5.3105412425153493E-002           1      359601           0
</event>
<event>
      5   9999 -3.79277E-02  1.05199E+02 -1.00000E+00  1.22846E-01
      21    -1     0     0   502   511  0.000000000E+00  0.000000000E+00  6.547096314E+01  6.547096314E+01  0.000000000E+00  0.00000E+00  9.000E+00
      21    -1     0     0   501   502  0.000000000E+00  0.000000000E+00 -9.543429125E+02  9.543429125E+02  0.000000000E+00  0.00000E+00  9.000E+00
      25     1     1     2     0     0  3.333473749E+01  7.385852526E+01 -2.885487841E+02  3.247332556E+02  1.250000000E+02  0.00000E+00  9.000E+00
      25     1     1     2     0     0 -1.366108203E+02 -9.387852280E+01 -5.281934985E+02  5.675289113E+02  1.250000000E+02  0.00000E+00  9.000E+00
      21     1     1     2   501   511  1.032760828E+02  2.001999755E+01 -7.212966669E+01  1.275517087E+02  0.000000000E+00  0.00000E+00  9.000E+00
#rwgt            1           1 -0.15737405940221913                1      359706           0
</event>
<event>
      5   9999  3.79277E-02  4.16416E+01 -1.00000E+00  1.43765E-01
      21    -1     0     0   502   501  0.000000000E+00  0.000000000E+00  3.643423314E+02  3.643423314E+02  0.000000000E+00  0.00000E+00  9.000E+00
      21    -1     0     0   501   512  0.000000000E+00  0.000000000E+00 -1.492047253E+02  1.492047253E+02  0.000000000E+00  0.00000E+00  9.000E+00
      25     1     1     2     0     0 -5.408366865E+01  4.707066421E+01 -5.865926928E+01  1.555847053E+02  1.250000000E+02  0.00000E+00  9.000E+00
      25     1     1     2     0     0  2.743968796E+01 -1.506873878E+01  2.867329052E+02  3.143576980E+02  1.250000000E+02  0.00000E+00  9.000E+00
      21     1     1     2   502   512  2.664398069E+01 -3.200192544E+01 -1.293602978E+01  4.360465348E+01  9.973764736E-07  0.00000E+00  9.000E+00
#rwgt            1           1   4.5694804356020205E-002           1      359785           0
</event>
<event>
      5   9999  3.79277E-02  1.64598E+01 -1.00000E+00  1.73666E-01
      21    -1     0     0   502   511  0.000000000E+00  0.000000000E+00  7.139983044E+02  7.139983044E+02  0.000000000E+00  0.00000E+00  9.000E+00
      21    -1     0     0   501   502  0.000000000E+00  0.000000000E+00 -3.538890856E+01  3.538890856E+01  0.000000000E+00  0.00000E+00  9.000E+00
      25     1     1     2     0     0 -5.686354818E+01 -3.151567501E+01  4.298252255E+02  4.523288907E+02  1.250000000E+02  0.00000E+00  9.000E+00
      25     1     1     2     0     0  5.397925060E+01  4.772075934E+01  2.085980762E+02  2.536319928E+02  1.250000000E+02  0.00000E+00  9.000E+00
      21     1     1     2   501   511  2.884297584E+00 -1.620508433E+01  4.018609411E+01  4.342632946E+01  0.000000000E+00  0.00000E+00  9.000E+00
#rwgt            1           1  0.11808767802054936                1      359852           0
</event>
<event>
      5   9999  3.79277E-02  5.38378E+01 -1.00000E+00  1.37267E-01
      21    -1     0     0   502   501  0.000000000E+00  0.000000000E+00  3.865615165E+02  3.865615165E+02  0.000000000E+00  0.00000E+00  9.000E+00
      21    -1     0     0   512   502  0.000000000E+00  0.000000000E+00 -1.504009359E+02  1.504009359E+02  0.000000000E+00  0.00000E+00  9.000E+00
      25     1     1     2     0     0  2.080391119E+01 -1.675490361E+02  2.826891444E+01  2.119660675E+02  1.250000000E+02  0.00000E+00  9.000E+00
      25     1     1     2     0     0 -6.210124754E+01  1.330086724E+02  1.824700464E+02  2.654584519E+02  1.250000000E+02  0.00000E+00  9.000E+00
      21     1     1     2   512   501  4.129733635E+01  3.454036377E+01  2.542161970E+01  5.953793301E+01  6.743495762E-07  0.00000E+00  9.000E+00
#rwgt            1           1   3.7985064886132749E-002           1      360171           0
</event>
<event>
      5   9999  3.79277E-02  6.69505E+01 -1.00000E+00  1.32208E-01
      21    -1     0     0   502   501  0.000000000E+00  0.000000000E+00  1.103069479E+02  1.103069479E+02  0.000000000E+00  0.00000E+00  9.000E+00
       1    -1     0     0   501     0  0.000000000E+00  0.000000000E+00 -2.740990163E+03  2.740990163E+03  0.000000000E+00  0.00000E+00  9.000E+00
      25     1     1     2     0     0 -1.011084194E+02 -8.115349410E+01  8.651135309E+00  1.803015369E+02  1.250000000E+02  0.00000E+00  9.000E+00
      25     1     1     2     0     0  1.502329475E+02  3.566557500E+01 -6.307581480E+02  6.613038734E+02  1.250000000E+02  0.00000E+00  9.000E+00
       1     1     1     2   502     0 -4.912452814E+01  4.548791911E+01 -2.008576202E+03  2.009691700E+03  0.000000000E+00  0.00000E+00  9.000E+00
#rwgt            1           1   4.3534531033581805E-002           1      360256           0
</event>
<event>
      5   9999  3.79277E-02  2.88466E+01 -1.00000E+00  1.54232E-01
      21    -1     0     0   511   501  0.000000000E+00  0.000000000E+00  7.081989797E+02  7.081989797E+02  0.000000000E+00  0.00000E+00  9.000E+00
      21    -1     0     0   501   502  0.000000000E+00  0.000000000E+00 -5.016967634E+02  5.016967634E+02  0.000000000E+00  0.00000E+00  9.000E+00
      25     1     1     2     0     0 -8.291226393E+01 -1.153905796E+02 -3.804347213E+02  4.249058796E+02  1.250000000E+02  0.00000E+00  9.000E+00
      25     1     1     2     0     0  6.095242160E+01  1.340959937E+02 -4.116698647E+00  1.932327106E+02  1.250000000E+02  0.00000E+00  9.000E+00
      21     1     1     2   511   502  2.195984233E+01 -1.870541408E+01  5.910536362E+02  5.917571529E+02  7.629394531E-06  0.00000E+00  9.000E+00
#rwgt            1           1   4.4396238583283516E-002           1      360405           0
</event>
<event>
      5   9999  3.79277E-02  2.85661E+01 -1.00000E+00  1.54532E-01
      21    -1     0     0   512   501  0.000000000E+00  0.000000000E+00  1.431544079E+02  1.431544079E+02  0.000000000E+00  0.00000E+00  9.000E+00
      21    -1     0     0   501   502  0.000000000E+00  0.000000000E+00 -1.445254429E+03  1.445254429E+03  0.000000000E+00  0.00000E+00  9.000E+00
      25     1     1     2     0     0  3.084426192E+02 -1.049799595E+02 -6.951144284E+02  7.777960593E+02  1.250000000E+02  0.00000E+00  9.000E+00
      25     1     1     2     0     0 -2.906339418E+02  8.264452181E+01 -6.677247734E+02  7.434914782E+02  1.250000000E+02  0.00000E+00  9.000E+00
      21     1     1     2   512   502 -1.780867748E+01  2.233543765E+01  6.073918070E+01  6.712129945E+01  2.431401974E-06  0.00000E+00  9.000E+00
#rwgt            1           1   4.2064329859247941E-002           1      360479           0
</event>
<event>
      5   9999  3.79277E-02  4.90889E+01 -1.00000E+00  1.39533E-01
      21    -1     0     0   511   501  0.000000000E+00  0.000000000E+00  2.492376570E+03  2.492376570E+03  0.000000000E+00  0.00000E+00  9.000E+00
      21    -1     0     0   501   502  0.000000000E+00  0.000000000E+00 -3.046353571E+01  3.046353571E+01  0.000000000E+00  0.00000E+00  9.000E+00
      25     1     1     2     0     0  5.469849909E+01  1.011634304E+02  5.541290036E+02  5.795773616E+02  1.250000000E+02  0.00000E+00  9.000E+00
      25     1     1     2     0     0 -1.741313979E+01 -1.330933988E+02  4.682469736E+02  5.028889525E+02  1.250000000E+02  0.00000E+00  9.000E+00
      21     1     1     2   511   502 -3.728535930E+01  3.192996833E+01  1.439537057E+03  1.440373791E+03  1.525878906E-05  0.00000E+00  9.000E+00
#rwgt            1           1   4.6493694842498219E-002           1      360604           0
</event>
<event>
      5   9999  3.79277E-02  1.54595E+01 -1.00000E+00  1.76158E-01
      21    -1     0     0   512   501  0.000000000E+00  0.000000000E+00  5.458553935E+01  5.458553935E+01  0.000000000E+00  0.00000E+00  9.000E+00
      21    -1     0     0   501   502  0.000000000E+00  0.000000000E+00 -1.612800902E+03  1.612800902E+03  0.000000000E+00  0.00000E+00  9.000E+00
      25     1     1     2     0     0  9.560349025E+01  5.722354236E+01 -1.497903541E+02  2.246702280E+02  1.250000000E+02  0.00000E+00  9.000E+00
      25     1     1     2     0     0 -8.204025344E+01 -6.464204096E+01 -1.416112816E+03  1.425450702E+03  1.250000000E+02  0.00000E+00  9.000E+00
      21     1     1     2   512   502 -1.356323681E+01  7.418498602E+00  7.687807063E+00  1.726551163E+01  8.128989754E-07  0.00000E+00  9.000E+00
#rwgt            1           1   4.7317836750108540E-002           1      360705           0
</event>
<event>
      5   9999  3.79277E-02  2.36639E+01 -1.00000E+00  1.60558E-01
      21    -1     0     0   511   501  0.000000000E+00  0.000000000E+00  6.334200782E+01  6.334200782E+01  0.000000000E+00  0.00000E+00  9.000E+00
      21    -1     0     0   501   502  0.000000000E+00  0.000000000E+00 -8.767905944E+02  8.767905944E+02  0.000000000E+00  0.00000E+00  9.000E+00
      25     1     1     2     0     0 -1.255475500E+02  7.250208598E+01 -5.741531433E+02  6.052235717E+02  1.250000000E+02  0.00000E+00  9.000E+00
      25     1     1     2     0     0  1.481292908E+02 -7.957648319E+01 -2.041190844E+02  2.925137674E+02  1.250000000E+02  0.00000E+00  9.000E+00
      21     1     1     2   511   502 -2.258174082E+01  7.074397213E+00 -3.517635885E+01  4.239526314E+01  0.000000000E+00  0.00000E+00  9.000E+00
#rwgt            1           1   2.9239064014282896E-002           1      360975           0
</event>
<event>
      5   9999  3.79277E-02  3.59128E+01 -1.00000E+00  1.47804E-01
      21    -1     0     0   502   512  0.000000000E+00  0.000000000E+00  8.939319664E+02  8.939319664E+02  0.000000000E+00  0.00000E+00  9.000E+00
      21    -1     0     0   501   502  0.000000000E+00  0.000000000E+00 -5.226819276E+01  5.226819276E+01  0.000000000E+00  0.00000E+00  9.000E+00
      25     1     1     2     0     0 -6.829336731E+01  6.594956530E+01  1.201388938E+02  1.976655837E+02  1.250000000E+02  0.00000E+00  9.000E+00
      25     1     1     2     0     0  4.625189464E+01 -9.430272311E+01  5.830902291E+02  6.055175114E+02  1.250000000E+02  0.00000E+00  9.000E+00
      21     1     1     2   501   512  2.204147267E+01  2.835315781E+01  1.384346508E+02  1.430170641E+02  0.000000000E+00  0.00000E+00  9.000E+00
#rwgt            1           1   4.2661836490544620E-002           1      361148           0
</event>
<event>
      5   9999  3.79277E-02  3.84191E+01 -1.00000E+00  1.45935E-01
      21    -1     0     0   502   501  0.000000000E+00  0.000000000E+00  2.011500033E+02  2.011500033E+02  0.000000000E+00  0.00000E+00  9.000E+00
      21    -1     0     0   511   502  0.000000000E+00  0.000000000E+00 -2.708798159E+02  2.708798159E+02  0.000000000E+00  0.00000E+00  9.000E+00
      25     1     1     2     0     0 -1.703553427E+02  5.788348242E+01  3.058719237E+01  2.212058242E+02  1.250000000E+02  0.00000E+00  9.000E+00
      25     1     1     2     0     0  1.398656063E+02 -3.450813197E+01 -7.575449637E+01  2.052241280E+02  1.250000000E+02  0.00000E+00  9.000E+00
      21     1     1     2   511   501  3.048973646E+01 -2.337535045E+01 -2.456250862E+01  4.559986697E+01  4.768371582E-07  0.00000E+00  9.000E+00
#rwgt            1           1   3.7261684503475737E-002           1      361229           0
</event>
<event>
      5   9999  3.79277E-02  1.36009E+01 -1.00000E+00  1.81486E-01
      21    -1     0     0   502   512  0.000000000E+00  0.000000000E+00  7.747496934E+02  7.747496934E+02  0.000000000E+00  0.00000E+00  9.000E+00
      21    -1     0     0   501   502  0.000000000E+00  0.000000000E+00 -7.298599589E+01  7.298599589E+01  0.000000000E+00  0.00000E+00  9.000E+00
      25     1     1     2     0     0  9.531215698E+01 -3.557017319E+01  5.319682031E+01  1.697190213E+02  1.250000000E+02  0.00000E+00  9.000E+00
      25     1     1     2     0     0 -9.906345596E+01  4.864347053E+01  4.658425787E+02  4.947868871E+02  1.250000000E+02  0.00000E+00  9.000E+00
      21     1     1     2   501   512  3.751298986E+00 -1.307329734E+01  1.827242985E+02  1.832297809E+02  0.000000000E+00  0.00000E+00  9.000E+00
#rwgt            1           1   4.1265100705212214E-002           1      361356           0
</event>
<event>
      5   9999  3.79277E-02  2.51845E+01 -1.00000E+00  1.58512E-01
      21    -1     0     0   511   501  0.000000000E+00  0.000000000E+00  3.567233556E+02  3.567233556E+02  0.000000000E+00  0.00000E+00  9.000E+00
      21    -1     0     0   501   502  0.000000000E+00  0.000000000E+00 -1.681260975E+03  1.681260975E+03  0.000000000E+00  0.00000E+00  9.000E+00
      25     1     1     2     0     0 -2.804957541E+02  4.205309288E+02 -1.647969422E+02  5.461750290E+02  1.250000000E+02  0.00000E+00  9.000E+00
      25     1     1     2     0     0  2.724882481E+02 -3.966533284E+02 -1.277784020E+03  1.371109299E+03  1.250000000E+02  0.00000E+00  9.000E+00
      21     1     1     2   511   502  8.007506073E+00 -2.387760042E+01  1.180433425E+02  1.207000028E+02  3.568322551E-06  0.00000E+00  9.000E+00
#rwgt            1           1   2.2554991713451638E-002           1      361529           0
</event>
<event>
      5   9999  3.79277E-02  1.72069E+01 -1.00000E+00  1.71946E-01
      21    -1     0     0   502   501  0.000000000E+00  0.000000000E+00  5.449196694E+02  5.449196694E+02  0.000000000E+00  0.00000E+00  9.000E+00
      21    -1     0     0   512   502  0.000000000E+00  0.000000000E+00 -1.119832690E+02  1.119832690E+02  0.000000000E+00  0.00000E+00  9.000E+00
      25     1     1     2     0     0 -7.474775162E+01 -9.234038128E+01  2.659530562E+02  3.169700309E+02  1.250000000E+02  0.00000E+00  9.000E+00
      25     1     1     2     0     0  8.682460870E+01  1.045971320E+02  2.182258041E+02  2.858786006E+02  1.250000000E+02  0.00000E+00  9.000E+00
      21     1     1     2   512   501 -1.207685708E+01 -1.225675077E+01 -5.124245983E+01  5.405430700E+01  6.743495762E-07  0.00000E+00  9.000E+00
#rwgt            1           1   4.2876965928090822E-002           1      361804           0
</event>
<event>
      5   9999  3.79277E-02  1.05021E+01 -1.00000E+00  1.93329E-01
      21    -1     0     0   502   501  0.000000000E+00  0.000000000E+00  4.668154346E+01  4.668154346E+01  0.000000000E+00  0.00000E+00  9.000E+00
      21    -1     0     0   511   502  0.000000000E+00  0.000000000E+00 -9.211276061E+02  9.211276061E+02  0.000000000E+00  0.00000E+00  9.000E+00
      25     1     1     2     0     0  1.577576598E+01 -1.398704874E+01 -5.809258550E+01  1.394426793E+02  1.250000000E+02  0.00000E+00  9.000E+00
      25     1     1     2     0     0 -2.396524354E+01  2.056175985E+01 -7.775787690E+02  7.881946846E+02  1.250000000E+02  0.00000E+00  9.000E+00
      21     1     1     2   511   501  8.189477559E+00 -6.574711110E+00 -3.877470811E+01  4.017178559E+01  4.768371582E-07  0.00000E+00  9.000E+00
#rwgt            1           1   5.2068180233864753E-002           1      361963           0
</event>
<event>
      5   9999  3.79277E-02  3.35279E+01 -1.00000E+00  1.49760E-01
      21    -1     0     0   502   512  0.000000000E+00  0.000000000E+00  3.914800014E+02  3.914800014E+02  0.000000000E+00  0.00000E+00  9.000E+00
      21    -1     0     0   501   502  0.000000000E+00  0.000000000E+00 -1.309408771E+02  1.309408771E+02  0.000000000E+00  0.00000E+00  9.000E+00
      25     1     1     2     0     0  1.515354604E+02 -1.021485927E+02  1.423979235E+02  2.632479808E+02  1.250000000E+02  0.00000E+00  9.000E+00
      25     1     1     2     0     0 -1.326890711E+02  7.441892860E+01  9.658321205E+01  2.193122964E+02  1.250000000E+02  0.00000E+00  9.000E+00
      21     1     1     2   501   512 -1.884638931E+01  2.772966414E+01  2.155798866E+01  3.986060133E+01  7.907449699E-07  0.00000E+00  9.000E+00
#rwgt            1           1   3.4010211200113924E-002           1      362218           0
</event>
<event>
      5   9999  3.79277E-02  2.72760E+01 -1.00000E+00  1.55968E-01
      21    -1     0     0   502   501  0.000000000E+00  0.000000000E+00  2.191235846E+02  2.191235846E+02  0.000000000E+00  0.00000E+00  9.000E+00
      21    -1     0     0   511   502  0.000000000E+00  0.000000000E+00 -1.655547070E+02  1.655547070E+02  0.000000000E+00  0.00000E+00  9.000E+00
      25     1     1     2     0     0 -2.670365485E+01 -9.012849518E+01  1.094882109E+02  1.909159479E+02  1.250000000E+02  0.00000E+00  9.000E+00
      25     1     1     2     0     0 -5.499497634E-02  9.541596095E+01 -5.456448387E+01  1.664526705E+02  1.250000000E+02  0.00000E+00  9.000E+00
      21     1     1     2   511   501  2.675864983E+01 -5.287465771E+00 -1.354849457E+00  2.730967323E+01  5.310335660E-07  0.00000E+00  9.000E+00
#rwgt            2          11   2.7109718462519101E-003           1      362381           0
</event>
<event>
      5   9999  3.79277E-02  8.86841E+01 -1.00000E+00  1.26220E-01
      21    -1     0     0   502   501  0.000000000E+00  0.000000000E+00  3.633501030E+02  3.633501030E+02  0.000000000E+00  0.00000E+00  9.000E+00
      21    -1     0     0   512   502  0.000000000E+00  0.000000000E+00 -2.855274518E+02  2.855274518E+02  0.000000000E+00  0.00000E+00  9.000E+00
      25     1     1     2     0     0 -4.976187470E+01  7.440138471E+01  1.767829572E+02  2.342840672E+02  1.250000000E+02  0.00000E+00  9.000E+00
      25     1     1     2     0     0  6.785149600E+00 -1.519762982E+02  8.183025994E+01  2.132229465E+02  1.250000000E+02  0.00000E+00  9.000E+00
      21     1     1     2   512   501  4.297672510E+01  7.757491350E+01 -1.807905659E+02  2.013705411E+02  0.000000000E+00  0.00000E+00  9.000E+00
#rwgt            1           1   4.9322578742159527E-002           1      362401           0
</event>
<event>
      5   9999  3.79277E-02  2.14516E+01 -1.00000E+00  1.63897E-01
      21    -1     0     0   502   501  0.000000000E+00  0.000000000E+00  9.376821547E+01  9.376821547E+01  0.000000000E+00  0.00000E+00  9.000E+00
      21    -1     0     0   501   511  0.000000000E+00  0.000000000E+00 -8.781545777E+02  8.781545777E+02  0.000000000E+00  0.00000E+00  9.000E+00
      25     1     1     2     0     0 -4.381309094E+01 -2.022935518E+01 -2.953775217E+02  3.243481064E+02  1.250000000E+02  0.00000E+00  9.000E+00
      25     1     1     2     0     0  4.474585712E+01  4.166065397E+01  1.782478906E+01  1.402872942E+02  1.250000000E+02  0.00000E+00  9.000E+00
      21     1     1     2   502   511 -9.327661844E-01 -2.143129879E+01 -5.068336296E+02  5.072873926E+02  5.394796609E-06  0.00000E+00  9.000E+00
#rwgt            1           1   4.2265080504390498E-002           1      362484           0
</event>
<event>
      5   9999  3.79277E-02  2.35604E+02 -1.00000E+00  1.09118E-01
       1    -1     0     0   502     0  0.000000000E+00  0.000000000E+00  1.902311307E+03  1.902311307E+03  0.000000000E+00  0.00000E+00  9.000E+00
      21    -1     0     0   501   502  0.000000000E+00  0.000000000E+00 -1.701910643E+02  1.701910643E+02  0.000000000E+00  0.00000E+00  9.000E+00
      25     1     1     2     0     0 -1.160930173E+02 -2.176801302E+02  1.720790460E+02  3.257275331E+02  1.250000000E+02  0.00000E+00  9.000E+00
      25     1     1     2     0     0 -6.668440282E+01  3.663469306E+02  3.909790927E+02  5.542080242E+02  1.250000000E+02  0.00000E+00  9.000E+00
       1     1     1     2   501     0  1.827774201E+02 -1.486668004E+02  1.169062104E+03  1.192566814E+03  2.157918644E-05  0.00000E+00  9.000E+00
#rwgt            1           1   3.4569166126674641E-002           1      362636           0
</event>
<event>
      5   9999  3.79277E-02  2.52299E+01 -1.00000E+00  1.58454E-01
      21    -1     0     0   511   501  0.000000000E+00  0.000000000E+00  2.911186054E+02  2.911186054E+02  0.000000000E+00  0.00000E+00  9.000E+00
      21    -1     0     0   501   502  0.000000000E+00  0.000000000E+00 -5.359350141E+02  5.359350141E+02  0.000000000E+00  0.00000E+00  9.000E+00
      25     1     1     2     0     0 -9.482989342E+01 -1.712670824E+02  1.384461686E+02  2.704024109E+02  1.250000000E+02  0.00000E+00  9.000E+00
      25     1     1     2     0     0  6.970355020E+01  1.689832738E+02 -4.410909465E+02  4.935586640E+02  1.250000000E+02  0.00000E+00  9.000E+00
      21     1     1     2   511   502  2.512634322E+01  2.283808551E+00  5.782836922E+01  6.309254466E+01  9.536743164E-07  0.00000E+00  9.000E+00
#rwgt            1           1   2.4711929378525562E-002           1      362808           0
</event>
<event>
      5   9999  3.79277E-02  1.28425E+02 -1.00000E+00  1.19131E-01
       2    -1     0     0   502     0  0.000000000E+00  0.000000000E+00  4.266443001E+03  4.266443001E+03  0.000000000E+00  0.00000E+00  9.000E+00
      21    -1     0     0   501   502  0.000000000E+00  0.000000000E+00 -1.197083228E+02  1.197083228E+02  0.000000000E+00  0.00000E+00  9.000E+00
      25     1     1     2     0     0  1.119645966E+02 -4.320172816E+01 -1.243383897E+01  1.737298493E+02  1.250000000E+02  0.00000E+00  9.000E+00
      25     1     1     2     0     0 -2.396900290E+02  5.659084315E+01  7.245703107E+02  7.754230902E+02  1.250000000E+02  0.00000E+00  9.000E+00
       2     1     1     2   501     0  1.277254324E+02 -1.338911499E+01  3.434598206E+03  3.436998384E+03  6.103515625E-05  0.00000E+00  9.000E+00
#rwgt            1           1   4.6791934957788016E-002           1      363048           0
</event>
<event>
      5   9999  3.79277E-02  8.52418E+00 -1.00000E+00  2.04131E-01
      21    -1     0     0   511   501  0.000000000E+00  0.000000000E+00  4.279817299E+01  4.279817299E+01  0.000000000E+00  0.00000E+00  9.000E+00
      21    -1     0     0   501   502  0.000000000E+00  0.000000000E+00 -1.780184801E+03  1.780184801E+03  0.000000000E+00  0.00000E+00  9.000E+00
      25     1     1     2     0     0 -1.391148276E+02  1.508034541E+01 -2.832703370E+02  3.397755669E+02  1.250000000E+02  0.00000E+00  9.000E+00
      25     1     1     2     0     0  1.307776439E+02 -1.685601319E+01 -1.460997805E+03  1.472252187E+03  1.250000000E+02  0.00000E+00  9.000E+00
      21     1     1     2   511   502  8.337183641E+00  1.775667782E+00  6.881513245E+00  1.095522029E+01  1.192092896E-07  0.00000E+00  9.000E+00
#rwgt            1           1   6.7617253528144419E-002           1      363126           0
</event>
<event>
      5   9999  3.79277E-02  3.68462E+01 -1.00000E+00  1.47087E-01
      21    -1     0     0   502   501  0.000000000E+00  0.000000000E+00  4.787899726E+02  4.787899726E+02  0.000000000E+00  0.00000E+00  9.000E+00
       2    -1     0     0   501     0  0.000000000E+00  0.000000000E+00 -1.429693775E+03  1.429693775E+03  0.000000000E+00  0.00000E+00  9.000E+00
      25     1     1     2     0     0  7.806552770E+01  1.745515148E+02  2.941299597E+02  3.724243428E+02  1.250000000E+02  0.00000E+00  9.000E+00
      25     1     1     2     0     0 -4.767510808E+01 -1.953857270E+02  4.873884164E+01  2.417622240E+02  1.250000000E+02  0.00000E+00  9.000E+00
       2     1     1     2   502     0 -3.039041962E+01  2.083421225E+01 -1.293772604E+03  1.294297181E+03  1.525878906E-05  0.00000E+00  9.000E+00
#rwgt            1           1   4.3851068250817658E-002           1      363502           0
</event>
<event>
      5   9999  3.79277E-02  1.60779E+01 -1.00000E+00  1.74591E-01
      21    -1     0     0   502   501  0.000000000E+00  0.000000000E+00  1.273941830E+02  1.273941830E+02  0.000000000E+00  0.00000E+00  9.000E+00
      21    -1     0     0   501   511  0.000000000E+00  0.000000000E+00 -2.503569472E+02  2.503569472E+02  0.000000000E+00  0.00000E+00  9.000E+00
      25     1     1     2     0     0  8.995934530E+01  2.208751095E+01 -6.358148894E+01  1.680718527E+02  1.250000000E+02  0.00000E+00  9.000E+00
      25     1     1     2     0     0 -1.003096346E+02 -9.784203665E+00 -1.358620497E+01  1.611438438E+02  1.250000000E+02  0.00000E+00  9.000E+00
      21     1     1     2   502   511  1.035028933E+01 -1.230330728E+01 -4.579507028E+01  4.853543367E+01  0.000000000E+00  0.00000E+00  9.000E+00
#rwgt            1           1   4.9228947042849878E-002           1      363647           0
</event>
<event>
      5   9999  3.79277E-02  1.12505E+01 -1.00000E+00  1.90022E-01
      21    -1     0     0   502   512  0.000000000E+00  0.000000000E+00  3.222948309E+01  3.222948309E+01  0.000000000E+00  0.00000E+00  9.000E+00
      21    -1     0     0   501   502  0.000000000E+00  0.000000000E+00 -3.305140754E+03  3.305140754E+03  0.000000000E+00  0.00000E+00  9.000E+00
      25     1     1     2     0     0  2.029476927E+02 -1.216564871E+02 -9.156524403E+02  9.539562140E+02  1.250000000E+02  0.00000E+00  9.000E+00
      25     1     1     2     0     0 -2.034067475E+02  1.104153195E+02 -2.357531150E+03  2.372160191E+03  1.250000000E+02  0.00000E+00  9.000E+00
      21     1     1     2   501   512  4.590548034E-01  1.124116762E+01  2.723194644E-01  1.125383218E+01  3.176997808E-07  0.00000E+00  9.000E+00
#rwgt            1           1   3.5382808016469251E-002           1      363929           0
</event>
<event>
      5   9999  3.79277E-02  7.34177E+01 -1.00000E+00  1.30181E-01
      21    -1     0     0   511   501  0.000000000E+00  0.000000000E+00  1.795118211E+02  1.795118211E+02  0.000000000E+00  0.00000E+00  9.000E+00
      21    -1     0     0   501   502  0.000000000E+00  0.000000000E+00 -3.799392696E+02  3.799392696E+02  0.000000000E+00  0.00000E+00  9.000E+00
      25     1     1     2     0     0  1.954294681E+02 -1.333268744E+01 -9.406090389E+01  2.506848444E+02  1.250000000E+02  0.00000E+00  9.000E+00
      25     1     1     2     0     0 -1.662759128E+02 -5.404849773E+01 -9.279696410E+01  2.341050957E+02  1.250000000E+02  0.00000E+00  9.000E+00
      21     1     1     2   511   502 -2.915355527E+01  6.738118517E+01 -1.356958056E+01  7.466115065E+01  6.078504936E-07  0.00000E+00  9.000E+00
#rwgt            2          11   3.1907823601865586E-003           1      364300           0
</event>
<event>
      5   9999  3.79277E-02  6.96578E+01 -1.00000E+00  1.31329E-01
      21    -1     0     0   502   501  0.000000000E+00  0.000000000E+00  2.137182269E+01  2.137182269E+01  0.000000000E+00  0.00000E+00  9.000E+00
       1    -1     0     0   501     0  0.000000000E+00  0.000000000E+00 -3.170903261E+03  3.170903261E+03  0.000000000E+00  0.00000E+00  9.000E+00
      25     1     1     2     0     0  3.085170695E+01 -7.784516057E+01 -1.707526796E+03  1.714142484E+03  1.250000000E+02  0.00000E+00  9.000E+00
      25     1     1     2     0     0  2.131183001E+01  3.168048727E+01 -2.332552155E+02  2.673777158E+02  1.250000000E+02  0.00000E+00  9.000E+00
       1     1     1     2   502     0 -5.216353696E+01  4.616467330E+01 -1.208749427E+03  1.210754884E+03  2.157918644E-05  0.00000E+00  9.000E+00
#rwgt            1           1  0.12688432503799868                1      364320           0
</event>
<event>
      5   9999  3.79277E-02  1.76865E+02 -1.00000E+00  1.13627E-01
      21    -1     0     0   502   511  0.000000000E+00  0.000000000E+00  7.369714685E+02  7.369714685E+02  0.000000000E+00  0.00000E+00  9.000E+00
      21    -1     0     0   501   502  0.000000000E+00  0.000000000E+00 -1.478399284E+02  1.478399284E+02  0.000000000E+00  0.00000E+00  9.000E+00
      25     1     1     2     0     0 -1.874099834E+01  1.217841882E+02  3.794034001E+02  4.180365456E+02  1.250000000E+02  0.00000E+00  9.000E+00
      25     1     1     2     0     0 -1.547913825E+02 -8.761321700E+01  3.883843420E+01  2.208390180E+02  1.250000000E+02  0.00000E+00  9.000E+00
      21     1     1     2   501   511  1.735323809E+02 -3.417097118E+01  1.708897058E+02  2.459358332E+02  3.303624740E-06  0.00000E+00  9.000E+00
#rwgt            1           1   3.0504486372520193E-002           1      364380           0
</event>
<event>
      5   9999  3.79277E-02  2.58130E+01 -1.00000E+00  1.57717E-01
       2    -1     0     0   502     0  0.000000000E+00  0.000000000E+00  2.167223499E+03  2.167223499E+03  0.000000000E+00  0.00000E+00  9.000E+00
      21    -1     0     0   501   502  0.000000000E+00  0.000000000E+00 -5.510253789E+01  5.510253789E+01  0.000000000E+00  0.00000E+00  9.000E+00
      25     1     1     2     0     0 -7.375550250E+01  9.479216832E+01  1.146682515E+02  2.078442620E+02  1.250000000E+02  0.00000E+00  9.000E+00
      25     1     1     2     0     0  5.616121382E+01 -1.136801054E+02  9.400140726E+02  9.567281249E+02  1.250000000E+02  0.00000E+00  9.000E+00
       2     1     1     2   501     0  1.759428868E+01  1.888793712E+01  1.057438637E+03  1.057753650E+03  1.525878906E-05  0.00000E+00  9.000E+00
#rwgt            1           1   3.7443723719736942E-002           1      364532           0
</event>
<event>
      5   9999  3.79277E-02  4.92620E+01 -1.00000E+00  1.39445E-01
      21    -1     0     0   502   501  0.000000000E+00  0.000000000E+00  1.815090713E+02  1.815090713E+02  0.000000000E+00  0.00000E+00  9.000E+00
       1    -1     0     0   501     0  0.000000000E+00  0.000000000E+00 -6.244417903E+02  6.244417903E+02  0.000000000E+00  0.00000E+00  9.000E+00
      25     1     1     2     0     0  5.933503324E+01 -1.518777364E+02 -1.850067955E+02  2.764778605E+02  1.250000000E+02  0.00000E+00  9.000E+00
      25     1     1     2     0     0 -9.783107676E+01  1.826152999E+02  2.411897623E+01  2.431583688E+02  1.250000000E+02  0.00000E+00  9.000E+00
       1     1     1     2   502     0  3.849604352E+01 -3.073756343E+01 -2.820448998E+02  2.863146323E+02  6.607249480E-06  0.00000E+00  9.000E+00
#rwgt            2          12   4.8552283646782242E-005           1      364784           0
</event>
<event>
      5   9999  3.79277E-02  4.48948E+01 -1.00000E+00  1.41798E-01
      21    -1     0     0   502   501  0.000000000E+00  0.000000000E+00  7.365991333E+02  7.365991333E+02  0.000000000E+00  0.00000E+00  9.000E+00
      21    -1     0     0   501   511  0.000000000E+00  0.000000000E+00 -3.214417397E+02  3.214417397E+02  0.000000000E+00  0.00000E+00  9.000E+00
      25     1     1     2     0     0 -1.465912529E+02  1.511198030E+02  3.190290011E+02  4.021575485E+02  1.250000000E+02  0.00000E+00  9.000E+00
      25     1     1     2     0     0  1.414607908E+02 -1.065191423E+02  3.425706502E+02  4.053851667E+02  1.250000000E+02  0.00000E+00  9.000E+00
      21     1     1     2   502   511  5.130462110E+00 -4.460066066E+01 -2.464422578E+02  2.504981577E+02  4.672030912E-06  0.00000E+00  9.000E+00
#rwgt            1           1   4.0912250258860999E-002           1      364833           0
</event>
<event>
      5   9999  3.79277E-02  1.28820E+02 -1.00000E+00  1.19075E-01
      21    -1     0     0   502   501  0.000000000E+00  0.000000000E+00  7.805992620E+02  7.805992620E+02  0.000000000E+00  0.00000E+00  9.000E+00
      21    -1     0     0   512   502  0.000000000E+00  0.000000000E+00 -3.974613040E+02  3.974613040E+02  0.000000000E+00  0.00000E+00  9.000E+00
      25     1     1     2     0     0 -2.923120569E+01  2.460649232E+02  4.379489900E+02  5.184850313E+02  1.250000000E+02  0.00000E+00  9.000E+00
      25     1     1     2     0     0  6.170181590E+01 -1.214041505E+02  2.602365569E+02  3.192086268E+02  1.250000000E+02  0.00000E+00  9.000E+00
      21     1     1     2   512   501 -3.247061022E+01 -1.246607727E+02 -3.150475889E+02  3.403669080E+02  0.000000000E+00  0.00000E+00  9.000E+00
#rwgt            1           1   3.9011177302565009E-002           1      365098           0
</event>
<event>
      5   9999  3.79277E-02  6.98578E+01 -1.00000E+00  1.31265E-01
      21    -1     0     0   502   501  0.000000000E+00  0.000000000E+00  1.048102051E+02  1.048102051E+02  0.000000000E+00  0.00000E+00  9.000E+00
      21    -1     0     0   501   511  0.000000000E+00  0.000000000E+00 -1.513197026E+03  1.513197026E+03  0.000000000E+00  0.00000E+00  9.000E+00
      25     1     1     2     0     0 -1.455891368E+02 -9.002937344E+01 -6.803634754E+01  2.226104881E+02  1.250000000E+02  0.00000E+00  9.000E+00
      25     1     1     2     0     0  9.711507615E+01  1.403322075E+02 -4.003313361E+02  4.527854295E+02  1.250000000E+02  0.00000E+00  9.000E+00
      21     1     1     2   502   511  4.847406068E+01 -5.030283410E+01 -9.400191375E+02  9.426113136E+02  1.525878906E-05  0.00000E+00  9.000E+00
#rwgt            1           1   3.8649268599059067E-002           1      365167           0
</event>
<event>
      5   9999  3.79277E-02  1.69364E+01 -1.00000E+00  1.72556E-01
      21    -1     0     0   512   501  0.000000000E+00  0.000000000E+00  4.221485046E+02  4.221485046E+02  0.000000000E+00  0.00000E+00  9.000E+00
      21    -1     0     0   501   502  0.000000000E+00  0.000000000E+00 -4.284484057E+02  4.284484057E+02  0.000000000E+00  0.00000E+00  9.000E+00
      25     1     1     2     0     0  1.553018802E+02  5.451796762E+01 -1.617269106E+02  2.624337562E+02  1.250000000E+02  0.00000E+00  9.000E+00
      25     1     1     2     0     0 -1.405841124E+02 -6.289833123E+01 -1.706412357E+02  2.616553536E+02  1.250000000E+02  0.00000E+00  9.000E+00
      21     1     1     2   512   502 -1.471776779E+01  8.380363613E+00  3.260682453E+02  3.265078004E+02  0.000000000E+00  0.00000E+00  9.000E+00
#rwgt            1           1   3.8185805437845007E-002           1      365328           0
</event>
<event>
      5   9999  3.79277E-02  4.75747E+01 -1.00000E+00  1.40319E-01
      21    -1     0     0   502   511  0.000000000E+00  0.000000000E+00  1.254067962E+02  1.254067962E+02  0.000000000E+00  0.00000E+00  9.000E+00
      21    -1     0     0   501   502  0.000000000E+00  0.000000000E+00 -5.221642223E+02  5.221642223E+02  0.000000000E+00  0.00000E+00  9.000E+00
      25     1     1     2     0     0 -1.389277971E+02 -9.444759029E+01 -1.975104192E+02  2.878483035E+02  1.250000000E+02  0.00000E+00  9.000E+00
      25     1     1     2     0     0  1.815437395E+02  7.329968063E+01 -2.074636944E+02  3.114436659E+02  1.250000000E+02  0.00000E+00  9.000E+00
      21     1     1     2   501   511 -4.261594244E+01  2.114790966E+01  8.216687592E+00  4.827904916E+01  4.129530925E-07  0.00000E+00  9.000E+00
#rwgt            1           1   3.4460719299471150E-002           1      365489           0
</event>
<event>
      5   9999  3.79277E-02  7.24983E+01 -1.00000E+00  1.30454E-01
      21    -1     0     0   502   512  0.000000000E+00  0.000000000E+00  1.447932651E+02  1.447932651E+02  0.000000000E+00  0.00000E+00  9.000E+00
      21    -1     0     0   501   502  0.000000000E+00  0.000000000E+00 -1.086995873E+03  1.086995873E+03  0.000000000E+00  0.00000E+00  9.000E+00
      25     1     1     2     0     0 -5.211039737E+01 -3.580406762E+02 -4.663624019E+02  6.033469228E+02  1.250000000E+02  0.00000E+00  9.000E+00
      25     1     1     2     0     0  5.591300799E+01  2.856421224E+02 -4.523471615E+02  5.522324158E+02  1.250000000E+02  0.00000E+00  9.000E+00
      21     1     1     2   501   512 -3.802610614E+00  7.239855379E+01 -2.349304484E+01  7.620979986E+01  1.215700987E-06  0.00000E+00  9.000E+00
#rwgt            1           1   3.6424209994198202E-002           1      365598           0
</event>
<event>
      5   9999  3.79277E-02  2.20559E+01 -1.00000E+00  1.62938E-01
      21    -1     0     0   502   501  0.000000000E+00  0.000000000E+00  1.330543726E+02  1.330543726E+02  0.000000000E+00  0.00000E+00  9.000E+00
      21    -1     0     0   511   502  0.000000000E+00  0.000000000E+00 -5.481639575E+02  5.481639575E+02  0.000000000E+00  0.00000E+00  9.000E+00
      25     1     1     2     0     0 -3.829044560E+01 -1.784894238E+02 -1.335410957E+02  2.584237932E+02  1.250000000E+02  0.00000E+00  9.000E+00
      25     1     1     2     0     0  3.728246004E+01  2.005222346E+02 -1.352097168E+02  2.747832162E+02  1.250000000E+02  0.00000E+00  9.000E+00
      21     1     1     2   511   501  1.007985559E+00 -2.203281076E+01 -1.463587725E+02  1.480113208E+02  1.907348633E-06  0.00000E+00  9.000E+00
#rwgt            1           1  0.20241088314565836                1      365669           0
</event>
<event>
      5   9999  3.79277E-02  9.54949E+00 -1.00000E+00  1.98100E-01
      21    -1     0     0   502   501  0.000000000E+00  0.000000000E+00  1.202760730E+02  1.202760730E+02  0.000000000E+00  0.00000E+00  9.000E+00
      21    -1     0     0   512   502  0.000000000E+00  0.000000000E+00 -4.984367847E+02  4.984367847E+02  0.000000000E+00  0.00000E+00  9.000E+00
      25     1     1     2     0     0  1.061869058E+02  1.274289022E+02 -2.418404774E+02  3.187877046E+02  1.250000000E+02  0.00000E+00  9.000E+00
      25     1     1     2     0     0 -1.049183546E+02 -1.368937645E+02 -5.764303022E+01  2.206705300E+02  1.250000000E+02  0.00000E+00  9.000E+00
      21     1     1     2   512   501 -1.268551209E+00  9.464862281E+00 -7.867720408E+01  7.925462309E+01  1.348699152E-06  0.00000E+00  9.000E+00
#rwgt            1           1   1.5061955878280376E-002           1      365875           0
</event>
<event>
      5   9999  3.79277E-02  3.31748E+01 -1.00000E+00  1.50066E-01
      21    -1     0     0   502   501  0.000000000E+00  0.000000000E+00  1.454561355E+03  1.454561355E+03  0.000000000E+00  0.00000E+00  9.000E+00
      21    -1     0     0   501   511  0.000000000E+00  0.000000000E+00 -3.124033234E+01  3.124033234E+01  0.000000000E+00  0.00000E+00  9.000E+00
      25     1     1     2     0     0  4.093162392E+01 -1.396522651E+02  6.004016380E+02  6.303057035E+02  1.250000000E+02  0.00000E+00  9.000E+00
      25     1     1     2     0     0 -1.097680155E+01  1.539098369E+02  7.401381540E+02  7.663146972E+02  1.250000000E+02  0.00000E+00  9.000E+00
      21     1     1     2   502   511 -2.995482236E+01 -1.425757176E+01  8.278123016E+01  8.918128617E+01  0.000000000E+00  0.00000E+00  9.000E+00
#rwgt            1           1   5.3254645648834226E-002           1      366121           0
</event>
<event>
      5   9999  3.79277E-02  2.45118E+01 -1.00000E+00  1.59395E-01
      21    -1     0     0   502   512  0.000000000E+00  0.000000000E+00  1.262502026E+02  1.262502026E+02  0.000000000E+00  0.00000E+00  9.000E+00
      21    -1     0     0   501   502  0.000000000E+00  0.000000000E+00 -5.989489853E+02  5.989489853E+02  0.000000000E+00  0.00000E+00  9.000E+00
      25     1     1     2     0     0  9.689905023E+01  1.485931534E+02 -5.186265408E+01  2.231234772E+02  1.250000000E+02  0.00000E+00  9.000E+00
      25     1     1     2     0     0 -1.168368101E+02 -1.343343748E+02 -4.247866866E+02  4.772476229E+02  1.250000000E+02  0.00000E+00  9.000E+00
      21     1     1     2   501   512  1.993775990E+01 -1.425877863E+01  3.950557927E+00  2.482808784E+01  3.500980176E-07  0.00000E+00  9.000E+00
#rwgt            1           1   3.0577094276163071E-002           1      366285           0
</event>
<event>
      5   9999  3.79277E-02  2.32817E+01 -1.00000E+00  1.61103E-01
      -2    -1     0     0     0   501  0.000000000E+00  0.000000000E+00  1.013069192E+03  1.013069192E+03  0.000000000E+00  0.00000E+00  9.000E+00
      21    -1     0     0   501   502  0.000000000E+00  0.000000000E+00 -9.225752940E+02  9.225752940E+02  0.000000000E+00  0.00000E+00  9.000E+00
      25     1     1     2     0     0  7.339650871E+01  7.565683940E+01 -3.519642049E+02  3.880912346E+02  1.250000000E+02  0.00000E+00  9.000E+00
      25     1     1     2     0     0 -7.216121887E+01 -9.890571336E+01 -5.385544396E+02  5.662644842E+02  1.250000000E+02  0.00000E+00  9.000E+00
      -2     1     1     2     0   502 -1.235289843E+00  2.324887396E+01  9.810125425E+02  9.812887672E+02  1.525878906E-05  0.00000E+00  9.000E+00
#rwgt            1           1   4.3416889011043298E-002           1      366462           0
</event>
<event>
      5   9999  3.79277E-02  9.88927E+01 -1.00000E+00  1.24046E-01
      21    -1     0     0   502   501  0.000000000E+00  0.000000000E+00  2.129371506E+02  2.129371506E+02  0.000000000E+00  0.00000E+00  9.000E+00
      -4    -1     0     0     0   502  0.000000000E+00  0.000000000E+00 -6.807130829E+02  6.807130829E+02  0.000000000E+00  0.00000E+00  9.000E+00
      25     1     1     2     0     0  1.128268362E+02 -2.054895249E+02  3.229343652E+01  2.676260560E+02  1.250000000E+02  0.00000E+00  9.000E+00
      25     1     1     2     0     0 -2.265604584E+01  2.460973061E+02 -3.856146923E+02  4.747640166E+02  1.250000000E+02  0.00000E+00  9.000E+00
      -4     1     1     2     0   501 -9.017079034E+01 -4.060778119E+01 -1.144546765E+02  1.512601610E+02  1.348699152E-06  0.00000E+00  9.000E+00
#rwgt            1           1   3.0811230316775847E-002           1      366677           0
</event>
<event>
      5   9999  3.79277E-02  3.97984E+01 -1.00000E+00  1.44976E-01
      21    -1     0     0   511   501  0.000000000E+00  0.000000000E+00  6.655412725E+02  6.655412725E+02  0.000000000E+00  0.00000E+00  9.000E+00
      21    -1     0     0   501   502  0.000000000E+00  0.000000000E+00 -1.335182810E+02  1.335182810E+02  0.000000000E+00  0.00000E+00  9.000E+00
      25     1     1     2     0     0 -5.067322112E+01  9.639993716E+01  5.207843765E+02  5.465364489E+02  1.250000000E+02  0.00000E+00  9.000E+00
      25     1     1     2     0     0  8.848600153E+01 -1.088140100E+02 -3.543740378E+01  1.911833435E+02  1.250000000E+02  0.00000E+00  9.000E+00
      21     1     1     2   511   502 -3.781278042E+01  1.241407282E+01  4.667601878E+01  6.133976114E+01  1.168007728E-06  0.00000E+00  9.000E+00
#rwgt            1           1   3.9073100490657257E-002           1      366732           0
</event>
<event>
      5   9999  3.79277E-02  6.17500E+01 -1.00000E+00  1.34040E-01
      21    -1     0     0   512   501  0.000000000E+00  0.000000000E+00  1.997415609E+03  1.997415609E+03  0.000000000E+00  0.00000E+00  9.000E+00
      21    -1     0     0   501   502  0.000000000E+00  0.000000000E+00 -2.074523547E+02  2.074523547E+02  0.000000000E+00  0.00000E+00  9.000E+00
      25     1     1     2     0     0 -6.010812295E+01 -3.999531703E+01  1.068653355E+03  1.078358755E+03  1.250000000E+02  0.00000E+00  9.000E+00
      25     1     1     2     0     0  8.738288369E+01 -1.540463598E+01 -1.723852895E+02  2.306832443E+02  1.250000000E+02  0.00000E+00  9.000E+00
      21     1     1     2   512   502 -2.727476073E+01  5.539995302E+01  8.936951887E+02  8.958259639E+02  1.078959322E-05  0.00000E+00  9.000E+00
#rwgt            1           1   1.6209679139205378E-002           1      366986           0
</event>
<event>
      5   9999  3.79277E-02  2.49652E+01 -1.00000E+00  1.58796E-01
      21    -1     0     0   502   511  0.000000000E+00  0.000000000E+00  2.171492440E+02  2.171492440E+02  0.000000000E+00  0.00000E+00  9.000E+00
      21    -1     0     0   501   502  0.000000000E+00  0.000000000E+00 -3.908386720E+02  3.908386720E+02  0.000000000E+00  0.00000E+00  9.000E+00
      25     1     1     2     0     0  2.861040415E+01  4.823281215E+01  1.268268333E+02  1.866949518E+02  1.250000000E+02  0.00000E+00  9.000E+00
      25     1     1     2     0     0 -4.148203618E+00 -5.321914069E+01 -3.447076591E+02  3.705372516E+02  1.250000000E+02  0.00000E+00  9.000E+00
      21     1     1     2   501   511 -2.446220054E+01  4.986328544E+00  4.419139776E+01  5.075571262E+01  8.259061849E-07  0.00000E+00  9.000E+00
#rwgt            1           1   4.5053134584883484E-002           1      367148           0
</event>
<event>
      5   9999  3.79277E-02  1.32504E+01 -1.00000E+00  1.82613E-01
      21    -1     0     0   502   501  0.000000000E+00  0.000000000E+00  1.499448701E+02  1.499448701E+02  0.000000000E+00  0.00000E+00  9.000E+00
      21    -1     0     0   501   512  0.000000000E+00  0.000000000E+00 -2.177324279E+02  2.177324279E+02  0.000000000E+00  0.00000E+00  9.000E+00
      25     1     1     2     0     0  9.695069203E+01  6.631288165E+01 -4.357769937E+01  1.769769783E+02  1.250000000E+02  0.00000E+00  9.000E+00
      25     1     1     2     0     0 -9.229124302E+01 -7.871702820E+01 -1.555605569E+01  1.748743404E+02  1.250000000E+02  0.00000E+00  9.000E+00
      21     1     1     2   502   512 -4.659449009E+00  1.240414654E+01 -8.653802763E+00  1.582597923E+01  2.920019320E-07  0.00000E+00  9.000E+00
#rwgt            1           1   2.4678385022753192E-002           1      367292           0
</event>
<event>
      5   9999  3.79277E-02  1.02166E+01 -1.00000E+00  1.94687E-01
      21    -1     0     0   511   501  0.000000000E+00  0.000000000E+00  4.055154922E+02  4.055154922E+02  0.000000000E+00  0.00000E+00  9.000E+00
      21    -1     0     0   501   502  0.000000000E+00  0.000000000E+00 -1.129671850E+02  1.129671850E+02  0.000000000E+00  0.00000E+00  9.000E+00
      25     1     1     2     0     0 -7.599203864E+01  8.462055184E+01  6.852628158E+00  1.691371817E+02  1.250000000E+02  0.00000E+00  9.000E+00
      25     1     1     2     0     0  7.740645675E+01 -9.473877847E+01  2.115148996E+02  2.744644757E+02  1.250000000E+02  0.00000E+00  9.000E+00
      21     1     1     2   511   502 -1.414418109E+00  1.011822663E+01  7.418077939E+01  7.488101976E+01  1.348699152E-06  0.00000E+00  9.000E+00
#rwgt            1           1   3.3341986105156714E-002           1      367450           0
</event>
<event>
      5   9999  3.79277E-02  1.77263E+01 -1.00000E+00  1.70813E-01
      21    -1     0     0   502   512  0.000000000E+00  0.000000000E+00  6.113194617E+02  6.113194617E+02  0.000000000E+00  0.00000E+00  9.000E+00
      21    -1     0     0   501   502  0.000000000E+00  0.000000000E+00 -3.115887659E+02  3.115887659E+02  0.000000000E+00  0.00000E+00  9.000E+00
      25     1     1     2     0     0 -5.189836803E+01  9.574693300E+01 -4.934929640E+00  1.658621998E+02  1.250000000E+02  0.00000E+00  9.000E+00
      25     1     1     2     0     0  6.773789693E+01 -1.037051083E+02 -1.917800396E+02  2.602839906E+02  1.250000000E+02  0.00000E+00  9.000E+00
      21     1     1     2   501   512 -1.583952891E+01  7.958175276E+00  4.964456651E+02  4.967620372E+02  5.394796609E-06  0.00000E+00  9.000E+00
#rwgt            1           1   4.3098779319715272E-002           1      367899           0
</event>
<event>
      5   9999  3.79277E-02  3.38821E+01 -1.00000E+00  1.49458E-01
      21    -1     0     0   511   501  0.000000000E+00  0.000000000E+00  2.348694417E+02  2.348694417E+02  0.000000000E+00  0.00000E+00  9.000E+00
      21    -1     0     0   501   502  0.000000000E+00  0.000000000E+00 -5.745591230E+02  5.745591230E+02  0.000000000E+00  0.00000E+00  9.000E+00
      25     1     1     2     0     0 -3.723495698E+01  2.060959854E+02 -2.897539930E+02  3.787405097E+02  1.250000000E+02  0.00000E+00  9.000E+00
      25     1     1     2     0     0  2.873717226E+01 -2.388951741E+02 -1.604715070E+02  3.150759175E+02  1.250000000E+02  0.00000E+00  9.000E+00
      21     1     1     2   511   502  8.497784716E+00  3.279918867E+01  1.105358187E+02  1.156121375E+02  0.000000000E+00  0.00000E+00  9.000E+00
#rwgt            1           1   3.3683614135863189E-002           1      368033           0
</event>
<event>
      5   9999  3.79277E-02  7.99480E+01 -1.00000E+00  1.28363E-01
      21    -1     0     0   502   501  0.000000000E+00  0.000000000E+00  2.765375540E+02  2.765375540E+02  0.000000000E+00  0.00000E+00  9.000E+00
      21    -1     0     0   501   512  0.000000000E+00  0.000000000E+00 -2.793830878E+02  2.793830878E+02  0.000000000E+00  0.00000E+00  9.000E+00
      25     1     1     2     0     0 -1.111616779E+02  4.004894756E+01  1.296331345E+02  2.153847404E+02  1.250000000E+02  0.00000E+00  9.000E+00
      25     1     1     2     0     0  1.759732981E+02 -8.685848208E+01 -1.107664867E+02  2.576920878E+02  1.250000000E+02  0.00000E+00  9.000E+00
      21     1     1     2   502   512 -6.481162019E+01  4.680953453E+01 -2.171218158E+01  8.284381367E+01  9.830249847E-07  0.00000E+00  9.000E+00
#rwgt            1           1   3.0038627722875893E-002           1      368203           0
</event>
<event>
      5   9999  3.79277E-02  3.70270E+01 -1.00000E+00  1.46951E-01
      21    -1     0     0   502   511  0.000000000E+00  0.000000000E+00  1.574842259E+02  1.574842259E+02  0.000000000E+00  0.00000E+00  9.000E+00
      21    -1     0     0   501   502  0.000000000E+00  0.000000000E+00 -3.224379287E+02  3.224379287E+02  0.000000000E+00  0.00000E+00  9.000E+00
      25     1     1     2     0     0  9.589249942E+01 -2.496352769E+01 -1.715614723E+01  1.604303043E+02  1.250000000E+02  0.00000E+00  9.000E+00
      25     1     1     2     0     0 -8.457077531E+01  6.021718050E+01 -1.986154417E+02  2.566153124E+02  1.250000000E+02  0.00000E+00  9.000E+00
      21     1     1     2   501   511 -1.132172411E+01 -3.525365280E+01  5.081788615E+01  6.287653795E+01  9.536743164E-07  0.00000E+00  9.000E+00
#rwgt            1           1   4.9554095281153093E-002           1      368299           0
</event>
<event>
      5   9999  3.79277E-02  4.27007E+01 -1.00000E+00  1.43102E-01
      21    -1     0     0   502   501  0.000000000E+00  0.000000000E+00  1.391138492E+02  1.391138492E+02  0.000000000E+00  0.00000E+00  9.000E+00
      21    -1     0     0   501   512  0.000000000E+00  0.000000000E+00 -1.442346087E+03  1.442346087E+03  0.000000000E+00  0.00000E+00  9.000E+00
      25     1     1     2     0     0  3.739672423E+02 -1.685346251E+02 -6.662479049E+02  7.923172906E+02  1.250000000E+02  0.00000E+00  9.000E+00
      25     1     1     2     0     0 -3.653323472E+02  1.267160997E+02 -4.927027270E+02  6.386749338E+02  1.250000000E+02  0.00000E+00  9.000E+00
      21     1     1     2   502   512 -8.634895058E+00  4.181852541E+01 -1.442816060E+02  1.504677118E+02  0.000000000E+00  0.00000E+00  9.000E+00
#rwgt            1           1   5.3693022985776544E-002           1      368679           0
</event>
<event>
      5   9999  3.79277E-02  2.84949E+01 -1.00000E+00  1.54609E-01
      21    -1     0     0   502   501  0.000000000E+00  0.000000000E+00  2.264761083E+03  2.264761083E+03  0.000000000E+00  0.00000E+00  9.000E+00
      21    -1     0     0   501   511  0.000000000E+00  0.000000000E+00 -2.011052597E+01  2.011052597E+01  0.000000000E+00  0.00000E+00  9.000E+00
      25     1     1     2     0     0 -9.596834536E+01  1.034243928E+02  9.737620236E+02  9.918387001E+02  1.250000000E+02  0.00000E+00  9.000E+00
      25     1     1     2     0     0  1.078646415E+02 -1.293172112E+02  1.128232947E+03  1.147559281E+03  1.250000000E+02  0.00000E+00  9.000E+00
      21     1     1     2   502   511 -1.189629617E+01  2.589281849E+01  1.426555871E+02  1.454736280E+02  2.697398305E-06  0.00000E+00  9.000E+00
#rwgt            1           1  0.17775484221058918                1      368832           0
</event>
<event>
      5   9999  3.79277E-02  2.47973E+01 -1.00000E+00  1.59016E-01
      21    -1     0     0   502   501  0.000000000E+00  0.000000000E+00  5.348809358E+02  5.348809358E+02  0.000000000E+00  0.00000E+00  9.000E+00
       1    -1     0     0   501     0  0.000000000E+00  0.000000000E+00 -1.118454194E+02  1.118454194E+02  0.000000000E+00  0.00000E+00  9.000E+00
      25     1     1     2     0     0 -9.065027514E+01  1.483527965E+02  1.382181160E+02  2.548632421E+02  1.250000000E+02  0.00000E+00  9.000E+00
      25     1     1     2     0     0  6.613510107E+01 -1.520827593E+02  2.984283125E+02  3.635759549E+02  1.250000000E+02  0.00000E+00  9.000E+00
       1     1     1     2   502     0  2.451517407E+01  3.729962868E+00 -1.361091212E+01  2.828715807E+01  2.384185791E-07  0.00000E+00  9.000E+00
#rwgt            1           1   3.6661278519376790E-002           1      369526           0
</event>
<event>
      5   9999  3.79277E-02  4.81177E+01 -1.00000E+00  1.40033E-01
      21    -1     0     0   502   501  0.000000000E+00  0.000000000E+00  1.753127336E+02  1.753127336E+02  0.000000000E+00  0.00000E+00  9.000E+00
      21    -1     0     0   511   502  0.000000000E+00  0.000000000E+00 -4.550366214E+02  4.550366214E+02  0.000000000E+00  0.00000E+00  9.000E+00
      25     1     1     2     0     0  1.456065271E+02 -7.046921611E+01  5.190039309E+01  2.109166232E+02  1.250000000E+02  0.00000E+00  9.000E+00
      25     1     1     2     0     0 -9.961891554E+01  5.631125367E+01 -1.340315773E+02  2.160656135E+02  1.250000000E+02  0.00000E+00  9.000E+00
      21     1     1     2   511   501 -4.598761152E+01  1.415796244E+01 -1.975927036E+02  2.033671183E+02  2.697398305E-06  0.00000E+00  9.000E+00
#rwgt            1           1   3.7151335826106142E-002           1      369671           0
</event>
<event>
      5   9999  3.79277E-02  2.76637E+01 -1.00000E+00  1.55526E-01
      21    -1     0     0   502   501  0.000000000E+00  0.000000000E+00  7.272371404E+01  7.272371404E+01  0.000000000E+00  0.00000E+00  9.000E+00
      21    -1     0     0   501   512  0.000000000E+00  0.000000000E+00 -1.052324260E+03  1.052324260E+03  0.000000000E+00  0.00000E+00  9.000E+00
      25     1     1     2     0     0 -8.033693148E+01  5.932377489E+00 -2.383099137E+01  1.506058824E+02  1.250000000E+02  0.00000E+00  9.000E+00
      25     1     1     2     0     0  9.369540892E+01  1.829227561E+01 -8.760947786E+02  8.901013977E+02  1.250000000E+02  0.00000E+00  9.000E+00
      21     1     1     2   502   512 -1.335847744E+01 -2.422465310E+01 -7.967477633E+01  8.434069433E+01  0.000000000E+00  0.00000E+00  9.000E+00
#rwgt            1           1   4.4391622532881987E-002           1      369832           0
</event>
<event>
      5   9999  3.79277E-02  2.35320E+01 -1.00000E+00  1.60745E-01
      21    -1     0     0   502   501  0.000000000E+00  0.000000000E+00  1.895199526E+02  1.895199526E+02  0.000000000E+00  0.00000E+00  9.000E+00
      21    -1     0     0   501   511  0.000000000E+00  0.000000000E+00 -5.686653363E+02  5.686653363E+02  0.000000000E+00  0.00000E+00  9.000E+00
      25     1     1     2     0     0 -3.134476510E-01  2.560383983E+02 -3.341530465E+02  4.391343964E+02  1.250000000E+02  0.00000E+00  9.000E+00
      25     1     1     2     0     0  1.334756910E+01 -2.364458709E+02  5.509006032E-01  2.677874361E+02  1.250000000E+02  0.00000E+00  9.000E+00
      21     1     1     2   502   511 -1.303412145E+01 -1.959252742E+01 -4.554323777E+01  5.126345637E+01  6.743495762E-07  0.00000E+00  9.000E+00
#rwgt            1           1   4.1303555876508295E-002           1      370050           0
</event>
<event>
      5   9999  3.79277E-02  1.86974E+01 -1.00000E+00  1.68819E-01
      21    -1     0     0   512   501  0.000000000E+00  0.000000000E+00  2.322778268E+02  2.322778268E+02  0.000000000E+00  0.00000E+00  9.000E+00
      21    -1     0     0   501   502  0.000000000E+00  0.000000000E+00 -5.189075500E+02  5.189075500E+02  0.000000000E+00  0.00000E+00  9.000E+00
      25     1     1     2     0     0  1.612980578E+02 -1.744913061E+02 -3.034923561E+01  2.702042847E+02  1.250000000E+02  0.00000E+00  9.000E+00
      25     1     1     2     0     0 -1.567511246E+02  1.926274012E+02 -3.145337172E+02  4.198007742E+02  1.250000000E+02  0.00000E+00  9.000E+00
      21     1     1     2   512   502 -4.546933154E+00 -1.813609506E+01  5.825322964E+01  6.118031798E+01  6.743495762E-07  0.00000E+00  9.000E+00
#rwgt            1           1   4.4864346883055489E-002           1      370369           0
</event>
<event>
      5   9999  3.79277E-02  1.84797E+02 -1.00000E+00  1.12912E-01
      21    -1     0     0   502   501  0.000000000E+00  0.000000000E+00  3.129029778E+02  3.129029778E+02  0.000000000E+00  0.00000E+00  9.000E+00
      21    -1     0     0   511   502  0.000000000E+00  0.000000000E+00 -6.304405052E+02  6.304405052E+02  0.000000000E+00  0.00000E+00  9.000E+00
      25     1     1     2     0     0 -1.033782737E+02 -8.006423870E+00  1.895279759E+02  2.495937177E+02  1.250000000E+02  0.00000E+00  9.000E+00
      25     1     1     2     0     0  2.126653309E+02 -1.410109467E+02 -2.594038056E+02  3.847414254E+02  1.250000000E+02  0.00000E+00  9.000E+00
      21     1     1     2   511   501 -1.092870573E+02  1.490173705E+02 -2.476616977E+02  3.090083399E+02  2.697398305E-06  0.00000E+00  9.000E+00
#rwgt            1           1   3.2623184738190980E-002           1      370637           0
</event>
<event>
      5   9999  3.79277E-02  3.74369E+01 -1.00000E+00  1.46647E-01
      -2    -1     0     0     0   501  0.000000000E+00  0.000000000E+00  9.460132492E+02  9.460132492E+02  0.000000000E+00  0.00000E+00  9.000E+00
      21    -1     0     0   501   502  0.000000000E+00  0.000000000E+00 -1.136564669E+02  1.136564669E+02  0.000000000E+00  0.00000E+00  9.000E+00
      25     1     1     2     0     0  1.620965984E+02 -3.435452518E+01  9.156085849E+01  2.268566319E+02  1.250000000E+02  0.00000E+00  9.000E+00
      25     1     1     2     0     0 -1.663728247E+02  7.154641530E+01  2.217018799E+02  3.123708211E+02  1.250000000E+02  0.00000E+00  9.000E+00
      -2     1     1     2     0   502  4.276226263E+00 -3.719189012E+01  5.190940439E+02  5.204422631E+02  7.629394531E-06  0.00000E+00  9.000E+00
#rwgt            1           1   4.1444008421934714E-002           1      370705           0
</event>
<event>
      5   9999  3.79277E-02  1.99377E+01 -1.00000E+00  1.66481E-01
      21    -1     0     0   502   501  0.000000000E+00  0.000000000E+00  9.491371103E+01  9.491371103E+01  0.000000000E+00  0.00000E+00  9.000E+00
      21    -1     0     0   501   511  0.000000000E+00  0.000000000E+00 -4.099557642E+02  4.099557642E+02  0.000000000E+00  0.00000E+00  9.000E+00
      25     1     1     2     0     0 -1.089638894E+02 -7.882314721E+01 -1.370398580E+02  2.291094507E+02  1.250000000E+02  0.00000E+00  9.000E+00
      25     1     1     2     0     0  9.144388669E+01  8.833955234E+01 -1.212854298E+02  2.156409433E+02  1.250000000E+02  0.00000E+00  9.000E+00
      21     1     1     2   502   511  1.752000268E+01 -9.516405123E+00 -5.671676532E+01  6.011908124E+01  1.168007728E-06  0.00000E+00  9.000E+00
#rwgt            1           1   4.9285815428689463E-002           1      370867           0
</event>
<event>
      5   9999  3.79277E-02  7.72904E+01 -1.00000E+00  1.29078E-01
      21    -1     0     0   502   501  0.000000000E+00  0.000000000E+00  1.584331224E+02  1.584331224E+02  0.000000000E+00  0.00000E+00  9.000E+00
      21    -1     0     0   512   502  0.000000000E+00  0.000000000E+00 -2.749516421E+02  2.749516421E+02  0.000000000E+00  0.00000E+00  9.000E+00
      25     1     1     2     0     0 -9.359331511E-01  8.916447580E+00  6.444075099E+01  1.409183785E+02  1.250000000E+02  0.00000E+00  9.000E+00
      25     1     1     2     0     0 -6.599481596E+01 -4.756978562E+01 -9.480383045E+01  1.767228522E+02  1.250000000E+02  0.00000E+00  9.000E+00
      21     1     1     2   512   501  6.693074912E+01  3.865333804E+01 -8.615544029E+01  1.157435338E+02  1.651812370E-06  0.00000E+00  9.000E+00
#rwgt            1           1   4.5797340146786901E-002           1      371144           0
</event>
<event>
      5   9999  3.79277E-02  5.84305E+01 -1.00000E+00  1.35321E-01
      21    -1     0     0   502   501  0.000000000E+00  0.000000000E+00  5.205361971E+02  5.205361971E+02  0.000000000E+00  0.00000E+00  9.000E+00
      21    -1     0     0   501   511  0.000000000E+00  0.000000000E+00 -2.069353799E+02  2.069353799E+02  0.000000000E+00  0.00000E+00  9.000E+00
      25     1     1     2     0     0  5.159261948E+01 -6.975522692E+01  4.284083204E+02  4.546276268E+02  1.250000000E+02  0.00000E+00  9.000E+00
      25     1     1     2     0     0  9.758871856E-01  9.526357544E+01 -1.590200416E+01  1.579682718E+02  1.250000000E+02  0.00000E+00  9.000E+00
      21     1     1     2   502   511 -5.256850666E+01 -2.550834852E+01 -9.890549903E+01  1.148756783E+02  0.000000000E+00  0.00000E+00  9.000E+00
#rwgt            1           1   2.7417789328900776E-002           1      371286           0
</event>
<event>
      5   9999  3.79277E-02  4.07757E+01 -1.00000E+00  1.44325E-01
      21    -1     0     0   502   501  0.000000000E+00  0.000000000E+00  1.248729710E+02  1.248729710E+02  0.000000000E+00  0.00000E+00  9.000E+00
      21    -1     0     0   512   502  0.000000000E+00  0.000000000E+00 -5.002820685E+02  5.002820685E+02  0.000000000E+00  0.00000E+00  9.000E+00
      25     1     1     2     0     0 -9.297081521E+01 -4.270149110E+01  2.565936076E+01  1.635554726E+02  1.250000000E+02  0.00000E+00  9.000E+00
      25     1     1     2     0     0  1.109703344E+02  7.928935404E+01 -2.979778609E+02  3.507378257E+02  1.250000000E+02  0.00000E+00  9.000E+00
      21     1     1     2   512   501 -1.799951918E+01 -3.658786294E+01 -1.030905973E+02  1.108617411E+02  1.907348633E-06  0.00000E+00  9.000E+00
#rwgt            1           1   4.2359278462909121E-002           1      371441           0
</event>
<event>
      5   9999  3.79277E-02  4.65778E+01 -1.00000E+00  1.40855E-01
      21    -1     0     0   502   501  0.000000000E+00  0.000000000E+00  6.036863958E+02  6.036863958E+02  0.000000000E+00  0.00000E+00  9.000E+00
      21    -1     0     0   511   502  0.000000000E+00  0.000000000E+00 -8.553865071E+01  8.553865071E+01  0.000000000E+00  0.00000E+00  9.000E+00
      25     1     1     2     0     0  2.883035813E+00  4.901002354E+01  4.961609186E+02  5.140145440E+02  1.250000000E+02  0.00000E+00  9.000E+00
      25     1     1     2     0     0  2.181419998E+01 -9.518979599E+00  1.572953280E+01  1.282142289E+02  1.250000000E+02  0.00000E+00  9.000E+00
      21     1     1     2   511   501 -2.469723579E+01 -3.949104394E+01  6.257293691E+00  4.699627359E+01  7.152557373E-07  0.00000E+00  9.000E+00
#rwgt            1           1   3.2107320992381880E-002           1      371546           0
</event>
<event>
      5   9999 -3.79277E-02  2.26412E+01 -1.00000E+00  1.62044E-01
      21    -1     0     0   502   501  0.000000000E+00  0.000000000E+00  2.844938764E+02  2.844938764E+02  0.000000000E+00  0.00000E+00  9.000E+00
       1    -1     0     0   501     0  0.000000000E+00  0.000000000E+00 -5.132472234E+02  5.132472234E+02  0.000000000E+00  0.00000E+00  9.000E+00
      25     1     1     2     0     0  5.877327925E+01  2.158497094E+02 -2.078730535E+02  3.299721227E+02  1.250000000E+02  0.00000E+00  9.000E+00
      25     1     1     2     0     0 -3.666904935E+01 -2.109477904E+02  1.537137162E+02  2.917130371E+02  1.250000000E+02  0.00000E+00  9.000E+00
       1     1     1     2   502     0 -2.210422991E+01 -4.901918934E+00 -1.745940097E+02  1.760559400E+02  1.907348633E-06  0.00000E+00  9.000E+00
#rwgt            1           1  -5.0907671781670820E-002           1      371704           0
</event>
<event>
      5   9999  3.79277E-02  2.07575E+01 -1.00000E+00  1.65048E-01
      21    -1     0     0   502   501  0.000000000E+00  0.000000000E+00  8.005745271E+02  8.005745271E+02  0.000000000E+00  0.00000E+00  9.000E+00
      21    -1     0     0   501   511  0.000000000E+00  0.000000000E+00 -1.099076597E+02  1.099076597E+02  0.000000000E+00  0.00000E+00  9.000E+00
      25     1     1     2     0     0  7.614657952E+01 -8.907294176E+01  5.827635681E+02  6.074295571E+02  1.250000000E+02  0.00000E+00  9.000E+00
      25     1     1     2     0     0 -7.174585967E+01  6.878728362E+01  1.725755704E+02  2.351307854E+02  1.250000000E+02  0.00000E+00  9.000E+00
      21     1     1     2   502   511 -4.400719849E+00  2.028565815E+01 -6.467227112E+01  6.792184415E+01  1.651812370E-06  0.00000E+00  9.000E+00
#rwgt            1           1   3.2789333251459919E-002           1      371902           0
</event>
<event>
      5   9999  3.79277E-02  1.64264E+01 -1.00000E+00  1.73746E-01
      21    -1     0     0   502   501  0.000000000E+00  0.000000000E+00  1.015944877E+03  1.015944877E+03  0.000000000E+00  0.00000E+00  9.000E+00
      21    -1     0     0   501   512  0.000000000E+00  0.000000000E+00 -1.691642775E+02  1.691642775E+02  0.000000000E+00  0.00000E+00  9.000E+00
      25     1     1     2     0     0  2.902850705E+02 -8.692231000E+01  5.468351482E+02  6.375535973E+02  1.250000000E+02  0.00000E+00  9.000E+00
      25     1     1     2     0     0 -2.769547339E+02  7.732400136E+01  3.645835788E+02  4.808628825E+02  1.250000000E+02  0.00000E+00  9.000E+00
      21     1     1     2   502   512 -1.333033658E+01  9.598308638E+00 -6.463812725E+01  6.669267499E+01  1.651812370E-06  0.00000E+00  9.000E+00
#rwgt            1           1   3.8483287731315187E-002           1      372133           0
</event>
<event>
      5   9999  3.79277E-02  5.53133E+01 -1.00000E+00  1.36618E-01
      21    -1     0     0   502   501  0.000000000E+00  0.000000000E+00  2.725889939E+02  2.725889939E+02  0.000000000E+00  0.00000E+00  9.000E+00
      21    -1     0     0   501   511  0.000000000E+00  0.000000000E+00 -1.968051274E+02  1.968051274E+02  0.000000000E+00  0.00000E+00  9.000E+00
      25     1     1     2     0     0  4.626184939E+01 -1.102528518E+02 -2.835744667E+01  1.752854667E+02  1.250000000E+02  0.00000E+00  9.000E+00
      25     1     1     2     0     0 -8.858398872E+01  1.458674256E+02  1.100964688E+02  2.384757039E+02  1.250000000E+02  0.00000E+00  9.000E+00
      21     1     1     2   502   511  4.232213934E+01 -3.561457374E+01 -5.955155638E+00  5.563295084E+01  3.674277069E-07  0.00000E+00  9.000E+00
#rwgt            1           1   3.2555299491490115E-002           1      372593           0
</event>
<event>
      5   9999  3.79277E-02  1.17873E+02  7.55638E-03  1.20699E-01
      -1    -1     0     0     0   501  0.000000000E+00  0.000000000E+00  8.736236972E+01  8.736236972E+01  0.000000000E+00  0.00000E+00  9.000E+00
       1    -1     0     0   502     0  0.000000000E+00  0.000000000E+00 -6.863284425E+02  6.863284425E+02  0.000000000E+00  0.00000E+00  9.000E+00
      25     1     1     2     0     0 -1.247153298E+02  6.657133742E+01 -3.776945272E+02  4.222129940E+02  1.250000000E+02  0.00000E+00  9.000E+00
      25     1     1     2     0     0  2.028206814E+01 -1.191058710E+01 -1.915180877E+02  2.299073776E+02  1.250000000E+02  0.00000E+00  9.000E+00
      21     1     1     2   502   501  1.044332617E+02 -5.466075032E+01 -2.975345796E+01  1.215704406E+02  2.407909617E-06  0.00000E+00  9.000E+00
#rwgt            3           5   7.3022444539643026E-004           1      372712           0
</event>
<event>
      5   9999  3.79277E-02  1.31169E+01 -1.00000E+00  1.83054E-01
      21    -1     0     0   502   501  0.000000000E+00  0.000000000E+00  6.220513614E+02  6.220513614E+02  0.000000000E+00  0.00000E+00  9.000E+00
      21    -1     0     0   501   511  0.000000000E+00  0.000000000E+00 -1.642791485E+03  1.642791485E+03  0.000000000E+00  0.00000E+00  9.000E+00
      25     1     1     2     0     0  1.960436328E+01 -2.317769057E+01  3.817409447E+02  4.028308396E+02  1.250000000E+02  0.00000E+00  9.000E+00
      25     1     1     2     0     0 -1.996907315E+01  3.628950938E+01  2.108688012E+02  2.486088166E+02  1.250000000E+02  0.00000E+00  9.000E+00
      21     1     1     2   502   511  3.647098719E-01 -1.311181880E+01 -1.613349869E+03  1.613403190E+03  3.051757812E-05  0.00000E+00  9.000E+00
#rwgt            1           1   2.3737082482454930E-002           1      372731           0
</event>
<event>
      5   9999  3.79277E-02  9.09025E+01 -1.00000E+00  1.25720E-01
      21    -1     0     0   512   501  0.000000000E+00  0.000000000E+00  1.446722840E+02  1.446722840E+02  0.000000000E+00  0.00000E+00  9.000E+00
      21    -1     0     0   501   502  0.000000000E+00  0.000000000E+00 -5.560563568E+02  5.560563568E+02  0.000000000E+00  0.00000E+00  9.000E+00
      25     1     1     2     0     0  6.265316959E+00 -1.441581487E+02 -4.102079703E+02  4.524559701E+02  1.250000000E+02  0.00000E+00  9.000E+00
      25     1     1     2     0     0  2.971679707E+01  6.068028119E+01  4.124766949E+01  1.479579494E+02  1.250000000E+02  0.00000E+00  9.000E+00
      21     1     1     2   512   502 -3.598211403E+01  8.347786746E+01 -4.242377200E+01  1.003147213E+02  8.259061849E-07  0.00000E+00  9.000E+00
#rwgt            1           1   8.9920548719282355E-003           1      372995           0
</event>
<event>
      5   9999  3.79277E-02  3.26494E+01 -1.00000E+00  1.50530E-01
      21    -1     0     0   511   501  0.000000000E+00  0.000000000E+00  2.303670767E+02  2.303670767E+02  0.000000000E+00  0.00000E+00  9.000E+00
      21    -1     0     0   501   502  0.000000000E+00  0.000000000E+00 -3.697460259E+02  3.697460259E+02  0.000000000E+00  0.00000E+00  9.000E+00
      25     1     1     2     0     0  1.623148072E+02  3.693538047E+01 -1.217116327E+02  2.411411215E+02  1.250000000E+02  0.00000E+00  9.000E+00
      25     1     1     2     0     0 -1.839994490E+02 -1.252722681E+01 -1.189474543E+02  2.525593505E+02  1.250000000E+02  0.00000E+00  9.000E+00
      21     1     1     2   511   502  2.168464184E+01 -2.440815366E+01  1.012801377E+02  1.064126306E+02  1.348699152E-06  0.00000E+00  9.000E+00
#rwgt            1           1   3.9741067334742641E-002           1      373091           0
</event>
<event>
      5   9999  3.79277E-02  1.03018E+02 -1.00000E+00  1.23250E-01
      21    -1     0     0   502   501  0.000000000E+00  0.000000000E+00  5.678544712E+02  5.678544712E+02  0.000000000E+00  0.00000E+00  9.000E+00
      21    -1     0     0   501   512  0.000000000E+00  0.000000000E+00 -1.376127582E+03  1.376127582E+03  0.000000000E+00  0.00000E+00  9.000E+00
      25     1     1     2     0     0  2.154517358E+02  6.352101066E+01  8.728411143E+01  2.714735445E+02  1.250000000E+02  0.00000E+00  9.000E+00
      25     1     1     2     0     0 -2.503001042E+02  3.342331884E+01  3.349464240E+02  4.377000883E+02  1.250000000E+02  0.00000E+00  9.000E+00
      21     1     1     2   502   512  3.484836838E+01 -9.694432950E+01 -1.230503647E+03  1.234808421E+03  1.525878906E-05  0.00000E+00  9.000E+00
#rwgt            1           1   3.6984299512081126E-002           1      373180           0
</event>
<event>
      5   9999  3.79277E-02  1.31582E+02 -1.00000E+00  1.18694E-01
      21    -1     0     0   511   501  0.000000000E+00  0.000000000E+00  2.641823665E+03  2.641823665E+03  0.000000000E+00  0.00000E+00  9.000E+00
      21    -1     0     0   501   502  0.000000000E+00  0.000000000E+00 -4.723798926E+01  4.723798926E+01  0.000000000E+00  0.00000E+00  9.000E+00
      25     1     1     2     0     0 -2.638463718E+01 -1.729679531E+02  4.357514576E+02  4.859201526E+02  1.250000000E+02  0.00000E+00  9.000E+00
      25     1     1     2     0     0  1.510957067E+02  2.149329303E+02  1.172027337E+03  1.207600578E+03  1.250000000E+02  0.00000E+00  9.000E+00
      21     1     1     2   511   502 -1.247110695E+02 -4.196497721E+01  9.868068817E+02  9.955409243E+02  1.078959322E-05  0.00000E+00  9.000E+00
#rwgt            1           1   2.8472202061267826E-002           1      373255           0
</event>
<event>
      5   9999  3.79277E-02  1.08627E+01 -1.00000E+00  1.91692E-01
      21    -1     0     0   502   501  0.000000000E+00  0.000000000E+00  2.091719096E+02  2.091719096E+02  0.000000000E+00  0.00000E+00  9.000E+00
       2    -1     0     0   501     0  0.000000000E+00  0.000000000E+00 -5.081823475E+02  5.081823475E+02  0.000000000E+00  0.00000E+00  9.000E+00
      25     1     1     2     0     0 -9.991786449E+01  1.555179522E+02 -2.216663684E+02  3.145320206E+02  1.250000000E+02  0.00000E+00  9.000E+00
      25     1     1     2     0     0  1.106006601E+02 -1.574868325E+02  8.156562426E+01  2.435416997E+02  1.250000000E+02  0.00000E+00  9.000E+00
       2     1     1     2   502     0 -1.068279558E+01  1.968880269E+00 -1.589096939E+02  1.592805368E+02  1.907348633E-06  0.00000E+00  9.000E+00
#rwgt            1           1   6.3817057798594284E-002           1      373318           0
</event>
<event>
      5   9999  3.79277E-02  3.28533E+01 -1.00000E+00  1.50349E-01
      21    -1     0     0   502   501  0.000000000E+00  0.000000000E+00  7.588844185E+01  7.588844185E+01  0.000000000E+00  0.00000E+00  9.000E+00
       1    -1     0     0   501     0  0.000000000E+00  0.000000000E+00 -1.023007649E+03  1.023007649E+03  0.000000000E+00  0.00000E+00  9.000E+00
      25     1     1     2     0     0 -7.512298662E+01  8.838911318E+01 -4.478201254E+02  4.791909464E+02  1.250000000E+02  0.00000E+00  9.000E+00
      25     1     1     2     0     0  6.196372048E+01 -1.184917882E+02 -8.107862351E+01  2.001962780E+02  1.250000000E+02  0.00000E+00  9.000E+00
       1     1     1     2   502     0  1.315926614E+01  3.010267499E+01 -4.182204585E+02  4.195088667E+02  5.394796609E-06  0.00000E+00  9.000E+00
#rwgt            1           1   5.1132697936511214E-002           1      373590           0
</event>
<event>
      5   9999  3.79277E-02  2.54678E+01 -1.00000E+00  1.58150E-01
      21    -1     0     0   511   501  0.000000000E+00  0.000000000E+00  2.101826028E+02  2.101826028E+02  0.000000000E+00  0.00000E+00  9.000E+00
      21    -1     0     0   501   502  0.000000000E+00  0.000000000E+00 -6.445903340E+02  6.445903340E+02  0.000000000E+00  0.00000E+00  9.000E+00
      25     1     1     2     0     0  1.059686427E+02 -2.025513507E+02 -1.052619721E+01  2.607531471E+02  1.250000000E+02  0.00000E+00  9.000E+00
      25     1     1     2     0     0 -9.335231479E+01  1.804281165E+02 -4.780002697E+02  5.342080285E+02  1.250000000E+02  0.00000E+00  9.000E+00
      21     1     1     2   511   502 -1.261632787E+01  2.212323420E+01  5.411873569E+01  5.981176116E+01  0.000000000E+00  0.00000E+00  9.000E+00
#rwgt            1           1   2.8450343196253863E-002           1      373790           0
</event>
<event>
      5   9999  3.79277E-02  6.72124E+01 -1.00000E+00  1.32121E-01
      21    -1     0     0   502   501  0.000000000E+00  0.000000000E+00  2.786637825E+02  2.786637825E+02  0.000000000E+00  0.00000E+00  9.000E+00
      21    -1     0     0   512   502  0.000000000E+00  0.000000000E+00 -1.867444847E+02  1.867444847E+02  0.000000000E+00  0.00000E+00  9.000E+00
      25     1     1     2     0     0  2.795986115E+01  3.886872838E+01 -5.678781996E+01  1.454042241E+02  1.250000000E+02  0.00000E+00  9.000E+00
      25     1     1     2     0     0 -9.461979400E+01 -3.026881913E+01  1.843846502E+02  2.439094218E+02  1.250000000E+02  0.00000E+00  9.000E+00
      21     1     1     2   512   501  6.665993285E+01 -8.599909251E+00 -3.567753239E+01  7.609462139E+01  1.581489940E-06  0.00000E+00  9.000E+00
#rwgt            1           1   4.4195669494873371E-002           1      373950           0
</event>
<event>
      5   9999  3.79277E-02  3.13271E+01 -1.00000E+00  1.51746E-01
       1    -1     0     0   502     0  0.000000000E+00  0.000000000E+00  2.284571888E+03  2.284571888E+03  0.000000000E+00  0.00000E+00  9.000E+00
      21    -1     0     0   501   502  0.000000000E+00  0.000000000E+00 -1.684432532E+02  1.684432532E+02  0.000000000E+00  0.00000E+00  9.000E+00
      25     1     1     2     0     0 -2.568780198E+02  4.576046193E+00  3.986548042E+01  2.884813924E+02  1.250000000E+02  0.00000E+00  9.000E+00
      25     1     1     2     0     0  2.364954484E+02  1.921336253E+01  3.647432484E+02  4.527271669E+02  1.250000000E+02  0.00000E+00  9.000E+00
       1     1     1     2   501     0  2.038257138E+01 -2.378940872E+01  1.711519906E+03  1.711806582E+03  0.000000000E+00  0.00000E+00  9.000E+00
#rwgt            1           1   4.1954537636823851E-002           1      374023           0
</event>
<event>
      5   9999  3.79277E-02  1.97867E+01 -1.00000E+00  1.66754E-01
      21    -1     0     0   502   501  0.000000000E+00  0.000000000E+00  2.217422497E+03  2.217422497E+03  0.000000000E+00  0.00000E+00  9.000E+00
      21    -1     0     0   501   511  0.000000000E+00  0.000000000E+00 -6.690710402E+01  6.690710402E+01  0.000000000E+00  0.00000E+00  9.000E+00
      25     1     1     2     0     0  1.501785875E+02  5.816553704E+01  1.574446589E+03  1.587590596E+03  1.250000000E+02  0.00000E+00  9.000E+00
      25     1     1     2     0     0 -1.696247179E+02 -6.182075346E+01  6.150223655E+02  6.530481303E+02  1.250000000E+02  0.00000E+00  9.000E+00
      21     1     1     2   502   511  1.944613036E+01  3.655216419E+00 -3.895356159E+01  4.369087495E+01  1.651812370E-06  0.00000E+00  9.000E+00
#rwgt            1           1   9.4217148514633545E-002           1      374200           0
</event>
<event>
      5   9999  3.79277E-02  5.90287E+01 -1.00000E+00  1.35083E-01
      21    -1     0     0   502   501  0.000000000E+00  0.000000000E+00  8.464463123E+02  8.464463123E+02  0.000000000E+00  0.00000E+00  9.000E+00
      21    -1     0     0   501   512  0.000000000E+00  0.000000000E+00 -1.546550712E+02  1.546550712E+02  0.000000000E+00  0.00000E+00  9.000E+00
      25     1     1     2     0     0 -4.119912527E+01 -1.965133430E+02  2.518337251E+02  3.454852921E+02  1.250000000E+02  0.00000E+00  9.000E+00
      25     1     1     2     0     0  8.242370915E+01  1.542650841E+02  5.162097307E+02  5.591858994E+02  1.250000000E+02  0.00000E+00  9.000E+00
      21     1     1     2   502   512 -4.122458388E+01  4.224825898E+01 -7.625221467E+01  9.643019208E+01  1.907348633E-06  0.00000E+00  9.000E+00
#rwgt            1           1   3.9555638171160507E-002           1      374322           0
</event>
<event>
      5   9999  3.79277E-02  2.30268E+01 -1.00000E+00  1.61473E-01
      21    -1     0     0   502   501  0.000000000E+00  0.000000000E+00  1.891287196E+02  1.891287196E+02  0.000000000E+00  0.00000E+00  9.000E+00
      -4    -1     0     0     0   502  0.000000000E+00  0.000000000E+00 -2.110832532E+02  2.110832532E+02  0.000000000E+00  0.00000E+00  9.000E+00
      25     1     1     2     0     0 -9.838774856E+01  8.439038013E+01 -4.500038448E+01  1.856122839E+02  1.250000000E+02  0.00000E+00  9.000E+00
      25     1     1     2     0     0  9.024247839E+01 -6.285230526E+01  5.488713335E+01  1.753046337E+02  1.250000000E+02  0.00000E+00  9.000E+00
      -4     1     1     2     0   501  8.145270171E+00 -2.153807487E+01 -3.184128252E+01  3.929505526E+01  4.768371582E-07  0.00000E+00  9.000E+00
#rwgt            1           1   4.4178729048525746E-002           1      374580           0
</event>
<event>
      5   9999  3.79277E-02  4.38775E+01 -1.00000E+00  1.42391E-01
      21    -1     0     0   502   501  0.000000000E+00  0.000000000E+00  7.857163219E+02  7.857163219E+02  0.000000000E+00  0.00000E+00  9.000E+00
      21    -1     0     0   501   511  0.000000000E+00  0.000000000E+00 -8.980179255E+01  8.980179255E+01  0.000000000E+00  0.00000E+00  9.000E+00
      25     1     1     2     0     0 -5.014415112E+01  9.252249756E+01  1.566083384E+02  2.263316595E+02  1.250000000E+02  0.00000E+00  9.000E+00
      25     1     1     2     0     0  6.049294422E+01 -1.351621070E+02  5.657075130E+02  5.979784124E+02  1.250000000E+02  0.00000E+00  9.000E+00
      21     1     1     2   502   511 -1.034879310E+01  4.263960943E+01 -2.640132204E+01  5.120804250E+01  6.743495762E-07  0.00000E+00  9.000E+00
#rwgt            1           1   4.1577647234781100E-002           1      374783           0
</event>
<event>
      5   9999  3.79277E-02  2.33467E+01 -1.00000E+00  1.61009E-01
      21    -1     0     0   502   501  0.000000000E+00  0.000000000E+00  3.347076774E+03  3.347076774E+03  0.000000000E+00  0.00000E+00  9.000E+00
      21    -1     0     0   501   512  0.000000000E+00  0.000000000E+00 -3.692145579E+01  3.692145579E+01  0.000000000E+00  0.00000E+00  9.000E+00
      25     1     1     2     0     0 -8.505062745E+01 -1.490451101E+01  1.983599558E+02  2.498548093E+02  1.250000000E+02  0.00000E+00  9.000E+00
      25     1     1     2     0     0  9.224837994E+01  3.711402512E+01  3.105978782E+03  3.110083022E+03  1.250000000E+02  0.00000E+00  9.000E+00
      21     1     1     2   502   512 -7.197752492E+00 -2.220951411E+01  5.816581241E+00  2.406039848E+01  9.195356739E-07  0.00000E+00  9.000E+00
#rwgt            1           1   3.4969414941965100E-002           1      374924           0
</event>
<event>
      5   9999  3.79277E-02  5.69961E+01 -1.00000E+00  1.35906E-01
      21    -1     0     0   502   511  0.000000000E+00  0.000000000E+00  8.246578611E+01  8.246578611E+01  0.000000000E+00  0.00000E+00  9.000E+00
      21    -1     0     0   501   502  0.000000000E+00  0.000000000E+00 -1.071800800E+03  1.071800800E+03  0.000000000E+00  0.00000E+00  9.000E+00
      25     1     1     2     0     0  5.187211683E+01  1.130151277E+02 -1.629858786E+02  2.401094172E+02  1.250000000E+02  0.00000E+00  9.000E+00
      25     1     1     2     0     0 -4.091284862E+01 -1.689476625E+02 -8.298770731E+02  8.570519998E+02  1.250000000E+02  0.00000E+00  9.000E+00
      21     1     1     2   501   511 -1.095926821E+01  5.593253481E+01  3.527937736E+00  5.710516925E+01  1.155008219E-06  0.00000E+00  9.000E+00
#rwgt            1           1   4.4639183922766675E-002           1      375123           0
</event>
<event>
      5   9999  3.79277E-02  3.98399E+01 -1.00000E+00  1.44948E-01
      21    -1     0     0   502   501  0.000000000E+00  0.000000000E+00  6.969081954E+01  6.969081954E+01  0.000000000E+00  0.00000E+00  9.000E+00
      21    -1     0     0   501   512  0.000000000E+00  0.000000000E+00 -7.070053091E+02  7.070053091E+02  0.000000000E+00  0.00000E+00  9.000E+00
      25     1     1     2     0     0 -1.364621005E+02  6.606597964E+01 -1.507862341E+02  2.476855000E+02  1.250000000E+02  0.00000E+00  9.000E+00
      25     1     1     2     0     0  1.013707461E+02 -4.720283142E+01 -3.849945325E+02  4.199403833E+02  1.250000000E+02  0.00000E+00  9.000E+00
      21     1     1     2   502   512  3.509135440E+01 -1.886314822E+01 -1.015337230E+02  1.090702454E+02  1.907348633E-06  0.00000E+00  9.000E+00
#rwgt            1           1   2.2679940548714490E-002           1      375325           0
</event>
<event>
      5   9999  3.79277E-02  8.17731E+01 -1.00000E+00  1.27890E-01
      21    -1     0     0   502   511  0.000000000E+00  0.000000000E+00  1.343822182E+02  1.343822182E+02  0.000000000E+00  0.00000E+00  9.000E+00
      21    -1     0     0   501   502  0.000000000E+00  0.000000000E+00 -4.494583452E+02  4.494583452E+02  0.000000000E+00  0.00000E+00  9.000E+00
      25     1     1     2     0     0 -3.710070223E+01 -8.381238446E+01 -1.315798938E+02  2.033205507E+02  1.250000000E+02  0.00000E+00  9.000E+00
      25     1     1     2     0     0 -4.299507714E+01  6.733483693E+01 -2.392770629E+02  2.815334256E+02  1.250000000E+02  0.00000E+00  9.000E+00
      21     1     1     2   501   511  8.009577937E+01  1.647754753E+01  5.578082976E+01  9.898658704E+01  2.236564522E-06  0.00000E+00  9.000E+00
#rwgt            1           1  0.10487383893890848                1      375417           0
</event>
<event>
      5   9999  3.79277E-02  1.13935E+02 -1.00000E+00  1.21332E-01
      21    -1     0     0   502   501  0.000000000E+00  0.000000000E+00  1.597747562E+02  1.597747562E+02  0.000000000E+00  0.00000E+00  9.000E+00
      21    -1     0     0   512   502  0.000000000E+00  0.000000000E+00 -1.059795820E+03  1.059795820E+03  0.000000000E+00  0.00000E+00  9.000E+00
      25     1     1     2     0     0  1.663502621E+02 -2.117167687E+02 -7.733923119E+01  3.067617260E+02  1.250000000E+02  0.00000E+00  9.000E+00
      25     1     1     2     0     0 -5.640265232E+01  2.415963841E+02 -6.372509777E+02  6.951718353E+02  1.250000000E+02  0.00000E+00  9.000E+00
      21     1     1     2   512   501 -1.099476097E+02 -2.987961542E+01 -1.854308544E+02  2.176370145E+02  2.697398305E-06  0.00000E+00  9.000E+00
#rwgt            1           1   4.0703758322469460E-002           1      375489           0
</event>
<event>
      5   9999  3.79277E-02  5.74502E+01 -1.00000E+00  1.35719E-01
      21    -1     0     0   502   511  0.000000000E+00  0.000000000E+00  1.492991431E+02  1.492991431E+02  0.000000000E+00  0.00000E+00  9.000E+00
      21    -1     0     0   501   502  0.000000000E+00  0.000000000E+00 -3.522017323E+02  3.522017323E+02  0.000000000E+00  0.00000E+00  9.000E+00
      25     1     1     2     0     0 -7.184883292E+01 -1.109073984E+02 -2.165796325E+01  1.831850790E+02  1.250000000E+02  0.00000E+00  9.000E+00
      25     1     1     2     0     0  1.692675464E+01  1.277624789E+02 -1.886037856E+02  2.603961481E+02  1.250000000E+02  0.00000E+00  9.000E+00
      21     1     1     2   501   511  5.492207829E+01 -1.685508049E+01  7.359159656E+00  5.791964824E+01  4.460403188E-07  0.00000E+00  9.000E+00
#rwgt            1           1   2.7925100980928094E-002           1      375591           0
</event>
<event>
      5   9999  3.79277E-02  9.03259E+01 -1.00000E+00  1.25849E-01
      21    -1     0     0   502   512  0.000000000E+00  0.000000000E+00  1.696167686E+03  1.696167686E+03  0.000000000E+00  0.00000E+00  9.000E+00
      21    -1     0     0   501   502  0.000000000E+00  0.000000000E+00 -4.982341714E+01  4.982341714E+01  0.000000000E+00  0.00000E+00  9.000E+00
      25     1     1     2     0     0 -1.611467525E+02  2.663671233E+01  4.389615475E+02  4.847577029E+02  1.250000000E+02  0.00000E+00  9.000E+00
      25     1     1     2     0     0  1.600889292E+02 -1.169564174E+02  5.525890487E+02  6.002390570E+02  1.250000000E+02  0.00000E+00  9.000E+00
      21     1     1     2   501   512  1.057823320E+00  9.031970509E+01  6.547936730E+02  6.609943437E+02  1.078959322E-05  0.00000E+00  9.000E+00
#rwgt            1           1   3.8058664989992372E-002           1      375767           0
</event>
<event>
      5   9999  3.79277E-02  6.36791E+01 -1.00000E+00  1.33337E-01
      21    -1     0     0   502   501  0.000000000E+00  0.000000000E+00  3.856755878E+02  3.856755878E+02  0.000000000E+00  0.00000E+00  9.000E+00
      21    -1     0     0   511   502  0.000000000E+00  0.000000000E+00 -2.475223327E+02  2.475223327E+02  0.000000000E+00  0.00000E+00  9.000E+00
      25     1     1     2     0     0  2.060054714E+02 -4.352673420E+01  8.061595005E-01  2.448642087E+02  1.250000000E+02  0.00000E+00  9.000E+00
      25     1     1     2     0     0 -2.021568263E+02  1.070894633E+02  1.753483338E+02  3.141776149E+02  1.250000000E+02  0.00000E+00  9.000E+00
      21     1     1     2   511   501 -3.848645085E+00 -6.356272909E+01 -3.800123819E+01  7.415609686E+01  9.536743164E-07  0.00000E+00  9.000E+00
#rwgt            1           1   3.0296917934154677E-002           1      375860           0
</event>
<event>
      5   9999  3.79277E-02  5.40913E+01 -1.00000E+00  1.37154E-01
      21    -1     0     0   502   512  0.000000000E+00  0.000000000E+00  1.007573715E+02  1.007573715E+02  0.000000000E+00  0.00000E+00  9.000E+00
      21    -1     0     0   501   502  0.000000000E+00  0.000000000E+00 -5.506291010E+02  5.506291010E+02  0.000000000E+00  0.00000E+00  9.000E+00
      25     1     1     2     0     0 -1.056149709E+02 -1.300100506E+02 -2.566862871E+02  3.310135727E+02  1.250000000E+02  0.00000E+00  9.000E+00
      25     1     1     2     0     0  1.125677255E+02  7.636745008E+01 -1.917478426E+02  2.662624934E+02  1.250000000E+02  0.00000E+00  9.000E+00
      21     1     1     2   501   512 -6.952754552E+00  5.364260055E+01 -1.437599790E+00  5.411040641E+01  4.425419094E-07  0.00000E+00  9.000E+00
#rwgt            1           1   4.2065127953789194E-002           1      375962           0
</event>
<event>
      5   9999 -3.79277E-02  2.99537E+01 -1.00000E+00  1.53086E-01
      21    -1     0     0   502   511  0.000000000E+00  0.000000000E+00  1.977214283E+02  1.977214283E+02  0.000000000E+00  0.00000E+00  9.000E+00
      21    -1     0     0   501   502  0.000000000E+00  0.000000000E+00 -5.401659767E+02  5.401659767E+02  0.000000000E+00  0.00000E+00  9.000E+00
      25     1     1     2     0     0 -3.193100424E+01  2.065280534E+02 -1.141074005E+02  2.689217818E+02  1.250000000E+02  0.00000E+00  9.000E+00
      25     1     1     2     0     0  3.018589197E+01 -2.364308984E+02 -2.929098285E+02  3.977837672E+02  1.250000000E+02  0.00000E+00  9.000E+00
      21     1     1     2   501   511  1.745112269E+00  2.990284504E+01  6.457268057E+01  7.118185608E+01  9.536743164E-07  0.00000E+00  9.000E+00
#rwgt            1           1  -9.1724838975988557E-002           1      376037           0
</event>
<event>
      5   9999  3.79277E-02  6.89184E+01 -1.00000E+00  1.31564E-01
      21    -1     0     0   502   501  0.000000000E+00  0.000000000E+00  1.265754137E+02  1.265754137E+02  0.000000000E+00  0.00000E+00  9.000E+00
       2    -1     0     0   501     0  0.000000000E+00  0.000000000E+00 -1.880563424E+03  1.880563424E+03  0.000000000E+00  0.00000E+00  9.000E+00
      25     1     1     2     0     0 -2.141016084E+02 -1.709795642E+01 -3.423083148E+02  4.230033348E+02  1.250000000E+02  0.00000E+00  9.000E+00
      25     1     1     2     0     0  1.545506918E+02 -1.759251101E+01 -3.124540067E+01  2.019818998E+02  1.250000000E+02  0.00000E+00  9.000E+00
       2     1     1     2   502     0  5.955091660E+01  3.469046743E+01 -1.380434295E+03  1.382153603E+03  0.000000000E+00  0.00000E+00  9.000E+00
#rwgt            1           1   3.2467494080595162E-002           1      376115           0
</event>
<event>
      5   9999  3.79277E-02  5.04748E+01 -1.00000E+00  1.38842E-01
      21    -1     0     0   502   501  0.000000000E+00  0.000000000E+00  1.724650999E+03  1.724650999E+03  0.000000000E+00  0.00000E+00  9.000E+00
      21    -1     0     0   511   502  0.000000000E+00  0.000000000E+00 -5.060998904E+01  5.060998904E+01  0.000000000E+00  0.00000E+00  9.000E+00
      25     1     1     2     0     0  1.899560112E+01 -2.038781511E+02  5.298220797E+02  5.816043067E+02  1.250000000E+02  0.00000E+00  9.000E+00
      25     1     1     2     0     0 -3.342469448E+01  2.522466374E+02  1.038597449E+03  1.076594277E+03  1.250000000E+02  0.00000E+00  9.000E+00
      21     1     1     2   511   501  1.442909336E+01 -4.836848633E+01  1.056214811E+02  1.170624042E+02  2.336015456E-06  0.00000E+00  9.000E+00
#rwgt            1           1   4.7393070954527106E-002           1      376178           0
</event>
<event>
      5   9999  3.79277E-02  3.09206E+01 -1.00000E+00  1.52134E-01
      21    -1     0     0   502   501  0.000000000E+00  0.000000000E+00  6.154035082E+01  6.154035082E+01  0.000000000E+00  0.00000E+00  9.000E+00
      21    -1     0     0   501   512  0.000000000E+00  0.000000000E+00 -6.399463857E+02  6.399463857E+02  0.000000000E+00  0.00000E+00  9.000E+00
      25     1     1     2     0     0 -2.523728350E+01 -5.642826773E+01 -2.729171043E+02  3.064797150E+02  1.250000000E+02  0.00000E+00  9.000E+00
      25     1     1     2     0     0  1.344883665E+01  8.501355648E+01 -8.821143437E+01  1.755404032E+02  1.250000000E+02  0.00000E+00  9.000E+00
      21     1     1     2   502   512  1.178844685E+01 -2.858528875E+01 -2.172774963E+02  2.194666184E+02  2.697398305E-06  0.00000E+00  9.000E+00
#rwgt            1           1   5.9585690873393722E-002           1      376341           0
</event>
<event>
      5   9999  3.79277E-02  2.09214E+01 -1.00000E+00  1.64771E-01
      21    -1     0     0   502   501  0.000000000E+00  0.000000000E+00  1.851117122E+02  1.851117122E+02  0.000000000E+00  0.00000E+00  9.000E+00
      21    -1     0     0   501   511  0.000000000E+00  0.000000000E+00 -3.717396299E+02  3.717396299E+02  0.000000000E+00  0.00000E+00  9.000E+00
      25     1     1     2     0     0 -3.308855381E+01 -4.698539884E+01 -2.117114195E+02  2.524860496E+02  1.250000000E+02  0.00000E+00  9.000E+00
      25     1     1     2     0     0  4.251564552E+01  2.830831977E+01  1.359068339E+02  1.915844685E+02  1.250000000E+02  0.00000E+00  9.000E+00
      21     1     1     2   502   511 -9.427091714E+00  1.867707907E+01 -1.108233321E+02  1.127808240E+02  0.000000000E+00  0.00000E+00  9.000E+00
#rwgt            1           1   5.6692736277968586E-002           1      376464           0
</event>
<event>
      5   9999 -3.79277E-02  1.56928E+01 -1.00000E+00  1.75556E-01
      21    -1     0     0   502   501  0.000000000E+00  0.000000000E+00  8.450660709E+01  8.450660709E+01  0.000000000E+00  0.00000E+00  9.000E+00
      21    -1     0     0   512   502  0.000000000E+00  0.000000000E+00 -1.361206437E+03  1.361206437E+03  0.000000000E+00  0.00000E+00  9.000E+00
      25     1     1     2     0     0 -1.952431271E+01  2.453641907E+02 -2.585459767E+02  3.782271895E+02  1.250000000E+02  0.00000E+00  9.000E+00
      25     1     1     2     0     0  3.065493590E+01 -2.564263830E+02 -8.206458747E+02  8.693554317E+02  1.250000000E+02  0.00000E+00  9.000E+00
      21     1     1     2   512   501 -1.113062319E+01  1.106219231E+01 -1.975079781E+02  1.981304224E+02  2.697398305E-06  0.00000E+00  9.000E+00
#rwgt            1           1  -5.0572947598133411E-002           1      376676           0
</event>
<event>
      5   9999  3.79277E-02  2.52196E+01 -1.00000E+00  1.58467E-01
      21    -1     0     0   511   501  0.000000000E+00  0.000000000E+00  1.735093597E+02  1.735093597E+02  0.000000000E+00  0.00000E+00  9.000E+00
      21    -1     0     0   501   502  0.000000000E+00  0.000000000E+00 -1.172003173E+03  1.172003173E+03  0.000000000E+00  0.00000E+00  9.000E+00
      25     1     1     2     0     0  2.092305218E+02  3.101918898E+01 -8.101473825E+02  8.465833584E+02  1.250000000E+02  0.00000E+00  9.000E+00
      25     1     1     2     0     0 -1.853682496E+02 -3.918122389E+01 -3.046559622E+02  3.799168482E+02  1.250000000E+02  0.00000E+00  9.000E+00
      21     1     1     2   511   502 -2.386227218E+01  8.162034911E+00  1.163095310E+02  1.190123265E+02  2.336015456E-06  0.00000E+00  9.000E+00
#rwgt            1           1   4.3955796075558697E-002           1      376928           0
</event>
<event>
      5   9999  3.79277E-02  3.67647E+02 -1.00000E+00  1.02800E-01
      21    -1     0     0   502   501  0.000000000E+00  0.000000000E+00  8.106495341E+02  8.106495341E+02  0.000000000E+00  0.00000E+00  9.000E+00
      21    -1     0     0   512   502  0.000000000E+00  0.000000000E+00 -6.674497721E+02  6.674497721E+02  0.000000000E+00  0.00000E+00  9.000E+00
      25     1     1     2     0     0  2.453638254E+02 -2.780291069E+02  2.760619280E+02  4.788932858E+02  1.250000000E+02  0.00000E+00  9.000E+00
      25     1     1     2     0     0 -3.396388032E+02 -7.732476171E+01  2.667545744E+02  4.561980254E+02  1.250000000E+02  0.00000E+00  9.000E+00
      21     1     1     2   512   501  9.427497785E+01  3.553538686E+02 -3.996167405E+02  5.430079950E+02  0.000000000E+00  0.00000E+00  9.000E+00
#rwgt            2          11   2.0805724457271728E-003           1      377124           0
</event>
<event>
      5   9999  3.79277E-02  8.71003E+01 -1.00000E+00  1.26587E-01
      21    -1     0     0   502   501  0.000000000E+00  0.000000000E+00  3.101941692E+02  3.101941692E+02  0.000000000E+00  0.00000E+00  9.000E+00
      21    -1     0     0   501   511  0.000000000E+00  0.000000000E+00 -1.539623342E+03  1.539623342E+03  0.000000000E+00  0.00000E+00  9.000E+00
      25     1     1     2     0     0  1.531638432E+02 -6.401964326E+01  1.462273536E+02  2.540966676E+02  1.250000000E+02  0.00000E+00  9.000E+00
      25     1     1     2     0     0 -9.607636037E+01 -1.763931702E+00  5.153393069E+01  1.658750267E+02  1.250000000E+02  0.00000E+00  9.000E+00
      21     1     1     2   502   511 -5.708748280E+01  6.578357496E+01 -1.427190457E+03  1.429845817E+03  1.525878906E-05  0.00000E+00  9.000E+00
#rwgt            1           1   4.1072847811325849E-002           1      377159           0
</event>
<event>
      5   9999  3.79277E-02  2.68382E+01 -1.00000E+00  1.56477E-01
      21    -1     0     0   502   501  0.000000000E+00  0.000000000E+00  7.677020506E+02  7.677020506E+02  0.000000000E+00  0.00000E+00  9.000E+00
      21    -1     0     0   512   502  0.000000000E+00  0.000000000E+00 -7.781015123E+01  7.781015123E+01  0.000000000E+00  0.00000E+00  9.000E+00
      25     1     1     2     0     0  2.874858984E+01 -2.242829609E+01  6.501427519E+02  6.630536236E+02  1.250000000E+02  0.00000E+00  9.000E+00
      25     1     1     2     0     0 -5.234561464E+01  3.521384894E+01  5.631580684E+01  1.509190135E+02  1.250000000E+02  0.00000E+00  9.000E+00
      21     1     1     2   512   501  2.359702479E+01 -1.278555285E+01 -1.656665940E+01  3.153956475E+01  2.384185791E-07  0.00000E+00  9.000E+00
#rwgt            1           1   3.7725980349538217E-002           1      377240           0
</event>
<event>
      5   9999  3.79277E-02  1.68200E+01 -1.00000E+00  1.72823E-01
      21    -1     0     0   502   501  0.000000000E+00  0.000000000E+00  1.156471753E+02  1.156471753E+02  0.000000000E+00  0.00000E+00  9.000E+00
       1    -1     0     0   501     0  0.000000000E+00  0.000000000E+00 -1.281004082E+03  1.281004082E+03  0.000000000E+00  0.00000E+00  9.000E+00
      25     1     1     2     0     0  2.906830831E+01  1.561917249E+02 -1.227291533E+02  2.364915782E+02  1.250000000E+02  0.00000E+00  9.000E+00
      25     1     1     2     0     0 -1.228014731E+01 -1.551568872E+02 -1.110553576E+02  2.284354485E+02  1.250000000E+02  0.00000E+00  9.000E+00
       1     1     1     2   502     0 -1.678816100E+01 -1.034837724E+00 -9.315723957E+02  9.317242304E+02  0.000000000E+00  0.00000E+00  9.000E+00
#rwgt            1           1   2.8907638045983911E-002           1      377603           0
</event>
<event>
      5   9999  3.79277E-02  3.65782E+00 -1.00000E+00  2.72970E-01
      21    -1     0     0   502   501  0.000000000E+00  0.000000000E+00  4.133852757E+02  4.133852757E+02  0.000000000E+00  0.00000E+00  9.000E+00
      21    -1     0     0   501   511  0.000000000E+00  0.000000000E+00 -3.200468673E+02  3.200468673E+02  0.000000000E+00  0.00000E+00  9.000E+00
      25     1     1     2     0     0 -7.966258899E+01  1.847996599E+02  7.784453821E+01  2.493628170E+02  1.250000000E+02  0.00000E+00  9.000E+00
      25     1     1     2     0     0  8.145827557E+01 -1.816129456E+02  1.944667574E+02  3.050590638E+02  1.250000000E+02  0.00000E+00  9.000E+00
      21     1     1     2   502   511 -1.795686579E+00 -3.186714286E+00 -1.789728872E+02  1.790102622E+02  0.000000000E+00  0.00000E+00  9.000E+00
#rwgt            1           1   2.4451964944211414E-002           1      377795           0
</event>
<event>
      5   9999  3.79277E-02  1.77179E+01 -1.00000E+00  1.70831E-01
       1    -1     0     0   502     0  0.000000000E+00  0.000000000E+00  6.968069426E+02  6.968069426E+02  0.000000000E+00  0.00000E+00  9.000E+00
      21    -1     0     0   501   502  0.000000000E+00  0.000000000E+00 -2.431921681E+02  2.431921681E+02  0.000000000E+00  0.00000E+00  9.000E+00
      25     1     1     2     0     0 -3.391991452E+01  1.219182819E+02  3.921996734E+01  1.821478353E+02  1.250000000E+02  0.00000E+00  9.000E+00
      25     1     1     2     0     0  2.129632685E+01 -1.094857708E+02 -1.306923411E+02  2.124762471E+02  1.250000000E+02  0.00000E+00  9.000E+00
       1     1     1     2   501     0  1.262358767E+01 -1.243251112E+01  5.450871483E+02  5.453750284E+02  7.629394531E-06  0.00000E+00  9.000E+00
#rwgt            1           1   3.2775721938808573E-002           1      378209           0
</event>
<event>
      5   9999  3.79277E-02  8.88360E+01 -1.00000E+00  1.26185E-01
      21    -1     0     0   502   511  0.000000000E+00  0.000000000E+00  4.547249261E+02  4.547249261E+02  0.000000000E+00  0.00000E+00  9.000E+00
      21    -1     0     0   501   502  0.000000000E+00  0.000000000E+00 -1.525147284E+02  1.525147284E+02  0.000000000E+00  0.00000E+00  9.000E+00
      25     1     1     2     0     0  8.237527061E+01  9.889064480E+01 -2.763863503E+01  1.815321982E+02  1.250000000E+02  0.00000E+00  9.000E+00
      25     1     1     2     0     0 -4.614283057E+01 -1.777928532E+01  7.096897425E+01  1.520094047E+02  1.250000000E+02  0.00000E+00  9.000E+00
      21     1     1     2   501   511 -3.623244004E+01 -8.111135949E+01  2.588798585E+02  2.736980516E+02  3.814697266E-06  0.00000E+00  9.000E+00
#rwgt            1           1   5.3427735602668801E-002           1      378542           0
</event>
<event>
      5   9999  3.79277E-02  7.18880E+01 -1.00000E+00  1.30638E-01
      21    -1     0     0   502   512  0.000000000E+00  0.000000000E+00  2.832254027E+02  2.832254027E+02  0.000000000E+00  0.00000E+00  9.000E+00
      21    -1     0     0   501   502  0.000000000E+00  0.000000000E+00 -4.958023199E+02  4.958023199E+02  0.000000000E+00  0.00000E+00  9.000E+00
      25     1     1     2     0     0  1.786073861E+01 -1.550795900E+02 -2.527572151E+02  3.223040413E+02  1.250000000E+02  0.00000E+00  9.000E+00
      25     1     1     2     0     0 -8.973922856E+01  1.539089256E+02 -1.426816487E+02  2.602386201E+02  1.250000000E+02  0.00000E+00  9.000E+00
      21     1     1     2   501   512  7.187848995E+01  1.170664397E+00  1.828619465E+02  1.964850612E+02  0.000000000E+00  0.00000E+00  9.000E+00
#rwgt            1           1   2.9194238797735379E-002           1      378642           0
</event>
<event>
      5   9999  3.79277E-02  3.04364E+02 -1.00000E+00  1.05389E-01
      21    -1     0     0   502   511  0.000000000E+00  0.000000000E+00  1.008950051E+03  1.008950051E+03  0.000000000E+00  0.00000E+00  9.000E+00
      21    -1     0     0   501   502  0.000000000E+00  0.000000000E+00 -2.577030851E+03  2.577030851E+03  0.000000000E+00  0.00000E+00  9.000E+00
      25     1     1     2     0     0 -3.072289393E+02  3.085873304E+02 -7.688039075E+02  8.923565486E+02  1.250000000E+02  0.00000E+00  9.000E+00
      25     1     1     2     0     0  3.454879130E+00 -2.896457094E+02 -1.707167534E+03  1.736073893E+03  1.250000000E+02  0.00000E+00  9.000E+00
      21     1     1     2   501   511  3.037740602E+02 -1.894162097E+01  9.078906426E+02  9.575504601E+02  1.525878906E-05  0.00000E+00  9.000E+00
#rwgt            2          11   2.8312440911224243E-002           1      378825           0
</event>
<event>
      5   9999  3.79277E-02  4.63953E+01 -1.00000E+00  1.40955E-01
      21    -1     0     0   502   501  0.000000000E+00  0.000000000E+00  5.527501315E+02  5.527501315E+02  0.000000000E+00  0.00000E+00  9.000E+00
      21    -1     0     0   512   502  0.000000000E+00  0.000000000E+00 -3.655344834E+02  3.655344834E+02  0.000000000E+00  0.00000E+00  9.000E+00
      25     1     1     2     0     0  7.686217723E+01 -3.374637680E+01  4.299439079E+02  4.555473369E+02  1.250000000E+02  0.00000E+00  9.000E+00
      25     1     1     2     0     0 -1.170774126E+02  1.061061863E+01  4.002678836E+01  1.762011622E+02  1.250000000E+02  0.00000E+00  9.000E+00
      21     1     1     2   512   501  4.021523535E+01  2.313575818E+01 -2.827550481E+02  2.865361158E+02  3.814697266E-06  0.00000E+00  9.000E+00
#rwgt            1           1   3.6667489704530404E-002           1      378980           0
</event>
<event>
      5   9999  3.79277E-02  3.98732E+01 -1.00000E+00  1.44926E-01
      21    -1     0     0   502   511  0.000000000E+00  0.000000000E+00  1.090210326E+02  1.090210326E+02  0.000000000E+00  0.00000E+00  9.000E+00
      21    -1     0     0   501   502  0.000000000E+00  0.000000000E+00 -1.071618656E+03  1.071618656E+03  0.000000000E+00  0.00000E+00  9.000E+00
      25     1     1     2     0     0 -1.828652794E+02  1.263662451E+02 -2.153507020E+02  3.337799622E+02  1.250000000E+02  0.00000E+00  9.000E+00
      25     1     1     2     0     0  2.165121110E+02 -1.049708863E+02 -7.584346201E+02  8.054467420E+02  1.250000000E+02  0.00000E+00  9.000E+00
      21     1     1     2   501   511 -3.364683156E+01 -2.139535882E+01  1.118769895E+01  4.141298420E+01  1.221531721E-06  0.00000E+00  9.000E+00
#rwgt            1           1   3.4473460101386806E-002           1      379073           0
</event>
<event>
      5   9999  3.79277E-02  4.28653E+01 -1.00000E+00  1.43001E-01
      21    -1     0     0   502   501  0.000000000E+00  0.000000000E+00  2.740323829E+03  2.740323829E+03  0.000000000E+00  0.00000E+00  9.000E+00
      21    -1     0     0   501   512  0.000000000E+00  0.000000000E+00 -2.049985333E+01  2.049985333E+01  0.000000000E+00  0.00000E+00  9.000E+00
      25     1     1     2     0     0 -4.490244497E+01  6.636036832E+01  3.886072201E+02  4.160054081E+02  1.250000000E+02  0.00000E+00  9.000E+00
      25     1     1     2     0     0  8.714723694E+01 -5.909317031E+01  2.213747689E+03  2.219772618E+03  1.250000000E+02  0.00000E+00  9.000E+00
      21     1     1     2   502   512 -4.224479197E+01 -7.267198005E+00  1.174690663E+02  1.250456563E+02  3.015782986E-06  0.00000E+00  9.000E+00
#rwgt            1           1   7.2309805831702378E-002           1      379226           0
</event>
<event>
      5   9999  3.79277E-02  1.72424E+01 -1.00000E+00  1.71867E-01
      21    -1     0     0   511   501  0.000000000E+00  0.000000000E+00  6.238314043E+02  6.238314043E+02  0.000000000E+00  0.00000E+00  9.000E+00
      21    -1     0     0   501   502  0.000000000E+00  0.000000000E+00 -1.755594850E+02  1.755594850E+02  0.000000000E+00  0.00000E+00  9.000E+00
      25     1     1     2     0     0  4.882484151E+01 -9.297831601E+01 -4.474926281E+01  1.692818033E+02  1.250000000E+02  0.00000E+00  9.000E+00
      25     1     1     2     0     0 -6.191407771E+01  1.042021029E+02  4.246056759E+01  1.792186683E+02  1.250000000E+02  0.00000E+00  9.000E+00
      21     1     1     2   511   502  1.308923620E+01 -1.122378687E+01  4.505606145E+02  4.508904178E+02  5.394796609E-06  0.00000E+00  9.000E+00
#rwgt            1           1   5.3696085127245526E-003           1      379353           0
</event>
<event>
      5   9999  3.79277E-02  8.46386E+00 -1.00000E+00  2.04521E-01
      21    -1     0     0   502   512  0.000000000E+00  0.000000000E+00  2.558702515E+02  2.558702515E+02  0.000000000E+00  0.00000E+00  9.000E+00
      21    -1     0     0   501   502  0.000000000E+00  0.000000000E+00 -3.087766612E+02  3.087766612E+02  0.000000000E+00  0.00000E+00  9.000E+00
      25     1     1     2     0     0 -1.005967784E+02  3.042801101E+01 -2.545257359E+02  3.024135015E+02  1.250000000E+02  0.00000E+00  9.000E+00
      25     1     1     2     0     0  9.219877227E+01 -3.148179830E+01  1.851421455E+02  2.437095223E+02  1.250000000E+02  0.00000E+00  9.000E+00
      21     1     1     2   501   512  8.398006089E+00  1.053787286E+00  1.647718070E+01  1.852388884E+01  4.129530925E-07  0.00000E+00  9.000E+00
#rwgt            1           1   2.8094576662540845E-002           1      379546           0
</event>
<event>
      5   9999  3.79277E-02  1.43876E+02 -1.00000E+00  1.17116E-01
      21    -1     0     0   502   501  0.000000000E+00  0.000000000E+00  1.543443695E+02  1.543443695E+02  0.000000000E+00  0.00000E+00  9.000E+00
      21    -1     0     0   511   502  0.000000000E+00  0.000000000E+00 -5.047965104E+02  5.047965104E+02  0.000000000E+00  0.00000E+00  9.000E+00
      25     1     1     2     0     0 -3.711678167E+01  7.809771867E+01  3.355452834E+01  1.556528686E+02  1.250000000E+02  0.00000E+00  9.000E+00
      25     1     1     2     0     0 -9.889747093E+01 -3.118871037E+01 -2.876238478E+02  3.303118576E+02  1.250000000E+02  0.00000E+00  9.000E+00
      21     1     1     2   511   501  1.360142526E+02 -4.690900831E+01 -9.638282138E+01  1.731761537E+02  1.907348633E-06  0.00000E+00  9.000E+00
#rwgt            1           1   2.0221457204056308E-002           1      380057           0
</event>
<event>
      5   9999  3.79277E-02  4.89141E+01 -1.00000E+00  1.39622E-01
      21    -1     0     0   502   501  0.000000000E+00  0.000000000E+00  5.551212820E+02  5.551212820E+02  0.000000000E+00  0.00000E+00  9.000E+00
       2    -1     0     0   501     0  0.000000000E+00  0.000000000E+00 -1.680392250E+02  1.680392250E+02  0.000000000E+00  0.00000E+00  9.000E+00
      25     1     1     2     0     0 -6.631724597E+01  5.380396366E+01  7.870188061E+01  1.706218908E+02  1.250000000E+02  0.00000E+00  9.000E+00
      25     1     1     2     0     0  4.322160535E+01 -1.068576321E+01  4.147509748E+02  4.354602896E+02  1.250000000E+02  0.00000E+00  9.000E+00
       2     1     1     2   502     0  2.309564062E+01 -4.311820046E+01 -1.063707983E+02  1.170783266E+02  2.697398305E-06  0.00000E+00  9.000E+00
#rwgt            1           1   4.3882757081498101E-002           1      380242           0
</event>
<event>
      5   9999  3.79277E-02  8.61666E+01 -1.00000E+00  1.26808E-01
      21    -1     0     0   502   501  0.000000000E+00  0.000000000E+00  4.111186337E+02  4.111186337E+02  0.000000000E+00  0.00000E+00  9.000E+00
      21    -1     0     0   511   502  0.000000000E+00  0.000000000E+00 -1.841513748E+02  1.841513748E+02  0.000000000E+00  0.00000E+00  9.000E+00
      25     1     1     2     0     0  1.518695796E+02 -9.902665499E+01  4.308722881E+01  2.243928628E+02  1.250000000E+02  0.00000E+00  9.000E+00
      25     1     1     2     0     0 -1.697084497E+02  1.472682372E+01  1.904586942E+02  2.844597536E+02  1.250000000E+02  0.00000E+00  9.000E+00
      21     1     1     2   511   501  1.783887015E+01  8.429983126E+01 -6.578664092E+00  8.641739211E+01  1.253115895E-06  0.00000E+00  9.000E+00
#rwgt            1           1   3.6281995974855923E-002           1      380439           0
</event>
<event>
      5   9999  3.79277E-02  1.17550E+01 -1.00000E+00  1.87975E-01
      21    -1     0     0   502   501  0.000000000E+00  0.000000000E+00  3.101544127E+02  3.101544127E+02  0.000000000E+00  0.00000E+00  9.000E+00
      21    -1     0     0   512   502  0.000000000E+00  0.000000000E+00 -1.800519973E+02  1.800519973E+02  0.000000000E+00  0.00000E+00  9.000E+00
      25     1     1     2     0     0  6.749704019E+01  9.004612292E+01 -6.722513722E+01  1.811308195E+02  1.250000000E+02  0.00000E+00  9.000E+00
      25     1     1     2     0     0 -7.593094882E+01 -9.823454659E+01  2.210071395E+02  2.826387992E+02  1.250000000E+02  0.00000E+00  9.000E+00
      21     1     1     2   512   501  8.433908636E+00  8.188423667E+00 -2.367958687E+01  2.643679124E+01  3.371747881E-07  0.00000E+00  9.000E+00
#rwgt            1           1   3.9898689329693926E-002           1      380560           0
</event>
<event>
      5   9999  3.79277E-02  4.00574E+01 -1.00000E+00  1.44802E-01
      21    -1     0     0   511   501  0.000000000E+00  0.000000000E+00  1.355465013E+03  1.355465013E+03  0.000000000E+00  0.00000E+00  9.000E+00
      21    -1     0     0   501   502  0.000000000E+00  0.000000000E+00 -8.457250279E+01  8.457250279E+01  0.000000000E+00  0.00000E+00  9.000E+00
      25     1     1     2     0     0 -2.863575610E+01  6.818472594E+01  5.470368630E+02  5.659889512E+02  1.250000000E+02  0.00000E+00  9.000E+00
      25     1     1     2     0     0  3.798515001E+00 -9.961248251E+01  1.120563355E+01  1.602736460E+02  1.250000000E+02  0.00000E+00  9.000E+00
      21     1     1     2   511   502  2.483724110E+01  3.142775657E+01  7.126500140E+02  7.137749190E+02  0.000000000E+00  0.00000E+00  9.000E+00
#rwgt            1           1   4.6124227808752881E-002           1      380791           0
</event>
<event>
      5   9999  3.79277E-02  6.28266E+01 -1.00000E+00  1.33644E-01
      21    -1     0     0   502   501  0.000000000E+00  0.000000000E+00  2.545154788E+02  2.545154788E+02  0.000000000E+00  0.00000E+00  9.000E+00
      21    -1     0     0   512   502  0.000000000E+00  0.000000000E+00 -5.223235302E+02  5.223235302E+02  0.000000000E+00  0.00000E+00  9.000E+00
      25     1     1     2     0     0  3.081083437E+01  9.538874294E+01 -1.551204214E+02  2.230149433E+02  1.250000000E+02  0.00000E+00  9.000E+00
      25     1     1     2     0     0 -7.764728137E+01 -1.372639029E+02  1.704986348E+02  2.637522774E+02  1.250000000E+02  0.00000E+00  9.000E+00
      21     1     1     2   512   501  4.683644699E+01  4.187515996E+01 -2.831862648E+02  2.900717883E+02  3.814697266E-06  0.00000E+00  9.000E+00
#rwgt            1           1   5.3192758286940103E-002           1      381075           0
</event>
<event>
      5   9999  3.79277E-02  3.83983E+01 -1.00000E+00  1.45950E-01
      21    -1     0     0   502   511  0.000000000E+00  0.000000000E+00  2.136599157E+02  2.136599157E+02  0.000000000E+00  0.00000E+00  9.000E+00
      21    -1     0     0   501   502  0.000000000E+00  0.000000000E+00 -2.762308362E+02  2.762308362E+02  0.000000000E+00  0.00000E+00  9.000E+00
      25     1     1     2     0     0  1.630133723E+02  1.082958428E+02 -5.659496708E+00  2.322894295E+02  1.250000000E+02  0.00000E+00  9.000E+00
      25     1     1     2     0     0 -1.248340979E+02 -1.042007493E+02 -7.048532799E+01  2.168744559E+02  1.250000000E+02  0.00000E+00  9.000E+00
      21     1     1     2   501   511 -3.817927443E+01 -4.095093571E+00  1.357390419E+01  4.072686659E+01  4.460403188E-07  0.00000E+00  9.000E+00
#rwgt            1           1   4.7893411935286394E-002           1      381185           0
</event>
<event>
      5   9999  3.79277E-02  3.85085E+01 -1.00000E+00  1.45871E-01
      21    -1     0     0   502   501  0.000000000E+00  0.000000000E+00  1.562868771E+02  1.562868771E+02  0.000000000E+00  0.00000E+00  9.000E+00
      21    -1     0     0   512   502  0.000000000E+00  0.000000000E+00 -4.079901430E+02  4.079901430E+02  0.000000000E+00  0.00000E+00  9.000E+00
      25     1     1     2     0     0  7.964262555E+01 -1.662905228E+02 -4.409298386E+01  2.270785701E+02  1.250000000E+02  0.00000E+00  9.000E+00
      25     1     1     2     0     0 -1.126684816E+02  1.464865483E+02 -1.536160776E+02  2.708789303E+02  1.250000000E+02  0.00000E+00  9.000E+00
      21     1     1     2   512   501  3.302585606E+01  1.980397448E+01 -5.399420442E+01  6.631951964E+01  1.348699152E-06  0.00000E+00  9.000E+00
#rwgt            1           1   4.0331387130428470E-002           1      381332           0
</event>
<event>
      5   9999  4.08257E-02  3.79816E+01 -1.00000E+00  1.46249E-01
      21    -1     0     0   502   501  0.000000000E+00  0.000000000E+00  3.060954358E+02  3.060954358E+02  0.000000000E+00  0.00000E+00  9.000E+00
      21    -1     0     0   501   511  0.000000000E+00  0.000000000E+00 -5.355318416E+02  5.355318416E+02  0.000000000E+00  0.00000E+00  9.000E+00
      25     1     1     2     0     0  2.371708766E+02 -2.071043824E+02 -3.241302325E+02  4.688578223E+02  1.250000000E+02  0.00000E+00  9.000E+00
      25     1     1     2     0     0 -1.991906897E+02  2.074288406E+02  1.092988286E+02  3.320766308E+02  1.250000000E+02  0.00000E+00  9.000E+00
      21     1     1     2   502   511 -3.798018688E+01 -3.244582302E-01 -1.460500186E+01  4.069282428E+01  1.066240300E-06  0.00000E+00  9.000E+00
#rwgt            1           1  0.45899830062306751                1      381519           0
</event>
<event>
      5   9999 -3.79277E-02  5.48470E+01 -1.00000E+00  1.36821E-01
      21    -1     0     0   502   501  0.000000000E+00  0.000000000E+00  1.684218727E+03  1.684218727E+03  0.000000000E+00  0.00000E+00  9.000E+00
      21    -1     0     0   501   512  0.000000000E+00  0.000000000E+00 -8.565293028E+01  8.565293028E+01  0.000000000E+00  0.00000E+00  9.000E+00
      25     1     1     2     0     0  4.406156991E+01 -1.016310782E+02  3.700009728E+02  4.059507579E+02  1.250000000E+02  0.00000E+00  9.000E+00
      25     1     1     2     0     0  1.028730302E+01  1.090059813E+02  1.278796266E+03  1.289547604E+03  1.250000000E+02  0.00000E+00  9.000E+00
      21     1     1     2   502   512 -5.434887294E+01 -7.374903134E+00 -5.023144259E+01  7.437329501E+01  3.371747881E-06  0.00000E+00  9.000E+00
#rwgt            1           1  -3.9244154489068747E-002           1      381675           0
</event>
<event>
      5   9999  3.79277E-02  2.31288E+01 -1.00000E+00  1.61324E-01
       1    -1     0     0   502     0  0.000000000E+00  0.000000000E+00  1.177459323E+03  1.177459323E+03  0.000000000E+00  0.00000E+00  9.000E+00
      21    -1     0     0   501   502  0.000000000E+00  0.000000000E+00 -1.278369440E+02  1.278369440E+02  0.000000000E+00  0.00000E+00  9.000E+00
      25     1     1     2     0     0  1.710873939E+02 -3.271885436E+01  7.100939840E+02  7.417545995E+02  1.250000000E+02  0.00000E+00  9.000E+00
      25     1     1     2     0     0 -1.766003889E+02  1.025673517E+01 -6.537223492E+00  2.167040222E+02  1.250000000E+02  0.00000E+00  9.000E+00
       1     1     1     2   501     0  5.512994961E+00  2.246211920E+01  3.460656187E+02  3.468376455E+02  0.000000000E+00  0.00000E+00  9.000E+00
#rwgt            1           1   4.9061146346139006E-002           1      381850           0
</event>
<event>
      5   9999  3.79277E-02  2.37522E+01 -1.00000E+00  1.60435E-01
      21    -1     0     0   502   501  0.000000000E+00  0.000000000E+00  4.310300838E+02  4.310300838E+02  0.000000000E+00  0.00000E+00  9.000E+00
      21    -1     0     0   511   502  0.000000000E+00  0.000000000E+00 -1.804523160E+02  1.804523160E+02  0.000000000E+00  0.00000E+00  9.000E+00
      25     1     1     2     0     0  8.475112241E+01 -1.395267082E+02  3.103449375E+02  3.722760203E+02  1.250000000E+02  0.00000E+00  9.000E+00
      25     1     1     2     0     0 -1.003496843E+02  1.216144207E+02 -3.382397722E+01  2.040323207E+02  1.250000000E+02  0.00000E+00  9.000E+00
      21     1     1     2   511   501  1.559856186E+01  1.791228748E+01 -2.594319243E+01  3.517405874E+01  3.371747881E-07  0.00000E+00  9.000E+00
#rwgt            1           1   4.0924808301705591E-002           1      382082           0
</event>
<event>
      5   9999  3.79277E-02  4.57305E+01 -1.00000E+00  1.41324E-01
      21    -1     0     0   512   501  0.000000000E+00  0.000000000E+00  6.752730406E+01  6.752730406E+01  0.000000000E+00  0.00000E+00  9.000E+00
      21    -1     0     0   501   502  0.000000000E+00  0.000000000E+00 -8.061019231E+02  8.061019231E+02  0.000000000E+00  0.00000E+00  9.000E+00
      25     1     1     2     0     0 -1.600277408E+02  4.355314013E+01 -4.499925068E+02  4.956046913E+02  1.250000000E+02  0.00000E+00  9.000E+00
      25     1     1     2     0     0  1.451495161E+02 -3.105848699E-01 -2.637958274E+02  3.260087683E+02  1.250000000E+02  0.00000E+00  9.000E+00
      21     1     1     2   512   502  1.487822475E+01 -4.324255526E+01 -2.478628482E+01  5.201576754E+01  6.743495762E-07  0.00000E+00  9.000E+00
#rwgt            1           1   3.4717310621465276E-002           1      382281           0
</event>
<event>
      5   9999  3.79277E-02  1.88353E+01 -1.00000E+00  1.68548E-01
      21    -1     0     0   502   511  0.000000000E+00  0.000000000E+00  3.940520182E+01  3.940520182E+01  0.000000000E+00  0.00000E+00  9.000E+00
      21    -1     0     0   501   502  0.000000000E+00  0.000000000E+00 -1.424795601E+03  1.424795601E+03  0.000000000E+00  0.00000E+00  9.000E+00
      25     1     1     2     0     0  7.038334757E+00 -1.818483960E+02 -7.821976669E+02  8.127586157E+02  1.250000000E+02  0.00000E+00  9.000E+00
      25     1     1     2     0     0  1.079657929E+01  1.879052424E+02 -5.719529620E+02  6.149635249E+02  1.250000000E+02  0.00000E+00  9.000E+00
      21     1     1     2   501   511 -1.783491404E+01 -6.056846441E+00 -3.123977022E+01  3.647866213E+01  0.000000000E+00  0.00000E+00  9.000E+00
#rwgt            1           1   3.2714733854018054E-002           1      382398           0
</event>
<event>
      5   9999  3.79277E-02  5.67680E+01 -1.00000E+00  1.36001E-01
      21    -1     0     0   512   501  0.000000000E+00  0.000000000E+00  1.768782818E+02  1.768782818E+02  0.000000000E+00  0.00000E+00  9.000E+00
      21    -1     0     0   501   502  0.000000000E+00  0.000000000E+00 -3.445176082E+02  3.445176082E+02  0.000000000E+00  0.00000E+00  9.000E+00
      25     1     1     2     0     0 -4.914588923E+01 -4.696217306E+01 -1.498168003E+02  2.066176124E+02  1.250000000E+02  0.00000E+00  9.000E+00
      25     1     1     2     0     0  8.544474401E+01  9.060842041E+01 -1.089768342E+02  2.073924794E+02  1.250000000E+02  0.00000E+00  9.000E+00
      21     1     1     2   512   502 -3.629885478E+01 -4.364624735E+01  9.115430801E+01  1.073857981E+02  1.907348633E-06  0.00000E+00  9.000E+00
#rwgt            1           1   4.2630117631032971E-002           1      382576           0
</event>
<event>
      5   9999  3.79277E-02  5.92991E+01 -1.00000E+00  1.34977E-01
      21    -1     0     0   502   501  0.000000000E+00  0.000000000E+00  1.101414875E+03  1.101414875E+03  0.000000000E+00  0.00000E+00  9.000E+00
      21    -1     0     0   501   511  0.000000000E+00  0.000000000E+00 -6.914249991E+01  6.914249991E+01  0.000000000E+00  0.00000E+00  9.000E+00
      25     1     1     2     0     0 -1.490440832E+02  1.022791604E+02  3.706026182E+02  4.308671095E+02  1.250000000E+02  0.00000E+00  9.000E+00
      25     1     1     2     0     0  1.850700064E+02 -5.517807506E+01  6.336269835E+02  6.740947126E+02  1.250000000E+02  0.00000E+00  9.000E+00
      21     1     1     2   502   511 -3.602592316E+01 -4.710108538E+01  2.804277283E+01  6.559555238E+01  8.259061849E-07  0.00000E+00  9.000E+00
#rwgt            1           1  0.24550186485211331                1      382754           0
</event>
<event>
      5   9999  3.79277E-02  4.54178E+01 -1.00000E+00  1.41500E-01
      21    -1     0     0   502   501  0.000000000E+00  0.000000000E+00  2.629665083E+02  2.629665083E+02  0.000000000E+00  0.00000E+00  9.000E+00
      21    -1     0     0   501   512  0.000000000E+00  0.000000000E+00 -1.657046862E+02  1.657046862E+02  0.000000000E+00  0.00000E+00  9.000E+00
      25     1     1     2     0     0  4.356195256E+01  3.748581012E+01 -1.987314233E+01  1.390063720E+02  1.250000000E+02  0.00000E+00  9.000E+00
      25     1     1     2     0     0  1.364368720E+00 -4.414921780E+01  1.728155573E+02  2.178100819E+02  1.250000000E+02  0.00000E+00  9.000E+00
      21     1     1     2   502   512 -4.492632128E+01  6.663407684E+00 -5.568059276E+01  7.185474066E+01  1.348699152E-06  0.00000E+00  9.000E+00
#rwgt            2          11   8.9093836106673150E-004           1      382950           0
</event>
<event>
      5   9999  3.79277E-02  3.30987E+01 -1.00000E+00  1.50133E-01
      21    -1     0     0   502   501  0.000000000E+00  0.000000000E+00  6.876588539E+01  6.876588539E+01  0.000000000E+00  0.00000E+00  9.000E+00
      21    -1     0     0   501   511  0.000000000E+00  0.000000000E+00 -9.732413659E+02  9.732413659E+02  0.000000000E+00  0.00000E+00  9.000E+00
      25     1     1     2     0     0  1.539086797E+02 -1.205662541E+02 -3.496635828E+02  4.196590574E+02  1.250000000E+02  0.00000E+00  9.000E+00
      25     1     1     2     0     0 -1.257402889E+02  1.031862843E+02 -2.885656491E+02  3.540524867E+02  1.250000000E+02  0.00000E+00  9.000E+00
      21     1     1     2   502   511 -2.816839087E+01  1.737996985E+01 -2.662462486E+02  2.682957072E+02  6.607249480E-06  0.00000E+00  9.000E+00
#rwgt            1           1   7.3284187907622769E-002           1      383045           0
</event>
<event>
      5   9999  3.79277E-02  7.40648E+01 -1.00000E+00  1.29991E-01
      21    -1     0     0   502   501  0.000000000E+00  0.000000000E+00  2.270437079E+02  2.270437079E+02  0.000000000E+00  0.00000E+00  9.000E+00
      21    -1     0     0   512   502  0.000000000E+00  0.000000000E+00 -2.659370373E+02  2.659370373E+02  0.000000000E+00  0.00000E+00  9.000E+00
      25     1     1     2     0     0  2.194775391E+01 -1.764059564E+02 -2.149967365E+01  2.183758258E+02  1.250000000E+02  0.00000E+00  9.000E+00
      25     1     1     2     0     0 -5.713075706E+01  1.112311353E+02  3.955256090E+01  1.811786244E+02  1.250000000E+02  0.00000E+00  9.000E+00
      21     1     1     2   512   501  3.518300315E+01  6.517482104E+01 -5.694621659E+01  9.342629497E+01  6.743495762E-07  0.00000E+00  9.000E+00
#rwgt            1           1   1.7360659458228012E-002           1      383163           0
</event>
<event>
      5   9999  3.79277E-02  4.48029E+01 -1.00000E+00  1.41851E-01
      21    -1     0     0   511   501  0.000000000E+00  0.000000000E+00  2.450373819E+02  2.450373819E+02  0.000000000E+00  0.00000E+00  9.000E+00
      21    -1     0     0   501   502  0.000000000E+00  0.000000000E+00 -2.116734388E+02  2.116734388E+02  0.000000000E+00  0.00000E+00  9.000E+00
      25     1     1     2     0     0  1.389670995E+02  5.976999965E+01 -5.558143578E+01  2.039573573E+02  1.250000000E+02  0.00000E+00  9.000E+00
      25     1     1     2     0     0 -9.855263310E+01 -7.910835571E+01  3.251709418E+01  1.807017290E+02  1.250000000E+02  0.00000E+00  9.000E+00
      21     1     1     2   511   502 -4.041446638E+01  1.933835606E+01  5.642828474E+01  7.205173438E+01  6.743495762E-07  0.00000E+00  9.000E+00
#rwgt            1           1   3.6489490714209399E-002           1      383296           0
</event>
<event>
      5   9999  3.79277E-02  4.81336E+01 -1.00000E+00  1.40025E-01
      21    -1     0     0   502   512  0.000000000E+00  0.000000000E+00  2.608204669E+02  2.608204669E+02  0.000000000E+00  0.00000E+00  9.000E+00
      21    -1     0     0   501   502  0.000000000E+00  0.000000000E+00 -5.948292390E+02  5.948292390E+02  0.000000000E+00  0.00000E+00  9.000E+00
      25     1     1     2     0     0 -2.453546885E+02  3.704368294E+01  4.901750554E+01  2.821327232E+02  1.250000000E+02  0.00000E+00  9.000E+00
      25     1     1     2     0     0  2.929420880E+02 -2.981295091E+01 -4.086689659E+02  5.189790002E+02  1.250000000E+02  0.00000E+00  9.000E+00
      21     1     1     2   501   512 -4.758739949E+01 -7.230732023E+00  2.564268826E+01  5.453798252E+01  0.000000000E+00  0.00000E+00  9.000E+00
#rwgt            1           1  0.11226016178591285                1      383478           0
</event>
<event>
      5   9999  3.79277E-02  5.86195E+01 -1.00000E+00  1.35246E-01
      21    -1     0     0   502   511  0.000000000E+00  0.000000000E+00  5.086055471E+02  5.086055471E+02  0.000000000E+00  0.00000E+00  9.000E+00
      21    -1     0     0   501   502  0.000000000E+00  0.000000000E+00 -8.541596168E+01  8.541596168E+01  0.000000000E+00  0.00000E+00  9.000E+00
      25     1     1     2     0     0  3.070908011E+01 -2.351990074E+01  1.012608030E+01  1.312393647E+02  1.250000000E+02  0.00000E+00  9.000E+00
      25     1     1     2     0     0 -1.222753837E+00  7.418346702E+01  3.348470824E+02  3.650373276E+02  1.250000000E+02  0.00000E+00  9.000E+00
      21     1     1     2   501   511 -2.948632627E+01 -5.066356627E+01  7.821642271E+01  9.774481657E+01  1.348699152E-06  0.00000E+00  9.000E+00
#rwgt            1           1   4.2743085670643832E-002           1      383656           0
</event>
<event>
      5   9999  3.79277E-02  2.41265E+01 -1.00000E+00  1.59917E-01
      21    -1     0     0   502   501  0.000000000E+00  0.000000000E+00  3.199713876E+02  3.199713876E+02  0.000000000E+00  0.00000E+00  9.000E+00
      21    -1     0     0   501   512  0.000000000E+00  0.000000000E+00 -2.808158702E+03  2.808158702E+03  0.000000000E+00  0.00000E+00  9.000E+00
      25     1     1     2     0     0 -1.384564649E+02 -1.766798135E+02  1.050033232E+02  2.775547640E+02  1.250000000E+02  0.00000E+00  9.000E+00
      25     1     1     2     0     0  1.226147121E+02  1.948767387E+02 -4.756246111E+00  2.620284961E+02  1.250000000E+02  0.00000E+00  9.000E+00
      21     1     1     2   502   512  1.584175276E+01 -1.819692514E+01 -2.588434392E+03  2.588546829E+03  3.051757812E-05  0.00000E+00  9.000E+00
#rwgt            1           1   3.4233119485289308E-002           1      383789           0
</event>
<event>
      5   9999  3.79277E-02  1.60033E+01 -1.00000E+00  1.74775E-01
      21    -1     0     0   511   501  0.000000000E+00  0.000000000E+00  1.361963415E+02  1.361963415E+02  0.000000000E+00  0.00000E+00  9.000E+00
      21    -1     0     0   501   502  0.000000000E+00  0.000000000E+00 -2.745479362E+02  2.745479362E+02  0.000000000E+00  0.00000E+00  9.000E+00
      25     1     1     2     0     0  8.925996820E+00 -1.858069301E+01 -2.147342218E+02  2.493204797E+02  1.250000000E+02  0.00000E+00  9.000E+00
      25     1     1     2     0     0  5.189691865E+00  1.104066649E+01  7.226145072E+01  1.448984005E+02  1.250000000E+02  0.00000E+00  9.000E+00
      21     1     1     2   511   502 -1.411568869E+01  7.540026525E+00  4.121176312E+00  1.652539746E+01  2.665600750E-07  0.00000E+00  9.000E+00
#rwgt            1           1   5.3749212007434405E-002           1      384079           0
</event>
<event>
      5   9999  3.79277E-02  7.95075E+01 -1.00000E+00  1.28479E-01
      21    -1     0     0   512   501  0.000000000E+00  0.000000000E+00  2.604178195E+02  2.604178195E+02  0.000000000E+00  0.00000E+00  9.000E+00
      21    -1     0     0   501   502  0.000000000E+00  0.000000000E+00 -2.165759608E+02  2.165759608E+02  0.000000000E+00  0.00000E+00  9.000E+00
      25     1     1     2     0     0 -8.408342020E+01  1.040221309E+02  9.736523411E+01  2.073538379E+02  1.250000000E+02  0.00000E+00  9.000E+00
      25     1     1     2     0     0  4.905042441E+00 -1.112493741E+02 -8.039828829E+01  1.857131321E+02  1.250000000E+02  0.00000E+00  9.000E+00
      21     1     1     2   512   502  7.917837776E+01  7.227243111E+00  2.687491284E+01  8.392681030E+01  8.259061849E-07  0.00000E+00  9.000E+00
#rwgt            1           1   3.7090698147349957E-002           1      384286           0
</event>
<event>
      5   9999  3.79277E-02  3.55338E+01 -1.00000E+00  1.48103E-01
       2    -1     0     0   502     0  0.000000000E+00  0.000000000E+00  1.227155455E+03  1.227155455E+03  0.000000000E+00  0.00000E+00  9.000E+00
      21    -1     0     0   501   502  0.000000000E+00  0.000000000E+00 -3.741155373E+02  3.741155373E+02  0.000000000E+00  0.00000E+00  9.000E+00
      25     1     1     2     0     0 -1.144754578E+02  5.818577846E+01 -1.281462196E+02  2.203103921E+02  1.250000000E+02  0.00000E+00  9.000E+00
      25     1     1     2     0     0  9.634001354E+01 -8.874315487E+01 -1.585531648E+02  2.406675130E+02  1.250000000E+02  0.00000E+00  9.000E+00
       2     1     1     2   501     0  1.813544426E+01  3.055737642E+01  1.139739302E+03  1.140293087E+03  2.157918644E-05  0.00000E+00  9.000E+00
#rwgt            1           1   4.1370618323165194E-002           1      384328           0
</event>
<event>
      5   9999  3.79277E-02  6.24538E+00 -1.00000E+00  2.22802E-01
      21    -1     0     0   511   501  0.000000000E+00  0.000000000E+00  5.780944464E+02  5.780944464E+02  0.000000000E+00  0.00000E+00  9.000E+00
      21    -1     0     0   501   502  0.000000000E+00  0.000000000E+00 -9.827778677E+01  9.827778677E+01  0.000000000E+00  0.00000E+00  9.000E+00
      25     1     1     2     0     0 -4.138870103E+01  9.439666627E+00  1.432631888E+02  1.948113784E+02  1.250000000E+02  0.00000E+00  9.000E+00
      25     1     1     2     0     0  4.127886508E+01 -3.195249375E+00 -1.266559614E+01  1.322859465E+02  1.250000000E+02  0.00000E+00  9.000E+00
      21     1     1     2   511   502  1.098359527E-01 -6.244417252E+00  3.492190670E+02  3.492749083E+02  3.814697266E-06  0.00000E+00  9.000E+00
#rwgt            1           1   3.6863904816716753E-002           1      384441           0
</event>
<event>
      5   9999  3.79277E-02  8.38494E+00 -1.00000E+00  2.05037E-01
      21    -1     0     0   502   501  0.000000000E+00  0.000000000E+00  8.886873081E+01  8.886873081E+01  0.000000000E+00  0.00000E+00  9.000E+00
      21    -1     0     0   501   512  0.000000000E+00  0.000000000E+00 -4.912226220E+02  4.912226220E+02  0.000000000E+00  0.00000E+00  9.000E+00
      25     1     1     2     0     0  4.756161077E+01 -8.232351611E+00 -2.396516498E+02  2.745683734E+02  1.250000000E+02  0.00000E+00  9.000E+00
      25     1     1     2     0     0 -4.254214272E+01  1.494891297E+01  9.399994118E+00  1.332166048E+02  1.250000000E+02  0.00000E+00  9.000E+00
      21     1     1     2   502   512 -5.019468054E+00 -6.716561358E+00 -1.721022355E+02  1.723063746E+02  1.907348633E-06  0.00000E+00  9.000E+00
#rwgt            1           1   4.3891611664750765E-002           1      384759           0
</event>
<event>
      5   9999  3.79277E-02  1.23778E+01 -1.00000E+00  1.85624E-01
       2    -1     0     0   502     0  0.000000000E+00  0.000000000E+00  1.823036032E+03  1.823036032E+03  0.000000000E+00  0.00000E+00  9.000E+00
      21    -1     0     0   501   502  0.000000000E+00  0.000000000E+00 -1.911259746E+02  1.911259746E+02  0.000000000E+00  0.00000E+00  9.000E+00
      25     1     1     2     0     0 -5.558862955E+01  2.998110296E+01 -7.576445855E+01  1.592300708E+02  1.250000000E+02  0.00000E+00  9.000E+00
      25     1     1     2     0     0  4.757457627E+01 -3.941429449E+01 -7.573289103E+00  1.396394702E+02  1.250000000E+02  0.00000E+00  9.000E+00
       2     1     1     2   501     0  8.014053274E+00  9.433191524E+00  1.715247805E+03  1.715292466E+03  3.051757812E-05  0.00000E+00  9.000E+00
#rwgt            1           1   6.2293590779321853E-002           1      385099           0
</event>
<event>
      5   9999 -3.79277E-02  1.06598E+02 -1.00000E+00  1.22592E-01
       1    -1     0     0   502     0  0.000000000E+00  0.000000000E+00  1.356108535E+03  1.356108535E+03  0.000000000E+00  0.00000E+00  9.000E+00
      21    -1     0     0   501   502  0.000000000E+00  0.000000000E+00 -1.102289624E+02  1.102289624E+02  0.000000000E+00  0.00000E+00  9.000E+00
      25     1     1     2     0     0  2.427361360E+02 -7.511902352E+01  5.186585557E+02  5.909275732E+02  1.250000000E+02  0.00000E+00  9.000E+00
      25     1     1     2     0     0 -3.204427321E+02  1.480910955E+02  5.025656831E+02  6.267469848E+02  1.250000000E+02  0.00000E+00  9.000E+00
       1     1     1     2   501     0  7.770659604E+01 -7.297207198E+01  2.246553337E+02  2.486629392E+02  0.000000000E+00  0.00000E+00  9.000E+00
#rwgt            1           1 -0.23871469898386843                1      385318           0
</event>
<event>
      5   9999  3.79277E-02  2.84350E+01 -1.00000E+00  1.54674E-01
      21    -1     0     0   502   501  0.000000000E+00  0.000000000E+00  8.855971936E+02  8.855971936E+02  0.000000000E+00  0.00000E+00  9.000E+00
      21    -1     0     0   501   511  0.000000000E+00  0.000000000E+00 -5.497002697E+01  5.497002697E+01  0.000000000E+00  0.00000E+00  9.000E+00
      25     1     1     2     0     0  1.575907328E+01  7.348491700E+01  7.208370626E+02  7.354450709E+02  1.250000000E+02  0.00000E+00  9.000E+00
      25     1     1     2     0     0  1.241905507E+01 -6.967169522E+01  1.001013079E+02  1.750818377E+02  1.250000000E+02  0.00000E+00  9.000E+00
      21     1     1     2   502   511 -2.817812835E+01 -3.813221779E+00  9.688796128E+00  3.004031205E+01  2.665600750E-07  0.00000E+00  9.000E+00
#rwgt            1           1   3.9184050421547850E-002           1      385465           0
</event>
<event>
      5   9999  3.79277E-02  1.29039E+01 -1.00000E+00  1.83772E-01
      21    -1     0     0   512   501  0.000000000E+00  0.000000000E+00  1.134665632E+02  1.134665632E+02  0.000000000E+00  0.00000E+00  9.000E+00
      21    -1     0     0   501   502  0.000000000E+00  0.000000000E+00 -5.316013024E+02  5.316013024E+02  0.000000000E+00  0.00000E+00  9.000E+00
      25     1     1     2     0     0 -1.652888764E+02 -8.344938158E+01 -2.948355546E+02  3.699151473E+02  1.250000000E+02  0.00000E+00  9.000E+00
      25     1     1     2     0     0  1.724234083E+02  9.420149385E+01 -1.142149742E+02  2.593719597E+02  1.250000000E+02  0.00000E+00  9.000E+00
      21     1     1     2   512   502 -7.134531866E+00 -1.075211227E+01 -9.084210435E+00  1.578075861E+01  2.064765462E-07  0.00000E+00  9.000E+00
#rwgt            1           1   4.8861294524376174E-002           1      385602           0
</event>
<event>
      5   9999  3.79277E-02  5.76708E+01 -1.00000E+00  1.35629E-01
      21    -1     0     0   502   501  0.000000000E+00  0.000000000E+00  2.826572070E+02  2.826572070E+02  0.000000000E+00  0.00000E+00  9.000E+00
      21    -1     0     0   511   502  0.000000000E+00  0.000000000E+00 -5.264188792E+02  5.264188792E+02  0.000000000E+00  0.00000E+00  9.000E+00
      25     1     1     2     0     0 -1.417214197E+02 -1.285947174E+02  1.747904140E+02  2.877468522E+02  1.250000000E+02  0.00000E+00  9.000E+00
      25     1     1     2     0     0  9.087348247E+01  1.013843103E+02 -1.273089728E+02  2.244311537E+02  1.250000000E+02  0.00000E+00  9.000E+00
      21     1     1     2   511   501  5.084793728E+01  2.721040706E+01 -2.912431134E+02  2.968980803E+02  6.607249480E-06  0.00000E+00  9.000E+00
#rwgt            2          11   9.2405580497207957E-004           1      385871           0
</event>
<event>
      5   9999  3.79277E-02  3.09804E+01 -1.00000E+00  1.52076E-01
      21    -1     0     0   512   501  0.000000000E+00  0.000000000E+00  9.415154328E+01  9.415154328E+01  0.000000000E+00  0.00000E+00  9.000E+00
      21    -1     0     0   501   502  0.000000000E+00  0.000000000E+00 -4.552039775E+02  4.552039775E+02  0.000000000E+00  0.00000E+00  9.000E+00
      25     1     1     2     0     0 -4.451455319E+01 -3.344986603E+01  5.299711688E+00  1.369435136E+02  1.250000000E+02  0.00000E+00  9.000E+00
      25     1     1     2     0     0  1.557801874E+01  4.451599508E+01 -3.551842937E+02  3.794802116E+02  1.250000000E+02  0.00000E+00  9.000E+00
      21     1     1     2   512   502  2.893653445E+01 -1.106612905E+01 -1.116785225E+01  3.293179561E+01  2.064765462E-07  0.00000E+00  9.000E+00
#rwgt            1           1   5.5964438729307731E-002           1      385891           0
</event>
<event>
      5   9999  3.79277E-02  2.45028E+01 -1.00000E+00  1.59407E-01
      21    -1     0     0   502   501  0.000000000E+00  0.000000000E+00  6.710306267E+02  6.710306267E+02  0.000000000E+00  0.00000E+00  9.000E+00
      21    -1     0     0   501   511  0.000000000E+00  0.000000000E+00 -4.441888197E+01  4.441888197E+01  0.000000000E+00  0.00000E+00  9.000E+00
      25     1     1     2     0     0 -3.786385153E+01 -6.994446548E+01  2.220203366E+02  2.669155847E+02  1.250000000E+02  0.00000E+00  9.000E+00
      25     1     1     2     0     0  5.932959198E+01  8.176000761E+01  3.848761293E+02  4.170843251E+02  1.250000000E+02  0.00000E+00  9.000E+00
      21     1     1     2   502   511 -2.146574045E+01 -1.181554213E+01  1.971527882E+01  3.144959885E+01  4.129530925E-07  0.00000E+00  9.000E+00
#rwgt            1           1   4.6570855989495570E-002           1      386001           0
</event>
<event>
      5   9999  3.79277E-02  7.02102E+01 -1.00000E+00  1.31155E-01
      21    -1     0     0   502   501  0.000000000E+00  0.000000000E+00  2.156559778E+02  2.156559778E+02  0.000000000E+00  0.00000E+00  9.000E+00
      21    -1     0     0   512   502  0.000000000E+00  0.000000000E+00 -6.098452444E+02  6.098452444E+02  0.000000000E+00  0.00000E+00  9.000E+00
      25     1     1     2     0     0  1.080235953E+02 -2.288355841E+02  2.618556582E+00  2.822528627E+02  1.250000000E+02  0.00000E+00  9.000E+00
      25     1     1     2     0     0 -5.533276739E+01  1.824335632E+02 -1.198929766E+02  2.575714386E+02  1.250000000E+02  0.00000E+00  9.000E+00
      21     1     1     2   512   501 -5.269082792E+01  4.640202089E+01 -2.769148465E+02  2.856769209E+02  3.814697266E-06  0.00000E+00  9.000E+00
#rwgt            1           1   4.0257998163493680E-002           1      386191           0
</event>
<event>
      5   9999  3.79277E-02  1.86192E+02 -1.00000E+00  1.12791E-01
      21    -1     0     0   511   501  0.000000000E+00  0.000000000E+00  1.343373998E+03  1.343373998E+03  0.000000000E+00  0.00000E+00  9.000E+00
      21    -1     0     0   501   502  0.000000000E+00  0.000000000E+00 -1.448984720E+02  1.448984720E+02  0.000000000E+00  0.00000E+00  9.000E+00
      25     1     1     2     0     0 -1.120768287E+02  1.770772894E+02  5.059870009E+02  5.617521046E+02  1.250000000E+02  0.00000E+00  9.000E+00
      25     1     1     2     0     0  5.856141618E+01  1.258624511E+00 -6.059775499E+01  1.507584542E+02  1.250000000E+02  0.00000E+00  9.000E+00
      21     1     1     2   511   502  5.351541247E+01 -1.783359139E+02  7.530862804E+02  7.757619114E+02  1.078959322E-05  0.00000E+00  9.000E+00
#rwgt            1           1   5.0029349904523727E-002           1      386251           0
</event>
<event>
      5   9999  3.79277E-02  8.48631E+01 -1.00000E+00  1.27121E-01
      21    -1     0     0   502   501  0.000000000E+00  0.000000000E+00  4.703232940E+02  4.703232940E+02  0.000000000E+00  0.00000E+00  9.000E+00
      21    -1     0     0   512   502  0.000000000E+00  0.000000000E+00 -7.867595502E+02  7.867595502E+02  0.000000000E+00  0.00000E+00  9.000E+00
      25     1     1     2     0     0 -2.691931724E+02 -4.317163006E+01  2.601782235E+02  3.970471782E+02  1.250000000E+02  0.00000E+00  9.000E+00
      25     1     1     2     0     0  1.849768416E+02  3.271413427E+01  4.716258187E+01  2.305123764E+02  1.250000000E+02  0.00000E+00  9.000E+00
      21     1     1     2   512   501  8.421633076E+01  1.045749579E+01 -6.237770616E+02  6.295232897E+02  0.000000000E+00  0.00000E+00  9.000E+00
#rwgt            1           1   2.8285445754766131E-002           1      386287           0
</event>
<event>
      5   9999 -3.79277E-02  6.17875E+01 -1.00000E+00  1.34026E-01
      21    -1     0     0   502   501  0.000000000E+00  0.000000000E+00  1.389277218E+03  1.389277218E+03  0.000000000E+00  0.00000E+00  9.000E+00
      -3    -1     0     0     0   502  0.000000000E+00  0.000000000E+00 -1.155417425E+02  1.155417425E+02  0.000000000E+00  0.00000E+00  9.000E+00
      25     1     1     2     0     0  2.712888449E+01  7.298216373E+01  3.940830643E+01  1.524479820E+02  1.250000000E+02  0.00000E+00  9.000E+00
      25     1     1     2     0     0 -1.300811381E+01 -1.331345066E+02  1.268580765E+03  1.281723903E+03  1.250000000E+02  0.00000E+00  9.000E+00
      -3     1     1     2     0   501 -1.412077067E+01  6.015234283E+01 -3.425359520E+01  7.064707563E+01  1.907348633E-06  0.00000E+00  9.000E+00
#rwgt            1           1  -3.7682904348440467E-002           1      386561           0
</event>
<event>
      5   9999 -3.79277E-02  2.79601E+01 -1.00000E+00  1.55195E-01
      21    -1     0     0   502   501  0.000000000E+00  0.000000000E+00  1.147313566E+02  1.147313566E+02  0.000000000E+00  0.00000E+00  9.000E+00
      21    -1     0     0   501   511  0.000000000E+00  0.000000000E+00 -2.258919612E+02  2.258919612E+02  0.000000000E+00  0.00000E+00  9.000E+00
      25     1     1     2     0     0 -1.221241722E+01 -7.209455651E+01 -9.111342706E+01  1.710947831E+02  1.250000000E+02  0.00000E+00  9.000E+00
      25     1     1     2     0     0  1.080412503E+01  4.416995916E+01  3.371396076E+00  1.330566824E+02  1.250000000E+02  0.00000E+00  9.000E+00
      21     1     1     2   502   511  1.408292184E+00  2.792459735E+01 -2.341857359E+01  3.647185234E+01  7.539457465E-07  0.00000E+00  9.000E+00
#rwgt            1           1 -0.30394801479898081                1      386874           0
</event>
<event>
      5   9999  3.79277E-02  8.31853E+01 -1.00000E+00  1.27534E-01
      21    -1     0     0   502   501  0.000000000E+00  0.000000000E+00  1.123587929E+03  1.123587929E+03  0.000000000E+00  0.00000E+00  9.000E+00
      21    -1     0     0   512   502  0.000000000E+00  0.000000000E+00 -5.447467946E+01  5.447467946E+01  0.000000000E+00  0.00000E+00  9.000E+00
      25     1     1     2     0     0 -5.253726571E-01  1.454883052E+02  7.781904704E+02  8.014814603E+02  1.250000000E+02  0.00000E+00  9.000E+00
      25     1     1     2     0     0 -4.151243802E+01 -7.370656539E+01  2.225428390E+02  2.688982252E+02  1.250000000E+02  0.00000E+00  9.000E+00
      21     1     1     2   512   501  4.203781068E+01 -7.178173982E+01  6.837994011E+01  1.076829230E+02  1.348699152E-06  0.00000E+00  9.000E+00
#rwgt            1           1   3.8661080937258216E-002           1      386976           0
</event>
<event>
      5   9999  3.79277E-02  5.12580E+01 -1.00000E+00  1.38463E-01
      21    -1     0     0   511   501  0.000000000E+00  0.000000000E+00  4.010369376E+02  4.010369376E+02  0.000000000E+00  0.00000E+00  9.000E+00
      21    -1     0     0   501   502  0.000000000E+00  0.000000000E+00 -2.162564326E+02  2.162564326E+02  0.000000000E+00  0.00000E+00  9.000E+00
      25     1     1     2     0     0  1.259801105E+02 -7.155199095E+01  1.483290298E+02  2.421098444E+02  1.250000000E+02  0.00000E+00  9.000E+00
      25     1     1     2     0     0 -7.472378873E+01  7.113958074E+01 -1.257087031E+02  2.051149984E+02  1.250000000E+02  0.00000E+00  9.000E+00
      21     1     1     2   511   502 -5.125632176E+01  4.124102090E-01  1.621601783E+02  1.700685274E+02  3.303624740E-06  0.00000E+00  9.000E+00
#rwgt            1           1   4.0101557314384112E-002           1      387043           0
</event>
<event>
      5   9999  3.79277E-02  2.04373E+01 -1.00000E+00  1.65598E-01
      21    -1     0     0   512   501  0.000000000E+00  0.000000000E+00  2.014228449E+02  2.014228449E+02  0.000000000E+00  0.00000E+00  9.000E+00
      21    -1     0     0   501   502  0.000000000E+00  0.000000000E+00 -3.000632334E+02  3.000632334E+02  0.000000000E+00  0.00000E+00  9.000E+00
      25     1     1     2     0     0  8.415540881E+01 -1.630239429E+02 -1.086604927E+02  2.471660201E+02  1.250000000E+02  0.00000E+00  9.000E+00
      25     1     1     2     0     0 -1.045523518E+02  1.643075125E+02 -3.202964568E-01  2.314157633E+02  1.250000000E+02  0.00000E+00  9.000E+00
      21     1     1     2   512   502  2.039694303E+01 -1.283569539E+00  1.034040078E+01  2.290429488E+01  2.064765462E-07  0.00000E+00  9.000E+00
#rwgt            1           1   3.4894573606480406E-002           1      387175           0
</event>
<event>
      5   9999  3.79277E-02  5.01736E+01 -1.00000E+00  1.38990E-01
       3    -1     0     0   502     0  0.000000000E+00  0.000000000E+00  6.338595223E+02  6.338595223E+02  0.000000000E+00  0.00000E+00  9.000E+00
      21    -1     0     0   501   502  0.000000000E+00  0.000000000E+00 -1.460039159E+02  1.460039159E+02  0.000000000E+00  0.00000E+00  9.000E+00
      25     1     1     2     0     0  7.149630450E+01 -1.488165526E+02  1.193957219E+01  2.074262309E+02  1.250000000E+02  0.00000E+00  9.000E+00
      25     1     1     2     0     0 -7.455823085E+01  9.873646694E+01  1.197961690E+02  2.128002392E+02  1.250000000E+02  0.00000E+00  9.000E+00
       3     1     1     2   501     0  3.061926343E+00  5.008008569E+01  3.561198653E+02  3.596369681E+02  5.394796609E-06  0.00000E+00  9.000E+00
#rwgt            1           1   3.0902080348474612E-002           1      387424           0
</event>
<event>
      5   9999  3.79277E-02  2.38059E+01 -1.00000E+00  1.60360E-01
      21    -1     0     0   502   501  0.000000000E+00  0.000000000E+00  9.636975674E+02  9.636975674E+02  0.000000000E+00  0.00000E+00  9.000E+00
      21    -1     0     0   511   502  0.000000000E+00  0.000000000E+00 -5.373431722E+01  5.373431722E+01  0.000000000E+00  0.00000E+00  9.000E+00
      25     1     1     2     0     0 -4.948337641E+01 -1.441802051E+02  5.678608027E+02  6.011051716E+02  1.250000000E+02  0.00000E+00  9.000E+00
      25     1     1     2     0     0  6.805221062E+01  1.590772116E+02  3.086244622E+02  3.752475467E+02  1.250000000E+02  0.00000E+00  9.000E+00
      21     1     1     2   511   501 -1.856883421E+01 -1.489700655E+01  3.347798525E+01  4.107916631E+01  4.768371582E-07  0.00000E+00  9.000E+00
#rwgt            1           1   3.1481005196304222E-002           1      387591           0
</event>
<event>
      5   9999  3.79277E-02  2.98386E+01 -1.00000E+00  1.53203E-01
       2    -1     0     0   502     0  0.000000000E+00  0.000000000E+00  4.368077469E+03  4.368077469E+03  0.000000000E+00  0.00000E+00  9.000E+00
      21    -1     0     0   501   502  0.000000000E+00  0.000000000E+00 -2.749428811E+01  2.749428811E+01  0.000000000E+00  0.00000E+00  9.000E+00
      25     1     1     2     0     0  7.828047321E+01  1.011713181E+02  8.984472141E+02  9.160763421E+02  1.250000000E+02  0.00000E+00  9.000E+00
      25     1     1     2     0     0 -5.570360378E+01 -1.206809510E+02  4.287233873E+02  4.659351095E+02  1.250000000E+02  0.00000E+00  9.000E+00
       2     1     1     2   501     0 -2.257686943E+01  1.950963285E+01  3.013412579E+03  3.013560305E+03  4.315837288E-05  0.00000E+00  9.000E+00
#rwgt            1           1   5.0216764651135538E-002           1      387767           0
</event>
<event>
      5   9999  3.79277E-02  2.13445E+01 -1.00000E+00  1.64071E-01
      21    -1     0     0   502   511  0.000000000E+00  0.000000000E+00  7.862353494E+02  7.862353494E+02  0.000000000E+00  0.00000E+00  9.000E+00
      21    -1     0     0   501   502  0.000000000E+00  0.000000000E+00 -1.931906093E+02  1.931906093E+02  0.000000000E+00  0.00000E+00  9.000E+00
      25     1     1     2     0     0 -7.177977931E+01  7.624815628E+01 -9.852478795E+01  1.905210012E+02  1.250000000E+02  0.00000E+00  9.000E+00
      25     1     1     2     0     0  6.060518907E+01 -9.443379120E+01  9.703710509E+01  1.939895091E+02  1.250000000E+02  0.00000E+00  9.000E+00
      21     1     1     2   501   511  1.117459024E+01  1.818563492E+01  5.945324230E+02  5.949154484E+02  0.000000000E+00  0.00000E+00  9.000E+00
#rwgt            1           1   4.6325329276998985E-002           1      387901           0
</event>
<event>
      5   9999  3.79277E-02  2.19266E+01 -1.00000E+00  1.63140E-01
      21    -1     0     0   502   512  0.000000000E+00  0.000000000E+00  8.543475118E+02  8.543475118E+02  0.000000000E+00  0.00000E+00  9.000E+00
      21    -1     0     0   501   502  0.000000000E+00  0.000000000E+00 -2.714603153E+02  2.714603153E+02  0.000000000E+00  0.00000E+00  9.000E+00
      25     1     1     2     0     0 -1.322256882E+02  4.069542498E+02  2.625122487E+02  5.173326538E+02  1.250000000E+02  0.00000E+00  9.000E+00
      25     1     1     2     0     0  1.195124355E+02 -3.890895579E+02  1.731915818E+02  4.596675215E+02  1.250000000E+02  0.00000E+00  9.000E+00
      21     1     1     2   501   512  1.271325272E+01 -1.786469189E+01  1.471833659E+02  1.488076518E+02  1.907348633E-06  0.00000E+00  9.000E+00
#rwgt            1           1   2.6601905866200991E-002           1      388177           0
</event>
<event>
      5   9999  3.79277E-02  3.68189E+01 -1.00000E+00  1.47108E-01
      21    -1     0     0   502   501  0.000000000E+00  0.000000000E+00  6.312386317E+02  6.312386317E+02  0.000000000E+00  0.00000E+00  9.000E+00
      21    -1     0     0   501   511  0.000000000E+00  0.000000000E+00 -1.266683992E+02  1.266683992E+02  0.000000000E+00  0.00000E+00  9.000E+00
      25     1     1     2     0     0 -4.366665208E+01 -1.163114695E+02 -1.280598353E+01  1.767035021E+02  1.250000000E+02  0.00000E+00  9.000E+00
      25     1     1     2     0     0  7.458818747E+01  1.362987548E+02  5.040233506E+02  5.420380856E+02  1.250000000E+02  0.00000E+00  9.000E+00
      21     1     1     2   502   511 -3.092153539E+01 -1.998728536E+01  1.335286541E+01  3.916544321E+01  5.591411304E-07  0.00000E+00  9.000E+00
#rwgt            1           1   5.0980251690467347E-002           1      388430           0
</event>
<event>
      5   9999  3.79277E-02  6.36399E+01 -1.00000E+00  1.33351E-01
       2    -1     0     0   502     0  0.000000000E+00  0.000000000E+00  3.754285114E+03  3.754285114E+03  0.000000000E+00  0.00000E+00  9.000E+00
      21    -1     0     0   501   502  0.000000000E+00  0.000000000E+00 -4.091417867E+01  4.091417867E+01  0.000000000E+00  0.00000E+00  9.000E+00
      25     1     1     2     0     0  7.767559262E+01 -4.502908145E+01  1.289031497E+03  1.298186549E+03  1.250000000E+02  0.00000E+00  9.000E+00
      25     1     1     2     0     0 -3.823473868E+01  9.497362437E+01  1.459492626E+02  2.177339473E+02  1.250000000E+02  0.00000E+00  9.000E+00
       2     1     1     2   501     0 -3.944085394E+01 -4.994454292E+01  2.278390176E+03  2.279278796E+03  5.285799584E-05  0.00000E+00  9.000E+00
#rwgt            1           1   2.5420884401325523E-002           1      388775           0
</event>
<event>
      5   9999  3.79277E-02  5.87004E+01 -1.00000E+00  1.35214E-01
      21    -1     0     0   502   501  0.000000000E+00  0.000000000E+00  1.972211571E+02  1.972211571E+02  0.000000000E+00  0.00000E+00  9.000E+00
      21    -1     0     0   501   511  0.000000000E+00  0.000000000E+00 -2.549190516E+02  2.549190516E+02  0.000000000E+00  0.00000E+00  9.000E+00
      25     1     1     2     0     0  1.456664155E+02  3.702393831E+01  5.783171950E+01  2.038602079E+02  1.250000000E+02  0.00000E+00  9.000E+00
      25     1     1     2     0     0 -1.014622099E+02  1.598977309E+00 -8.719880190E+01  1.831004309E+02  1.250000000E+02  0.00000E+00  9.000E+00
      21     1     1     2   502   511 -4.420420561E+01 -3.862291562E+01 -2.833081206E+01  6.517956978E+01  1.168007728E-06  0.00000E+00  9.000E+00
#rwgt            1           1   4.9003662360343175E-002           1      388879           0
</event>
<event>
      5   9999  3.79277E-02  2.51002E+01 -1.00000E+00  1.58621E-01
      21    -1     0     0   512   501  0.000000000E+00  0.000000000E+00  2.725722634E+03  2.725722634E+03  0.000000000E+00  0.00000E+00  9.000E+00
      21    -1     0     0   501   502  0.000000000E+00  0.000000000E+00 -5.276794400E+01  5.276794400E+01  0.000000000E+00  0.00000E+00  9.000E+00
      25     1     1     2     0     0 -2.199178841E+02  1.029081339E+02  1.054238640E+03  1.089035385E+03  1.250000000E+02  0.00000E+00  9.000E+00
      25     1     1     2     0     0  2.279924180E+02 -7.914218521E+01  4.889584644E+02  5.594188128E+02  1.250000000E+02  0.00000E+00  9.000E+00
      21     1     1     2   512   502 -8.074533904E+00 -2.376594864E+01  1.129757585E+03  1.130036380E+03  1.525878906E-05  0.00000E+00  9.000E+00
#rwgt            1           1   3.4260653863064122E-002           1      389011           0
</event>
<event>
      5   9999  3.79277E-02  8.71505E+00 -1.00000E+00  2.02925E-01
      21    -1     0     0   511   501  0.000000000E+00  0.000000000E+00  1.096859051E+03  1.096859051E+03  0.000000000E+00  0.00000E+00  9.000E+00
      21    -1     0     0   501   502  0.000000000E+00  0.000000000E+00 -1.346691418E+02  1.346691418E+02  0.000000000E+00  0.00000E+00  9.000E+00
      25     1     1     2     0     0 -1.186313882E+02  2.915223132E+02  2.247828305E+02  4.064615434E+02  1.250000000E+02  0.00000E+00  9.000E+00
      25     1     1     2     0     0  1.245470142E+02 -2.851225045E+02  5.996265768E+02  6.870107953E+02  1.250000000E+02  0.00000E+00  9.000E+00
      21     1     1     2   511   502 -5.915626001E+00 -6.399808645E+00  1.377805020E+02  1.380558543E+02  1.907348633E-06  0.00000E+00  9.000E+00
#rwgt            1           1   5.0393977303749546E-002           1      389303           0
</event>
<event>
      5   9999  3.79277E-02  1.74048E+02 -1.00000E+00  1.13890E-01
      21    -1     0     0   502   501  0.000000000E+00  0.000000000E+00  9.914205097E+02  9.914205097E+02  0.000000000E+00  0.00000E+00  9.000E+00
      21    -1     0     0   501   512  0.000000000E+00  0.000000000E+00 -2.098870465E+02  2.098870465E+02  0.000000000E+00  0.00000E+00  9.000E+00
      25     1     1     2     0     0  1.289076188E+02  3.753190388E+01  5.481257788E+02  5.780075150E+02  1.250000000E+02  0.00000E+00  9.000E+00
      25     1     1     2     0     0 -2.915755851E+02 -9.943400971E+01  2.890820193E+02  4.405642496E+02  1.250000000E+02  0.00000E+00  9.000E+00
      21     1     1     2   502   512  1.626679663E+02  6.190210583E+01 -5.567433493E+01  1.827357916E+02  2.780414531E-06  0.00000E+00  9.000E+00
#rwgt            1           1   1.7729594076181059E-002           1      389689           0
</event>
<event>
      5   9999 -3.79277E-02  8.41659E+01 -1.00000E+00  1.27291E-01
      21    -1     0     0   511   501  0.000000000E+00  0.000000000E+00  3.866875081E+02  3.866875081E+02  0.000000000E+00  0.00000E+00  9.000E+00
      21    -1     0     0   501   502  0.000000000E+00  0.000000000E+00 -2.748942867E+02  2.748942867E+02  0.000000000E+00  0.00000E+00  9.000E+00
      25     1     1     2     0     0  6.403583148E+01  1.070208373E+02  2.667791196E+01  1.785798374E+02  1.250000000E+02  0.00000E+00  9.000E+00
      25     1     1     2     0     0 -5.991982111E+01 -2.295563048E+01 -1.663944574E+02  2.177830604E+02  1.250000000E+02  0.00000E+00  9.000E+00
      21     1     1     2   511   502 -4.116010374E+00 -8.406520685E+01  2.515097668E+02  2.652188971E+02  6.607249480E-06  0.00000E+00  9.000E+00
#rwgt            1           1  -9.8927971606566772E-002           1      389760           0
</event>
<event>
      5   9999  3.79277E-02  7.05483E+01 -1.00000E+00  1.31049E-01
      21    -1     0     0   512   501  0.000000000E+00  0.000000000E+00  2.503524645E+03  2.503524645E+03  0.000000000E+00  0.00000E+00  9.000E+00
      21    -1     0     0   501   502  0.000000000E+00  0.000000000E+00 -1.732873889E+02  1.732873889E+02  0.000000000E+00  0.00000E+00  9.000E+00
      25     1     1     2     0     0 -9.083287981E+01  8.151055774E+01 -1.073530898E+02  2.050469921E+02  1.250000000E+02  0.00000E+00  9.000E+00
      25     1     1     2     0     0  5.400209350E+01 -2.133945185E+01  2.710843299E+02  3.041106907E+02  1.250000000E+02  0.00000E+00  9.000E+00
      21     1     1     2   512   502  3.683078631E+01 -6.017110589E+01  2.166506016E+03  2.167654351E+03  3.051757812E-05  0.00000E+00  9.000E+00
#rwgt            1           1   4.2860811500159898E-002           1      389950           0
</event>
<event>
      5   9999  3.79277E-02  5.90830E+01 -1.00000E+00  1.35062E-01
      21    -1     0     0   502   501  0.000000000E+00  0.000000000E+00  1.934459985E+02  1.934459985E+02  0.000000000E+00  0.00000E+00  9.000E+00
      21    -1     0     0   511   502  0.000000000E+00  0.000000000E+00 -2.832649123E+02  2.832649123E+02  0.000000000E+00  0.00000E+00  9.000E+00
      25     1     1     2     0     0 -5.347622194E+00  1.226962319E+02  7.742083582E+01  1.915775253E+02  1.250000000E+02  0.00000E+00  9.000E+00
      25     1     1     2     0     0  3.566935420E+01 -7.198730370E+01 -5.528176723E+01  1.585419456E+02  1.250000000E+02  0.00000E+00  9.000E+00
      21     1     1     2   511   501 -3.032173201E+01 -5.070892816E+01 -1.119579824E+02  1.265914399E+02  1.907348633E-06  0.00000E+00  9.000E+00
#rwgt            1           1   2.4067561284538509E-002           1      390013           0
</event>
<event>
      5   9999  3.79277E-02  8.12045E+01 -1.00000E+00  1.28036E-01
      21    -1     0     0   502   512  0.000000000E+00  0.000000000E+00  8.387213689E+01  8.387213689E+01  0.000000000E+00  0.00000E+00  9.000E+00
      21    -1     0     0   501   502  0.000000000E+00  0.000000000E+00 -9.472568984E+02  9.472568984E+02  0.000000000E+00  0.00000E+00  9.000E+00
      25     1     1     2     0     0  1.566808182E+02  7.844139419E+01 -6.888584598E+02  7.217013986E+02  1.250000000E+02  0.00000E+00  9.000E+00
      25     1     1     2     0     0 -1.039073409E+02 -1.672329133E+01 -7.180698104E+01  1.784871045E+02  1.250000000E+02  0.00000E+00  9.000E+00
      21     1     1     2   501   512 -5.277347729E+01 -6.171810286E+01 -1.027193207E+02  1.309405322E+02  0.000000000E+00  0.00000E+00  9.000E+00
#rwgt            1           1   4.5975684878963911E-002           1      390161           0
</event>
<event>
      5   9999  3.79277E-02  8.34659E+01 -1.00000E+00  1.27464E-01
      21    -1     0     0   502   501  0.000000000E+00  0.000000000E+00  4.934846574E+02  4.934846574E+02  0.000000000E+00  0.00000E+00  9.000E+00
      21    -1     0     0   501   511  0.000000000E+00  0.000000000E+00 -1.975655503E+02  1.975655503E+02  0.000000000E+00  0.00000E+00  9.000E+00
      25     1     1     2     0     0 -1.967737275E+01 -2.374602756E+02  3.885598337E+01  2.718627759E+02  1.250000000E+02  0.00000E+00  9.000E+00
      25     1     1     2     0     0 -7.551469686E+00  1.585607222E+02  2.673269584E+02  3.350928678E+02  1.250000000E+02  0.00000E+00  9.000E+00
      21     1     1     2   502   511  2.722884244E+01  7.889955337E+01 -1.026383473E+01  8.409456395E+01  1.846782373E-06  0.00000E+00  9.000E+00
#rwgt            1           1   3.3021495093135594E-002           1      390257           0
</event>
<event>
      5   9999  3.79277E-02  8.29461E+01 -1.00000E+00  1.27594E-01
      21    -1     0     0   502   501  0.000000000E+00  0.000000000E+00  1.549999445E+02  1.549999445E+02  0.000000000E+00  0.00000E+00  9.000E+00
      21    -1     0     0   512   502  0.000000000E+00  0.000000000E+00 -5.884029421E+02  5.884029421E+02  0.000000000E+00  0.00000E+00  9.000E+00
      25     1     1     2     0     0 -1.429046721E+02  1.288321670E+02 -1.138009484E+02  2.561154592E+02  1.250000000E+02  0.00000E+00  9.000E+00
      25     1     1     2     0     0  2.090355438E+02 -7.876464808E+01 -1.455094182E+02  2.944447642E+02  1.250000000E+02  0.00000E+00  9.000E+00
      21     1     1     2   512   501 -6.613087171E+01 -5.006751894E+01 -1.740926309E+02  1.928426633E+02  0.000000000E+00  0.00000E+00  9.000E+00
#rwgt            1           1   3.8434085457903069E-002           1      390382           0
</event>
<event>
      5   9999  3.79277E-02  2.55433E+01 -1.00000E+00  1.58055E-01
      -1    -1     0     0     0   501  0.000000000E+00  0.000000000E+00  1.485672911E+03  1.485672911E+03  0.000000000E+00  0.00000E+00  9.000E+00
      21    -1     0     0   501   502  0.000000000E+00  0.000000000E+00 -5.968325649E+01  5.968325649E+01  0.000000000E+00  0.00000E+00  9.000E+00
      25     1     1     2     0     0 -1.113731954E+02  1.096084922E+02  2.376743763E+02  3.106961850E+02  1.250000000E+02  0.00000E+00  9.000E+00
      25     1     1     2     0     0  9.927976491E+01 -8.710943573E+01  3.367701489E+02  3.827318365E+02  1.250000000E+02  0.00000E+00  9.000E+00
      -1     1     1     2     0   502  1.209343050E+01 -2.249905646E+01  8.515451289E+02  8.519281455E+02  0.000000000E+00  0.00000E+00  9.000E+00
#rwgt            1           1   3.4063975222249999E-002           1      390460           0
</event>
<event>
      5   9999  3.79277E-02  2.16405E+01 -1.00000E+00  1.63593E-01
      21    -1     0     0   502   501  0.000000000E+00  0.000000000E+00  2.245959586E+03  2.245959586E+03  0.000000000E+00  0.00000E+00  9.000E+00
      21    -1     0     0   511   502  0.000000000E+00  0.000000000E+00 -2.345681854E+01  2.345681854E+01  0.000000000E+00  0.00000E+00  9.000E+00
      25     1     1     2     0     0  4.790141158E+01  1.788766723E+02  1.200161583E+03  1.220780175E+03  1.250000000E+02  0.00000E+00  9.000E+00
      25     1     1     2     0     0 -5.895058864E+01 -1.602695447E+02  9.187030533E+02  9.427628541E+02  1.250000000E+02  0.00000E+00  9.000E+00
      21     1     1     2   511   501  1.104917706E+01 -1.860712759E+01  1.036381308E+02  1.058733756E+02  0.000000000E+00  0.00000E+00  9.000E+00
#rwgt            1           1   7.5873333976884796E-002           1      390653           0
</event>
<event>
      5   9999  3.79277E-02  7.90688E+01 -1.00000E+00  1.28596E-01
      21    -1     0     0   502   501  0.000000000E+00  0.000000000E+00  1.354639578E+03  1.354639578E+03  0.000000000E+00  0.00000E+00  9.000E+00
      21    -1     0     0   512   502  0.000000000E+00  0.000000000E+00 -4.778043065E+01  4.778043065E+01  0.000000000E+00  0.00000E+00  9.000E+00
      25     1     1     2     0     0  1.076086879E+02  6.808073264E+01  3.399350358E+02  3.839211435E+02  1.250000000E+02  0.00000E+00  9.000E+00
      25     1     1     2     0     0 -1.039808614E+02 -1.470663128E+02  8.465524364E+02  8.744807302E+02  1.250000000E+02  0.00000E+00  9.000E+00
      21     1     1     2   512   501 -3.627826516E+00  7.898558018E+01  1.203716749E+02  1.440181347E+02  0.000000000E+00  0.00000E+00  9.000E+00
#rwgt            2          11   2.4305350038339958E-003           1      390895           0
</event>
<event>
      5   9999  3.79277E-02  1.50739E+02 -1.00000E+00  1.16309E-01
      21    -1     0     0   502   511  0.000000000E+00  0.000000000E+00  9.424648260E+02  9.424648260E+02  0.000000000E+00  0.00000E+00  9.000E+00
      21    -1     0     0   501   502  0.000000000E+00  0.000000000E+00 -1.534734120E+02  1.534734120E+02  0.000000000E+00  0.00000E+00  9.000E+00
      25     1     1     2     0     0  7.182145956E+01 -5.405804100E+01  3.194869706E+02  3.546512628E+02  1.250000000E+02  0.00000E+00  9.000E+00
      25     1     1     2     0     0 -1.588662896E+02  1.771250511E+02  2.268363319E+01  2.697245426E+02  1.250000000E+02  0.00000E+00  9.000E+00
      21     1     1     2   501   511  8.704483003E+01 -1.230670100E+02  4.468208102E+02  4.715624326E+02  5.394796609E-06  0.00000E+00  9.000E+00
#rwgt            1           1   2.9041891826459360E-002           1      390945           0
</event>
<event>
      5   9999  3.79277E-02  5.58938E+01 -1.00000E+00  1.36369E-01
      21    -1     0     0   502   512  0.000000000E+00  0.000000000E+00  4.113810431E+02  4.113810431E+02  0.000000000E+00  0.00000E+00  9.000E+00
      21    -1     0     0   501   502  0.000000000E+00  0.000000000E+00 -1.600658981E+02  1.600658981E+02  0.000000000E+00  0.00000E+00  9.000E+00
      25     1     1     2     0     0  1.170722560E+02 -9.093552861E+01  6.970625955E+01  2.060561722E+02  1.250000000E+02  0.00000E+00  9.000E+00
      25     1     1     2     0     0 -1.317275431E+02  1.448738592E+02  7.344462956E+01  2.436384500E+02  1.250000000E+02  0.00000E+00  9.000E+00
      21     1     1     2   501   512  1.465528712E+01 -5.393833057E+01  1.081642559E+02  1.217523191E+02  1.348699152E-06  0.00000E+00  9.000E+00
#rwgt            1           1   3.8216230060407863E-002           1      391032           0
</event>
<event>
      5   9999  3.79277E-02  7.71217E+00 -1.00000E+00  2.09773E-01
      21    -1     0     0   502   501  0.000000000E+00  0.000000000E+00  4.647444620E+01  4.647444620E+01  0.000000000E+00  0.00000E+00  9.000E+00
      21    -1     0     0   501   511  0.000000000E+00  0.000000000E+00 -1.036817662E+03  1.036817662E+03  0.000000000E+00  0.00000E+00  9.000E+00
      25     1     1     2     0     0  1.246699741E+02 -4.009423202E+00 -7.531172252E+02  7.735432973E+02  1.250000000E+02  0.00000E+00  9.000E+00
      25     1     1     2     0     0 -1.292266094E+02  1.023152663E+01 -1.895550324E+02  2.614580483E+02  1.250000000E+02  0.00000E+00  9.000E+00
      21     1     1     2   502   511  4.556635256E+00 -6.222103430E+00 -4.767095798E+01  4.829076237E+01  0.000000000E+00  0.00000E+00  9.000E+00
#rwgt            1           1   4.4241895780115274E-002           1      391124           0
</event>
<event>
      5   9999  3.79277E-02  6.86623E+01 -1.00000E+00  1.31646E-01
       2    -1     0     0   502     0  0.000000000E+00  0.000000000E+00  2.948438521E+03  2.948438521E+03  0.000000000E+00  0.00000E+00  9.000E+00
      21    -1     0     0   501   502  0.000000000E+00  0.000000000E+00 -1.860448474E+02  1.860448474E+02  0.000000000E+00  0.00000E+00  9.000E+00
      25     1     1     2     0     0  1.241188853E+02 -1.528496346E+02  6.742653053E+01  2.427752984E+02  1.250000000E+02  0.00000E+00  9.000E+00
      25     1     1     2     0     0 -1.580852593E+02  9.317721974E+01  2.792312050E+01  2.237803480E+02  1.250000000E+02  0.00000E+00  9.000E+00
       2     1     1     2   501     0  3.396637397E+01  5.967241482E+01  2.667044023E+03  2.667927722E+03  3.051757812E-05  0.00000E+00  9.000E+00
#rwgt            1           1   3.2150778578737778E-002           1      391383           0
</event>
<event>
      5   9999  3.79277E-02  5.42402E+01 -1.00000E+00  1.37088E-01
      21    -1     0     0   502   511  0.000000000E+00  0.000000000E+00  1.036363258E+02  1.036363258E+02  0.000000000E+00  0.00000E+00  9.000E+00
      21    -1     0     0   501   502  0.000000000E+00  0.000000000E+00 -3.832891000E+02  3.832891000E+02  0.000000000E+00  0.00000E+00  9.000E+00
      25     1     1     2     0     0  6.762426550E+01 -1.248418657E+02 -1.392879442E+02  2.349141633E+02  1.250000000E+02  0.00000E+00  9.000E+00
      25     1     1     2     0     0 -2.858599734E+01  8.718533592E+01 -1.034528735E+02  1.864026263E+02  1.250000000E+02  0.00000E+00  9.000E+00
      21     1     1     2   501   511 -3.903826816E+01  3.765652975E+01 -3.691195656E+01  6.560863625E+01  8.259061849E-07  0.00000E+00  9.000E+00
#rwgt            1           1   3.7453197774360771E-002           1      391530           0
</event>
<event>
      5   9999  3.79277E-02  6.43050E+00 -1.00000E+00  2.20898E-01
       2    -1     0     0   502     0  0.000000000E+00  0.000000000E+00  2.177478720E+03  2.177478720E+03  0.000000000E+00  0.00000E+00  9.000E+00
      21    -1     0     0   501   502  0.000000000E+00  0.000000000E+00 -3.905336933E+01  3.905336933E+01  0.000000000E+00  0.00000E+00  9.000E+00
      25     1     1     2     0     0 -3.924094244E+01 -1.791719014E+02  1.072900854E+03  1.095620219E+03  1.250000000E+02  0.00000E+00  9.000E+00
      25     1     1     2     0     0  4.110880931E+01  1.853251419E+02  4.389556769E+02  4.943100532E+02  1.250000000E+02  0.00000E+00  9.000E+00
       2     1     1     2   501     0 -1.867866860E+00 -6.153240406E+00  6.265688195E+02  6.266018169E+02  7.629394531E-06  0.00000E+00  9.000E+00
#rwgt            1           1   4.5072617525054877E-002           1      391660           0
</event>
<event>
      5   9999  3.79277E-02  3.86940E+01 -1.00000E+00  1.45740E-01
      21    -1     0     0   502   501  0.000000000E+00  0.000000000E+00  1.031587185E+02  1.031587185E+02  0.000000000E+00  0.00000E+00  9.000E+00
      21    -1     0     0   511   502  0.000000000E+00  0.000000000E+00 -3.078684447E+03  3.078684447E+03  0.000000000E+00  0.00000E+00  9.000E+00
      25     1     1     2     0     0  3.541688892E+02 -3.451439936E+02 -2.030951293E+03  2.094026774E+03  1.250000000E+02  0.00000E+00  9.000E+00
      25     1     1     2     0     0 -3.179487704E+02  3.315305372E+02 -7.420418597E+02  8.816206889E+02  1.250000000E+02  0.00000E+00  9.000E+00
      21     1     1     2   511   501 -3.622011880E+01  1.361345641E+01 -2.025325761E+02  2.061957022E+02  2.697398305E-06  0.00000E+00  9.000E+00
#rwgt            1           1  0.21560826872141484                1      392130           0
</event>
<event>
      5   9999  3.79277E-02  4.89029E+01 -1.00000E+00  1.39628E-01
      21    -1     0     0   502   501  0.000000000E+00  0.000000000E+00  3.003638166E+02  3.003638166E+02  0.000000000E+00  0.00000E+00  9.000E+00
      21    -1     0     0   501   512  0.000000000E+00  0.000000000E+00 -2.007447119E+02  2.007447119E+02  0.000000000E+00  0.00000E+00  9.000E+00
      25     1     1     2     0     0  3.727860723E+01  4.465243648E+00  2.379182041E+02  2.713663664E+02  1.250000000E+02  0.00000E+00  9.000E+00
      25     1     1     2     0     0 -9.606584563E+00  3.585540838E+01 -1.209490546E+02  1.778526654E+02  1.250000000E+02  0.00000E+00  9.000E+00
      21     1     1     2   502   512 -2.767202267E+01 -4.032065203E+01 -1.735004485E+01  5.188949677E+01  8.259061849E-07  0.00000E+00  9.000E+00
#rwgt            1           1   3.8834954551273546E-002           1      392340           0
</event>
<event>
      5   9999  3.79277E-02  3.63964E+01 -1.00000E+00  1.47430E-01
      21    -1     0     0   502   511  0.000000000E+00  0.000000000E+00  1.761027148E+02  1.761027148E+02  0.000000000E+00  0.00000E+00  9.000E+00
      21    -1     0     0   501   502  0.000000000E+00  0.000000000E+00 -1.890170791E+02  1.890170791E+02  0.000000000E+00  0.00000E+00  9.000E+00
      25     1     1     2     0     0 -8.329546269E-01  9.468765530E+01 -1.702815783E+01  1.577384038E+02  1.250000000E+02  0.00000E+00  9.000E+00
      25     1     1     2     0     0 -3.121015056E+01 -1.119486153E+02 -6.014639882E-01  1.706807772E+02  1.250000000E+02  0.00000E+00  9.000E+00
      21     1     1     2   501   511  3.204310518E+01  1.726095998E+01  4.715257557E+00  3.670061284E+01  9.721223372E-07  0.00000E+00  9.000E+00
#rwgt            1           1   6.6205774051720248E-002           1      392468           0
</event>
<event>
      5   9999  3.79277E-02  4.69953E+01 -1.00000E+00  1.40629E-01
      21    -1     0     0   502   512  0.000000000E+00  0.000000000E+00  1.417287471E+03  1.417287471E+03  0.000000000E+00  0.00000E+00  9.000E+00
      21    -1     0     0   501   502  0.000000000E+00  0.000000000E+00 -9.998453637E+01  9.998453637E+01  0.000000000E+00  0.00000E+00  9.000E+00
      25     1     1     2     0     0  1.240916717E+01 -4.676301763E+01 -2.514445780E+01  1.363745248E+02  1.250000000E+02  0.00000E+00  9.000E+00
      25     1     1     2     0     0 -5.898750320E+01  5.300935895E+01  2.741338578E+02  3.115507818E+02  1.250000000E+02  0.00000E+00  9.000E+00
      21     1     1     2   501   512  4.657833603E+01 -6.246341319E+00  1.068313535E+03  1.069346701E+03  1.525878906E-05  0.00000E+00  9.000E+00
#rwgt            1           1   3.6686277619049988E-002           1      392544           0
</event>
<event>
      5   9999  3.79277E-02  2.93887E+01 -1.00000E+00  1.53663E-01
      21    -1     0     0   502   501  0.000000000E+00  0.000000000E+00  6.593461620E+02  6.593461620E+02  0.000000000E+00  0.00000E+00  9.000E+00
      21    -1     0     0   501   511  0.000000000E+00  0.000000000E+00 -2.219010764E+02  2.219010764E+02  0.000000000E+00  0.00000E+00  9.000E+00
      25     1     1     2     0     0  2.758063903E+02  1.100358392E+02  2.460150813E+02  4.053707822E+02  1.250000000E+02  0.00000E+00  9.000E+00
      25     1     1     2     0     0 -2.743914382E+02 -1.393904124E+02  2.463672247E+02  4.135724336E+02  1.250000000E+02  0.00000E+00  9.000E+00
      21     1     1     2   502   511 -1.414952187E+00  2.935457316E+01 -5.493722034E+01  6.230402262E+01  6.743495762E-07  0.00000E+00  9.000E+00
#rwgt            1           1   4.4579194114433382E-002           1      392674           0
</event>
<event>
      5   9999  3.79277E-02  5.89099E+01 -1.00000E+00  1.35130E-01
      21    -1     0     0   512   501  0.000000000E+00  0.000000000E+00  7.890171311E+02  7.890171311E+02  0.000000000E+00  0.00000E+00  9.000E+00
      21    -1     0     0   501   502  0.000000000E+00  0.000000000E+00 -1.634064279E+02  1.634064279E+02  0.000000000E+00  0.00000E+00  9.000E+00
      25     1     1     2     0     0 -1.803700472E+02 -3.279269985E+01  5.680368016E+02  6.098356525E+02  1.250000000E+02  0.00000E+00  9.000E+00
      25     1     1     2     0     0  1.902898523E+02  9.086141665E+01 -1.912138779E+01  2.458793452E+02  1.250000000E+02  0.00000E+00  9.000E+00
      21     1     1     2   512   502 -9.919805058E+00 -5.806871680E+01  7.669528942E+01  9.670856127E+01  9.536743164E-07  0.00000E+00  9.000E+00
#rwgt            1           1   3.9324747099126457E-002           1      392958           0
</event>
<event>
      5   9999  3.79277E-02  2.92641E+01 -1.00000E+00  1.53793E-01
      21    -1     0     0   502   501  0.000000000E+00  0.000000000E+00  2.395601866E+02  2.395601866E+02  0.000000000E+00  0.00000E+00  9.000E+00
      21    -1     0     0   501   511  0.000000000E+00  0.000000000E+00 -1.529613103E+02  1.529613103E+02  0.000000000E+00  0.00000E+00  9.000E+00
      25     1     1     2     0     0 -6.582652164E+01  8.619744684E+01  2.687575950E+01  1.676616749E+02  1.250000000E+02  0.00000E+00  9.000E+00
      25     1     1     2     0     0  8.233617629E+01 -1.103598158E+02  6.057472478E+01  1.955833125E+02  1.250000000E+02  0.00000E+00  9.000E+00
      21     1     1     2   502   511 -1.650965464E+01  2.416236893E+01 -8.516080091E-01  2.927650944E+01  2.650983166E-07  0.00000E+00  9.000E+00
#rwgt            1           1   3.7397959730572104E-002           1      393088           0
</event>
<event>
      5   9999  3.79277E-02  5.63566E+01 -1.00000E+00  1.36174E-01
      21    -1     0     0   502   501  0.000000000E+00  0.000000000E+00  2.655601128E+01  2.655601128E+01  0.000000000E+00  0.00000E+00  9.000E+00
      21    -1     0     0   501   512  0.000000000E+00  0.000000000E+00 -1.716782786E+03  1.716782786E+03  0.000000000E+00  0.00000E+00  9.000E+00
      25     1     1     2     0     0  4.304229020E+01  2.918985961E+01 -2.338348046E+02  2.702006708E+02  1.250000000E+02  0.00000E+00  9.000E+00
      25     1     1     2     0     0 -9.939850473E+01 -2.899047713E+01 -9.691939093E+02  9.826913780E+02  1.250000000E+02  0.00000E+00  9.000E+00
      21     1     1     2   502   512  5.635621453E+01 -1.993824757E-01 -4.871980611E+02  4.904467488E+02  7.629394531E-06  0.00000E+00  9.000E+00
#rwgt            1           1   4.8845973983482720E-002           1      393308           0
</event>
<event>
      5   9999  3.79277E-02  1.63378E+01 -1.00000E+00  1.73958E-01
      21    -1     0     0   502   501  0.000000000E+00  0.000000000E+00  1.856762625E+01  1.856762625E+01  0.000000000E+00  0.00000E+00  9.000E+00
      21    -1     0     0   511   502  0.000000000E+00  0.000000000E+00 -2.100972190E+03  2.100972190E+03  0.000000000E+00  0.00000E+00  9.000E+00
      25     1     1     2     0     0  1.356483390E+02  1.918306330E+00 -7.869949955E+02  8.083255994E+02  1.250000000E+02  0.00000E+00  9.000E+00
      25     1     1     2     0     0 -1.352402850E+02 -1.825104185E+01 -1.136727041E+03  1.151692841E+03  1.250000000E+02  0.00000E+00  9.000E+00
      21     1     1     2   511   501 -4.080540037E-01  1.633273552E+01 -1.586825274E+02  1.595213755E+02  0.000000000E+00  0.00000E+00  9.000E+00
#rwgt            1           1   9.4696241199861905E-002           1      393416           0
</event>
<event>
      5   9999  3.79277E-02  5.12124E+01 -1.00000E+00  1.38484E-01
      21    -1     0     0   502   501  0.000000000E+00  0.000000000E+00  2.643752781E+03  2.643752781E+03  0.000000000E+00  0.00000E+00  9.000E+00
      21    -1     0     0   512   502  0.000000000E+00  0.000000000E+00 -4.167803679E+01  4.167803679E+01  0.000000000E+00  0.00000E+00  9.000E+00
      25     1     1     2     0     0 -1.759286315E+02  6.264845783E+01  2.213500599E+03  2.224878787E+03  1.250000000E+02  0.00000E+00  9.000E+00
      25     1     1     2     0     0  1.262459155E+02 -7.507181195E+01  2.742221140E+02  3.352559857E+02  1.250000000E+02  0.00000E+00  9.000E+00
      21     1     1     2   512   501  4.968271608E+01  1.242335411E+01  1.143520306E+02  1.252960451E+02  1.348699152E-06  0.00000E+00  9.000E+00
#rwgt            1           1   9.3300294216703675E-002           1      393586           0
</event>
<event>
      5   9999  3.79277E-02  1.34662E+01 -1.00000E+00  1.81914E-01
      21    -1     0     0   511   501  0.000000000E+00  0.000000000E+00  8.706878897E+01  8.706878897E+01  0.000000000E+00  0.00000E+00  9.000E+00
      21    -1     0     0   501   502  0.000000000E+00  0.000000000E+00 -3.583239167E+02  3.583239167E+02  0.000000000E+00  0.00000E+00  9.000E+00
      25     1     1     2     0     0  1.403863030E+01 -1.192821046E+02 -1.279421088E+02  2.154518202E+02  1.250000000E+02  0.00000E+00  9.000E+00
      25     1     1     2     0     0 -1.032791522E+01  1.063372257E+02 -1.402669993E+02  2.161344547E+02  1.250000000E+02  0.00000E+00  9.000E+00
      21     1     1     2   511   502 -3.710715083E+00  1.294487886E+01 -3.046019611E+00  1.380643077E+01  3.576278687E-07  0.00000E+00  9.000E+00
#rwgt            1           1   3.3293255944292610E-002           1      393741           0
</event>
<event>
      5   9999  3.79277E-02  5.07604E+01 -1.00000E+00  1.38703E-01
      21    -1     0     0   502   512  0.000000000E+00  0.000000000E+00  3.421305800E+02  3.421305800E+02  0.000000000E+00  0.00000E+00  9.000E+00
      21    -1     0     0   501   502  0.000000000E+00  0.000000000E+00 -2.100211332E+02  2.100211332E+02  0.000000000E+00  0.00000E+00  9.000E+00
      25     1     1     2     0     0 -8.312344999E+01  4.351495990E+01  7.185569239E+01  1.720212202E+02  1.250000000E+02  0.00000E+00  9.000E+00
      25     1     1     2     0     0  1.310506483E+02 -2.679357207E+01 -1.023801853E+02  2.097590767E+02  1.250000000E+02  0.00000E+00  9.000E+00
      21     1     1     2   501   512 -4.792719832E+01 -1.672138783E+01  1.626339397E+02  1.703714163E+02  1.907348633E-06  0.00000E+00  9.000E+00
#rwgt            1           1   3.5260935266839037E-002           1      393919           0
</event>
<event>
      5   9999  3.79277E-02  4.66038E+01 -1.00000E+00  1.40841E-01
      21    -1     0     0   502   501  0.000000000E+00  0.000000000E+00  8.621911592E+01  8.621911592E+01  0.000000000E+00  0.00000E+00  9.000E+00
      21    -1     0     0   501   511  0.000000000E+00  0.000000000E+00 -1.946372028E+03  1.946372028E+03  0.000000000E+00  0.00000E+00  9.000E+00
      25     1     1     2     0     0  9.002266431E+01 -1.915186854E+02 -1.514648558E+02  2.887041556E+02  1.250000000E+02  0.00000E+00  9.000E+00
      25     1     1     2     0     0 -7.153295873E+01  2.342977076E+02 -1.116723134E+03  1.150090404E+03  1.250000000E+02  0.00000E+00  9.000E+00
      21     1     1     2   502   511 -1.848970558E+01 -4.277902227E+01 -5.919649224E+02  5.937965842E+02  1.078959322E-05  0.00000E+00  9.000E+00
#rwgt            1           1   2.4255961436629798E-002           1      394210           0
</event>
<event>
      5   9999 -3.79277E-02  1.34334E+02 -1.00000E+00  1.18324E-01
      21    -1     0     0   502   501  0.000000000E+00  0.000000000E+00  1.781688747E+02  1.781688747E+02  0.000000000E+00  0.00000E+00  9.000E+00
      21    -1     0     0   501   512  0.000000000E+00  0.000000000E+00 -7.291470567E+02  7.291470567E+02  0.000000000E+00  0.00000E+00  9.000E+00
      25     1     1     2     0     0 -3.010404193E+01  2.221741861E+02 -1.847171802E+02  3.162484134E+02  1.250000000E+02  0.00000E+00  9.000E+00
      25     1     1     2     0     0  1.640035506E+02 -2.329715575E+02 -1.738456422E+02  3.563989597E+02  1.250000000E+02  0.00000E+00  9.000E+00
      21     1     1     2   502   512 -1.338995087E+02  1.079737138E+01 -1.924153596E+02  2.346685583E+02  2.697398305E-06  0.00000E+00  9.000E+00
#rwgt            1           1 -0.19977103051018286                1      394531           0
</event>
<event>
      5   9999 -3.79277E-02  5.06298E+01 -1.00000E+00  1.38766E-01
      21    -1     0     0   502   511  0.000000000E+00  0.000000000E+00  1.602393403E+03  1.602393403E+03  0.000000000E+00  0.00000E+00  9.000E+00
      21    -1     0     0   501   502  0.000000000E+00  0.000000000E+00 -2.501185414E+01  2.501185414E+01  0.000000000E+00  0.00000E+00  9.000E+00
      25     1     1     2     0     0 -6.913138260E+01 -1.196130259E+02  7.734118957E+02  7.955359102E+02  1.250000000E+02  0.00000E+00  9.000E+00
      25     1     1     2     0     0  6.030403877E+01  6.975866344E+01  4.956290367E+02  5.193996440E+02  1.250000000E+02  0.00000E+00  9.000E+00
      21     1     1     2   501   511  8.827343829E+00  4.985436249E+01  3.083406166E+02  3.124697030E+02  0.000000000E+00  0.00000E+00  9.000E+00
#rwgt            1           1  -5.2852218894586044E-002           1      394727           0
</event>
<event>
      5   9999  3.79277E-02  1.18467E+01 -1.00000E+00  1.87617E-01
      21    -1     0     0   512   501  0.000000000E+00  0.000000000E+00  1.798655631E+03  1.798655631E+03  0.000000000E+00  0.00000E+00  9.000E+00
      21    -1     0     0   501   502  0.000000000E+00  0.000000000E+00 -3.814518974E+02  3.814518974E+02  0.000000000E+00  0.00000E+00  9.000E+00
      25     1     1     2     0     0  4.716136265E+01  2.542728103E+02 -1.019889583E+01  2.874158549E+02  1.250000000E+02  0.00000E+00  9.000E+00
      25     1     1     2     0     0 -3.548132114E+01 -2.522927617E+02 -1.460703455E+02  3.191741023E+02  1.250000000E+02  0.00000E+00  9.000E+00
      21     1     1     2   512   502 -1.168004150E+01 -1.980048594E+00  1.573472975E+03  1.573517571E+03  2.157918644E-05  0.00000E+00  9.000E+00
#rwgt            1           1   4.2639823524999169E-002           1      394880           0
</event>
<event>
      5   9999  3.79277E-02  1.70005E+02 -1.00000E+00  1.14279E-01
      21    -1     0     0   502   501  0.000000000E+00  0.000000000E+00  7.292420084E+02  7.292420084E+02  0.000000000E+00  0.00000E+00  9.000E+00
      21    -1     0     0   501   511  0.000000000E+00  0.000000000E+00 -1.897553739E+02  1.897553739E+02  0.000000000E+00  0.00000E+00  9.000E+00
      25     1     1     2     0     0  2.059692578E+02 -1.898157678E+02  4.332828248E+02  5.308600259E+02  1.250000000E+02  0.00000E+00  9.000E+00
      25     1     1     2     0     0 -5.081469978E+01  1.203263843E+02 -1.182400318E+01  1.811777567E+02  1.250000000E+02  0.00000E+00  9.000E+00
      21     1     1     2   502   511 -1.551545580E+02  6.948938347E+01  1.180278129E+02  2.069595997E+02  1.907348633E-06  0.00000E+00  9.000E+00
#rwgt            1           1   2.9187941394933217E-002           1      395124           0
</event>
<event>
      5   9999 -3.79277E-02  6.50348E+01 -1.00000E+00  1.32860E-01
      21    -1     0     0   502   501  0.000000000E+00  0.000000000E+00  8.283911049E+01  8.283911049E+01  0.000000000E+00  0.00000E+00  9.000E+00
      21    -1     0     0   501   512  0.000000000E+00  0.000000000E+00 -1.477536815E+03  1.477536815E+03  0.000000000E+00  0.00000E+00  9.000E+00
      25     1     1     2     0     0 -9.533585122E+01 -6.198196966E+01 -4.190992964E+01  1.741037946E+02  1.250000000E+02  0.00000E+00  9.000E+00
      25     1     1     2     0     0  3.648657056E+01  3.430009713E+01 -2.717844957E+02  3.033143231E+02  1.250000000E+02  0.00000E+00  9.000E+00
      21     1     1     2   502   512  5.884928067E+01  2.768187253E+01 -1.081003279E+03  1.082957807E+03  2.157918644E-05  0.00000E+00  9.000E+00
#rwgt            1           1  -2.7601173571601967E-002           1      395232           0
</event>
<event>
      5   9999  3.79277E-02  4.06927E+01 -1.00000E+00  1.44379E-01
      21    -1     0     0   502   501  0.000000000E+00  0.000000000E+00  3.891872296E+02  3.891872296E+02  0.000000000E+00  0.00000E+00  9.000E+00
      -1    -1     0     0     0   502  0.000000000E+00  0.000000000E+00 -2.863083226E+02  2.863083226E+02  0.000000000E+00  0.00000E+00  9.000E+00
      25     1     1     2     0     0 -7.537082671E+00 -9.309452160E+01  2.869906155E+02  3.266680439E+02  1.250000000E+02  0.00000E+00  9.000E+00
      25     1     1     2     0     0 -7.234116485E+00  1.310116740E+02 -2.302297059E+01  1.826785383E+02  1.250000000E+02  0.00000E+00  9.000E+00
      -1     1     1     2     0   501  1.477119916E+01 -3.791715241E+01 -1.610887379E+02  1.661489701E+02  2.697398305E-06  0.00000E+00  9.000E+00
#rwgt            1           1   4.5336292439441192E-002           1      395302           0
</event>
<event>
      5   9999  3.79277E-02  1.65720E+01 -1.00000E+00  1.73401E-01
      21    -1     0     0   502   511  0.000000000E+00  0.000000000E+00  3.013848569E+02  3.013848569E+02  0.000000000E+00  0.00000E+00  9.000E+00
      21    -1     0     0   501   502  0.000000000E+00  0.000000000E+00 -1.235023543E+02  1.235023543E+02  0.000000000E+00  0.00000E+00  9.000E+00
      25     1     1     2     0     0  1.091730996E+02 -1.429086528E+00  1.149488730E+02  2.018887104E+02  1.250000000E+02  0.00000E+00  9.000E+00
      25     1     1     2     0     0 -1.245183160E+02  7.686420978E+00  2.092478123E+01  1.778390805E+02  1.250000000E+02  0.00000E+00  9.000E+00
      21     1     1     2   501   511  1.534521634E+01 -6.257334450E+00  4.200884838E+01  4.515942029E+01  8.259061849E-07  0.00000E+00  9.000E+00
#rwgt            1           1   4.6041562281137809E-002           1      395417           0
</event>
<event>
      5   9999  3.79277E-02  1.87442E+01 -1.00000E+00  1.68727E-01
      21    -1     0     0   502   501  0.000000000E+00  0.000000000E+00  1.034741878E+02  1.034741878E+02  0.000000000E+00  0.00000E+00  9.000E+00
      21    -1     0     0   501   512  0.000000000E+00  0.000000000E+00 -3.729999825E+02  3.729999825E+02  0.000000000E+00  0.00000E+00  9.000E+00
      25     1     1     2     0     0 -8.356420672E+01  5.583169993E+01 -1.678380858E+01  1.612663994E+02  1.250000000E+02  0.00000E+00  9.000E+00
      25     1     1     2     0     0  1.019801927E+02 -5.233935126E+01 -2.266200916E+02  2.830565903E+02  1.250000000E+02  0.00000E+00  9.000E+00
      21     1     1     2   502   512 -1.841598602E+01 -3.492348668E+00 -2.612189450E+01  3.215118058E+01  3.371747881E-07  0.00000E+00  9.000E+00
#rwgt            1           1   2.5124712549346666E-002           1      395758           0
</event>
<event>
      5   9999  3.79277E-02  3.94843E+01 -1.00000E+00  1.45191E-01
      21    -1     0     0   502   511  0.000000000E+00  0.000000000E+00  2.620017837E+02  2.620017837E+02  0.000000000E+00  0.00000E+00  9.000E+00
      21    -1     0     0   501   502  0.000000000E+00  0.000000000E+00 -1.882920412E+02  1.882920412E+02  0.000000000E+00  0.00000E+00  9.000E+00
      25     1     1     2     0     0  4.241858297E+01  7.339813802E+01 -7.658140697E+01  1.693408833E+02  1.250000000E+02  0.00000E+00  9.000E+00
      25     1     1     2     0     0 -8.167549131E+01 -6.916703485E+01  4.817119013E+01  1.714655305E+02  1.250000000E+02  0.00000E+00  9.000E+00
      21     1     1     2   501   511  3.925690834E+01 -4.231103173E+00  1.021199594E+02  1.094874111E+02  0.000000000E+00  0.00000E+00  9.000E+00
#rwgt            1           1   4.3351291346466002E-002           1      395927           0
</event>
<event>
      5   9999  3.79277E-02  1.88660E+01 -1.00000E+00  1.68488E-01
      21    -1     0     0   502   512  0.000000000E+00  0.000000000E+00  1.830357238E+02  1.830357238E+02  0.000000000E+00  0.00000E+00  9.000E+00
      21    -1     0     0   501   502  0.000000000E+00  0.000000000E+00 -3.480719523E+02  3.480719523E+02  0.000000000E+00  0.00000E+00  9.000E+00
      25     1     1     2     0     0 -1.929128748E+02 -1.102635036E+01 -1.515256420E+02  2.755394307E+02  1.250000000E+02  0.00000E+00  9.000E+00
      25     1     1     2     0     0  1.984471180E+02  2.906233960E+01 -1.328309055E+01  2.367009057E+02  1.250000000E+02  0.00000E+00  9.000E+00
      21     1     1     2   501   512 -5.534243234E+00 -1.803598924E+01 -2.274959726E-01  1.886733978E+01  4.115813612E-07  0.00000E+00  9.000E+00
#rwgt            1           1   3.4140050276816429E-002           1      396102           0
</event>
<event>
      5   9999  3.79277E-02  5.19133E+01 -1.00000E+00  1.38151E-01
      21    -1     0     0   502   501  0.000000000E+00  0.000000000E+00  2.085058527E+03  2.085058527E+03  0.000000000E+00  0.00000E+00  9.000E+00
      21    -1     0     0   501   511  0.000000000E+00  0.000000000E+00 -4.239628265E+02  4.239628265E+02  0.000000000E+00  0.00000E+00  9.000E+00
      25     1     1     2     0     0  2.496927381E+02  8.336925769E+01  8.835705554E+02  9.303863837E+02  1.250000000E+02  0.00000E+00  9.000E+00
      25     1     1     2     0     0 -2.483054261E+02 -3.147446546E+01  1.159690447E+03  1.192959832E+03  1.250000000E+02  0.00000E+00  9.000E+00
      21     1     1     2   502   511 -1.387311977E+00 -5.189479222E+01 -3.821653021E+02  3.856751382E+02  9.344061824E-06  0.00000E+00  9.000E+00
#rwgt            1           1   9.1131653622357131E-002           1      396289           0
</event>
<event>
      5   9999  3.79277E-02  2.98414E+01 -1.00000E+00  1.53200E-01
      21    -1     0     0   502   501  0.000000000E+00  0.000000000E+00  7.894686254E+02  7.894686254E+02  0.000000000E+00  0.00000E+00  9.000E+00
      21    -1     0     0   512   502  0.000000000E+00  0.000000000E+00 -7.720617905E+01  7.720617905E+01  0.000000000E+00  0.00000E+00  9.000E+00
      25     1     1     2     0     0  1.854305169E+02 -3.992344097E+01  4.810592514E+02  5.319975198E+02  1.250000000E+02  0.00000E+00  9.000E+00
      25     1     1     2     0     0 -1.643913106E+02  1.876076615E+01  2.212069065E+02  3.032061424E+02  1.250000000E+02  0.00000E+00  9.000E+00
      21     1     1     2   512   501 -2.103920629E+01  2.116267482E+01  9.996288489E+00  3.147114218E+01  6.951036328E-07  0.00000E+00  9.000E+00
#rwgt            1           1   9.9446080243699830E-002           1      396457           0
</event>
<event>
      5   9999  3.79277E-02  1.10365E+02 -1.00000E+00  1.21932E-01
       1    -1     0     0   502     0  0.000000000E+00  0.000000000E+00  3.450989845E+03  3.450989845E+03  0.000000000E+00  0.00000E+00  9.000E+00
      21    -1     0     0   501   502  0.000000000E+00  0.000000000E+00 -2.565887031E+01  2.565887031E+01  0.000000000E+00  0.00000E+00  9.000E+00
      25     1     1     2     0     0 -1.683618496E+02 -1.687089494E+01  1.002378533E+03  1.024215828E+03  1.250000000E+02  0.00000E+00  9.000E+00
      25     1     1     2     0     0  1.759035845E+02 -9.323589522E+01  1.097473951E+03  1.122367621E+03  1.250000000E+02  0.00000E+00  9.000E+00
       1     1     1     2   501     0 -7.541734928E+00  1.101067902E+02  1.325478490E+03  1.330065266E+03  1.525878906E-05  0.00000E+00  9.000E+00
#rwgt            1           1   9.2923472182330977E-002           1      396720           0
</event>
<event>
      5   9999  3.79277E-02  7.11239E+01 -1.00000E+00  1.30871E-01
      21    -1     0     0   511   501  0.000000000E+00  0.000000000E+00  1.124360808E+02  1.124360808E+02  0.000000000E+00  0.00000E+00  9.000E+00
      21    -1     0     0   501   502  0.000000000E+00  0.000000000E+00 -5.895283181E+02  5.895283181E+02  0.000000000E+00  0.00000E+00  9.000E+00
      25     1     1     2     0     0  1.079097741E+01 -6.867122502E+01 -4.175544965E+02  4.413716573E+02  1.250000000E+02  0.00000E+00  9.000E+00
      25     1     1     2     0     0 -6.440585659E+01  1.154050515E+02 -5.122136103E+01  1.889843065E+02  1.250000000E+02  0.00000E+00  9.000E+00
      21     1     1     2   511   502  5.361487918E+01 -4.673382651E+01 -8.316379748E+00  7.160843513E+01  9.156639275E-07  0.00000E+00  9.000E+00
#rwgt            1           1   2.7240215144891253E-002           1      396988           0
</event>
<event>
      5   9999  3.79277E-02  2.88458E+01 -1.00000E+00  1.54233E-01
      21    -1     0     0   512   501  0.000000000E+00  0.000000000E+00  6.364419465E+02  6.364419465E+02  0.000000000E+00  0.00000E+00  9.000E+00
      21    -1     0     0   501   502  0.000000000E+00  0.000000000E+00 -2.080573799E+02  2.080573799E+02  0.000000000E+00  0.00000E+00  9.000E+00
      25     1     1     2     0     0 -2.746601348E+02  7.309935630E+01  4.487491746E+01  3.137203592E+02  1.250000000E+02  0.00000E+00  9.000E+00
      25     1     1     2     0     0  3.026455392E+02 -8.009207001E+01  3.630218566E+02  4.953977497E+02  1.250000000E+02  0.00000E+00  9.000E+00
      21     1     1     2   512   502 -2.798540438E+01  6.992713718E+00  2.048779251E+01  3.538121741E+01  6.307962682E-07  0.00000E+00  9.000E+00
#rwgt            1           1   3.3762116057595930E-002           1      397067           0
</event>
<event>
      5   9999  3.79277E-02  2.15908E+01 -1.00000E+00  1.63672E-01
      21    -1     0     0   502   501  0.000000000E+00  0.000000000E+00  1.795981713E+02  1.795981713E+02  0.000000000E+00  0.00000E+00  9.000E+00
      21    -1     0     0   501   511  0.000000000E+00  0.000000000E+00 -2.739674729E+02  2.739674729E+02  0.000000000E+00  0.00000E+00  9.000E+00
      25     1     1     2     0     0 -5.976378460E+01  9.235575711E+01 -1.532581586E+02  2.263058970E+02  1.250000000E+02  0.00000E+00  9.000E+00
      25     1     1     2     0     0  7.311292246E+01 -1.093252836E+02  7.886629303E+01  1.978444066E+02  1.250000000E+02  0.00000E+00  9.000E+00
      21     1     1     2   502   511 -1.334913786E+01  1.696952646E+01 -1.997743604E+01  2.941534056E+01  2.384185791E-07  0.00000E+00  9.000E+00
#rwgt            1           1   4.4681537168698854E-002           1      397253           0
</event>
<event>
      5   9999  3.79277E-02  5.34128E+01 -1.00000E+00  1.37459E-01
      21    -1     0     0   502   512  0.000000000E+00  0.000000000E+00  9.690530224E+02  9.690530224E+02  0.000000000E+00  0.00000E+00  9.000E+00
      21    -1     0     0   501   502  0.000000000E+00  0.000000000E+00 -1.597379925E+02  1.597379925E+02  0.000000000E+00  0.00000E+00  9.000E+00
      25     1     1     2     0     0  1.058910133E+02  3.481695256E+02  4.024818716E+02  5.568227565E+02  1.250000000E+02  0.00000E+00  9.000E+00
      25     1     1     2     0     0 -1.219567697E+02 -2.972301344E+02  3.220511421E+02  4.717638653E+02  1.250000000E+02  0.00000E+00  9.000E+00
      21     1     1     2   501   512  1.606575643E+01 -5.093939115E+01  8.478201620E+01  1.002043930E+02  9.536743164E-07  0.00000E+00  9.000E+00
#rwgt            1           1  0.42025306331507317                1      397425           0
</event>
<event>
      5   9999  3.79277E-02  3.55353E+01 -1.00000E+00  1.48102E-01
      21    -1     0     0   511   501  0.000000000E+00  0.000000000E+00  7.860600722E+01  7.860600722E+01  0.000000000E+00  0.00000E+00  9.000E+00
      21    -1     0     0   501   502  0.000000000E+00  0.000000000E+00 -5.606804309E+02  5.606804309E+02  0.000000000E+00  0.00000E+00  9.000E+00
      25     1     1     2     0     0 -1.368272463E+01  2.650698354E+01 -4.382960917E+02  4.567475245E+02  1.250000000E+02  0.00000E+00  9.000E+00
      25     1     1     2     0     0  2.526656154E+01 -6.010116098E+01 -4.135553353E+01  1.469211654E+02  1.250000000E+02  0.00000E+00  9.000E+00
      21     1     1     2   511   502 -1.158383690E+01  3.359417744E+01 -2.422798410E+00  3.561774821E+01  7.667947012E-07  0.00000E+00  9.000E+00
#rwgt            1           1   4.9357249328885397E-002           1      397632           0
</event>
<event>
      5   9999  3.79277E-02  7.78085E+01 -1.00000E+00  1.28936E-01
      21    -1     0     0   502   512  0.000000000E+00  0.000000000E+00  4.479863451E+01  4.479863451E+01  0.000000000E+00  0.00000E+00  9.000E+00
      21    -1     0     0   501   502  0.000000000E+00  0.000000000E+00 -1.659459677E+03  1.659459677E+03  0.000000000E+00  0.00000E+00  9.000E+00
      25     1     1     2     0     0 -2.067844178E+02  5.901963904E+01 -1.053915184E+03  1.082869026E+03  1.250000000E+02  0.00000E+00  9.000E+00
      25     1     1     2     0     0  1.290215914E+02 -6.168585297E+01 -3.973910404E+02  4.404501726E+02  1.250000000E+02  0.00000E+00  9.000E+00
      21     1     1     2   501   512  7.776282646E+01  2.666213925E+00 -1.633548183E+02  1.809391128E+02  2.697398305E-06  0.00000E+00  9.000E+00
#rwgt            1           1   5.5136058087388778E-002           1      397764           0
</event>
<event>
      5   9999  3.79277E-02  4.19654E+01 -1.00000E+00  1.43560E-01
      21    -1     0     0   502   501  0.000000000E+00  0.000000000E+00  1.197596394E+03  1.197596394E+03  0.000000000E+00  0.00000E+00  9.000E+00
      21    -1     0     0   501   511  0.000000000E+00  0.000000000E+00 -3.683628576E+01  3.683628576E+01  0.000000000E+00  0.00000E+00  9.000E+00
      25     1     1     2     0     0  4.133655787E+01 -9.810631362E+01  5.297878463E+02  5.546473851E+02  1.250000000E+02  0.00000E+00  9.000E+00
      25     1     1     2     0     0 -7.723706989E+00  1.232314570E+02  6.059885686E+02  6.309459509E+02  1.250000000E+02  0.00000E+00  9.000E+00
      21     1     1     2   502   511 -3.361285088E+01 -2.512514338E+01  2.498369357E+01  4.883934396E+01  1.617033478E-06  0.00000E+00  9.000E+00
#rwgt            1           1   3.4751378380637694E-002           1      398024           0
</event>
<event>
      5   9999  3.79277E-02  1.82441E+01 -1.00000E+00  1.69731E-01
      21    -1     0     0   502   501  0.000000000E+00  0.000000000E+00  1.404048159E+02  1.404048159E+02  0.000000000E+00  0.00000E+00  9.000E+00
      21    -1     0     0   501   512  0.000000000E+00  0.000000000E+00 -2.935341564E+02  2.935341564E+02  0.000000000E+00  0.00000E+00  9.000E+00
      25     1     1     2     0     0 -6.592990410E+01 -1.058242827E+02 -3.221799149E+01  1.794673509E+02  1.250000000E+02  0.00000E+00  9.000E+00
      25     1     1     2     0     0  5.042072548E+01  1.154321577E+02 -5.455928488E+01  1.856570714E+02  1.250000000E+02  0.00000E+00  9.000E+00
      21     1     1     2   502   512  1.550917862E+01 -9.607874980E+00 -6.635206415E+01  6.881455006E+01  9.536743164E-07  0.00000E+00  9.000E+00
#rwgt            1           1   4.5381508992469607E-002           1      398129           0
</event>
<event>
      5   9999  3.79277E-02  1.57064E+02 -1.00000E+00  1.15607E-01
      21    -1     0     0   502   511  0.000000000E+00  0.000000000E+00  4.276848017E+02  4.276848017E+02  0.000000000E+00  0.00000E+00  9.000E+00
      21    -1     0     0   501   502  0.000000000E+00  0.000000000E+00 -9.498918814E+02  9.498918814E+02  0.000000000E+00  0.00000E+00  9.000E+00
      25     1     1     2     0     0 -7.700098410E+01  1.751132121E+01 -4.418594664E+02  4.659405391E+02  1.250000000E+02  0.00000E+00  9.000E+00
      25     1     1     2     0     0 -1.395323871E+01 -1.455598840E+02 -4.611758571E+02  4.996904480E+02  1.250000000E+02  0.00000E+00  9.000E+00
      21     1     1     2   501   511  9.095422281E+01  1.280485628E+02  3.808282439E+02  4.119456960E+02  5.394796609E-06  0.00000E+00  9.000E+00
#rwgt            2          11   1.0836034473571505E-002           1      398280           0
</event>
<event>
      5   9999  3.79277E-02  1.87411E+01 -1.00000E+00  1.68733E-01
      21    -1     0     0   502   501  0.000000000E+00  0.000000000E+00  5.165334779E+02  5.165334779E+02  0.000000000E+00  0.00000E+00  9.000E+00
      21    -1     0     0   501   512  0.000000000E+00  0.000000000E+00 -8.923501582E+01  8.923501582E+01  0.000000000E+00  0.00000E+00  9.000E+00
      25     1     1     2     0     0 -1.418831480E+02  4.504574520E+01  2.334907054E+02  3.038138515E+02  1.250000000E+02  0.00000E+00  9.000E+00
      25     1     1     2     0     0  1.536388447E+02 -3.045012115E+01  1.990952897E+02  2.824819266E+02  1.250000000E+02  0.00000E+00  9.000E+00
      21     1     1     2   502   512 -1.175569673E+01 -1.459562404E+01 -5.287533031E+00  1.947271559E+01  3.722308873E-07  0.00000E+00  9.000E+00
#rwgt            1           1   2.7180843944650507E-002           1      398360           0
</event>
<event>
      5   9999  3.79277E-02  1.22654E+02 -1.00000E+00  1.19966E-01
      21    -1     0     0   511   501  0.000000000E+00  0.000000000E+00  1.563478791E+02  1.563478791E+02  0.000000000E+00  0.00000E+00  9.000E+00
      21    -1     0     0   501   502  0.000000000E+00  0.000000000E+00 -9.447123111E+02  9.447123111E+02  0.000000000E+00  0.00000E+00  9.000E+00
      25     1     1     2     0     0  3.590421114E+01  1.594594470E+02 -2.310326023E+02  3.093824348E+02  1.250000000E+02  0.00000E+00  9.000E+00
      25     1     1     2     0     0 -1.575732701E+02 -1.439459671E+02 -6.099679817E+02  6.582064385E+02  1.250000000E+02  0.00000E+00  9.000E+00
      21     1     1     2   511   502  1.216690589E+02 -1.551347990E+01  5.263615206E+01  1.334713170E+02  2.336015456E-06  0.00000E+00  9.000E+00
#rwgt            1           1  0.24125614297568237                1      398532           0
</event>
<event>
      5   9999  3.79277E-02  3.76023E+01 -1.00000E+00  1.46525E-01
       2    -1     0     0   502     0  0.000000000E+00  0.000000000E+00  1.022787255E+03  1.022787255E+03  0.000000000E+00  0.00000E+00  9.000E+00
      21    -1     0     0   501   502  0.000000000E+00  0.000000000E+00 -1.423600958E+02  1.423600958E+02  0.000000000E+00  0.00000E+00  9.000E+00
      25     1     1     2     0     0  2.428071224E+01  1.414411536E+02  2.139004780E+02  2.863102643E+02  1.250000000E+02  0.00000E+00  9.000E+00
      25     1     1     2     0     0 -1.898534720E+01 -1.786687559E+02  7.778999523E+00  2.190170783E+02  1.250000000E+02  0.00000E+00  9.000E+00
       2     1     1     2   501     0 -5.295365037E+00  3.722760226E+01  6.587476820E+02  6.598200086E+02  7.629394531E-06  0.00000E+00  9.000E+00
#rwgt            1           1   3.7454666913813377E-002           1      398597           0
</event>
<event>
      5   9999  3.79277E-02  5.76799E+01 -1.00000E+00  1.35625E-01
      21    -1     0     0   511   501  0.000000000E+00  0.000000000E+00  3.958501360E+02  3.958501360E+02  0.000000000E+00  0.00000E+00  9.000E+00
      21    -1     0     0   501   502  0.000000000E+00  0.000000000E+00 -3.213051082E+02  3.213051082E+02  0.000000000E+00  0.00000E+00  9.000E+00
      25     1     1     2     0     0 -2.447900900E+01  2.799671844E+02 -1.197930096E+02  3.300851578E+02  1.250000000E+02  0.00000E+00  9.000E+00
      25     1     1     2     0     0 -2.224157002E+01 -2.461417639E+02  1.570465166E+02  3.183850872E+02  1.250000000E+02  0.00000E+00  9.000E+00
      21     1     1     2   511   502  4.672057903E+01 -3.382542052E+01  3.729152087E+01  6.868499914E+01  1.168007728E-06  0.00000E+00  9.000E+00
#rwgt            1           1   3.5528552735778471E-002           1      398679           0
</event>
<event>
      5   9999  3.79277E-02  6.04015E+01 -1.00000E+00  1.34549E-01
      21    -1     0     0   502   501  0.000000000E+00  0.000000000E+00  1.435014255E+02  1.435014255E+02  0.000000000E+00  0.00000E+00  9.000E+00
      21    -1     0     0   512   502  0.000000000E+00  0.000000000E+00 -2.937292177E+02  2.937292177E+02  0.000000000E+00  0.00000E+00  9.000E+00
      25     1     1     2     0     0 -4.772757864E+01  1.190529308E+02 -5.310498171E+01  1.868064805E+02  1.250000000E+02  0.00000E+00  9.000E+00
      25     1     1     2     0     0 -1.254783989E+01 -1.151518233E+02 -7.109681397E+01  1.846541298E+02  1.250000000E+02  0.00000E+00  9.000E+00
      21     1     1     2   512   501  6.027541853E+01 -3.901107455E+00 -2.602599654E+01  6.577003280E+01  8.920806376E-07  0.00000E+00  9.000E+00
#rwgt            1           1   3.3724534841406632E-002           1      398809           0
</event>
<event>
      5   9999  3.79277E-02  1.94476E+02 -1.00000E+00  1.12093E-01
      21    -1     0     0   502   501  0.000000000E+00  0.000000000E+00  9.169455792E+02  9.169455792E+02  0.000000000E+00  0.00000E+00  9.000E+00
      -1    -1     0     0     0   502  0.000000000E+00  0.000000000E+00 -4.535824275E+02  4.535824275E+02  0.000000000E+00  0.00000E+00  9.000E+00
      25     1     1     2     0     0  4.014095850E+01 -9.630173829E+01  1.983458150E+01  1.640235714E+02  1.250000000E+02  0.00000E+00  9.000E+00
      25     1     1     2     0     0 -2.044504072E+02 -7.732935273E+00  7.810186963E+02  8.169914144E+02  1.250000000E+02  0.00000E+00  9.000E+00
      -1     1     1     2     0   501  1.643094487E+02  1.040346736E+02 -3.374901261E+02  3.895130209E+02  6.607249480E-06  0.00000E+00  9.000E+00
#rwgt            2          10   2.0853960339615595E-004           1      398883           0
</event>
<event>
      5   9999 -3.79277E-02  3.42373E+01 -1.00000E+00  1.49159E-01
      21    -1     0     0   511   501  0.000000000E+00  0.000000000E+00  1.280010313E+02  1.280010313E+02  0.000000000E+00  0.00000E+00  9.000E+00
      21    -1     0     0   501   502  0.000000000E+00  0.000000000E+00 -6.552285784E+02  6.552285784E+02  0.000000000E+00  0.00000E+00  9.000E+00
      25     1     1     2     0     0 -2.127616520E+01 -7.454328059E+01 -4.844633671E+02  5.062994469E+02  1.250000000E+02  0.00000E+00  9.000E+00
      25     1     1     2     0     0  4.725745866E+01  9.684047566E+01 -1.121656037E+02  1.995431476E+02  1.250000000E+02  0.00000E+00  9.000E+00
      21     1     1     2   511   502 -2.598129346E+01 -2.229719506E+01  6.940142364E+01  7.738701520E+01  1.907348633E-06  0.00000E+00  9.000E+00
#rwgt            1           1  -6.0679240613800631E-002           1      398917           0
</event>
<event>
      5   9999  3.79277E-02  1.05418E+01 -1.00000E+00  1.93145E-01
      21    -1     0     0   512   501  0.000000000E+00  0.000000000E+00  7.176808381E+02  7.176808381E+02  0.000000000E+00  0.00000E+00  9.000E+00
      21    -1     0     0   501   502  0.000000000E+00  0.000000000E+00 -1.018448997E+03  1.018448997E+03  0.000000000E+00  0.00000E+00  9.000E+00
      25     1     1     2     0     0  1.884796701E+02 -4.613136188E+01 -4.950062093E+02  5.461765610E+02  1.250000000E+02  0.00000E+00  9.000E+00
      25     1     1     2     0     0 -1.864040285E+02  3.579596394E+01 -4.718761904E+02  5.237556223E+02  1.250000000E+02  0.00000E+00  9.000E+00
      21     1     1     2   512   502 -2.075641572E+00  1.033539794E+01  6.661142410E+02  6.661976515E+02  1.321449896E-05  0.00000E+00  9.000E+00
#rwgt            1           1   3.3825146444323183E-002           1      399088           0
</event>
<event>
      5   9999  3.79277E-02  7.61668E+01 -1.00000E+00  1.29390E-01
      21    -1     0     0   502   511  0.000000000E+00  0.000000000E+00  2.225066744E+02  2.225066744E+02  0.000000000E+00  0.00000E+00  9.000E+00
      21    -1     0     0   501   502  0.000000000E+00  0.000000000E+00 -3.342237393E+02  3.342237393E+02  0.000000000E+00  0.00000E+00  9.000E+00
      25     1     1     2     0     0  1.847936343E+02 -6.086826024E+01  2.528782426E+01  2.326329866E+02  1.250000000E+02  0.00000E+00  9.000E+00
      25     1     1     2     0     0 -1.301130343E+02  7.845453076E+00 -1.633388198E+02  2.435067204E+02  1.250000000E+02  0.00000E+00  9.000E+00
      21     1     1     2   501   511 -5.468060001E+01  5.302280717E+01  2.633393063E+01  8.059070666E+01  5.840038640E-07  0.00000E+00  9.000E+00
#rwgt            1           1   4.7312458283046387E-002           1      399382           0
</event>
<event>
      5   9999  3.79277E-02  2.46999E+01 -1.00000E+00  1.59145E-01
      21    -1     0     0   502   501  0.000000000E+00  0.000000000E+00  1.187244382E+02  1.187244382E+02  0.000000000E+00  0.00000E+00  9.000E+00
      21    -1     0     0   501   512  0.000000000E+00  0.000000000E+00 -4.655099346E+02  4.655099346E+02  0.000000000E+00  0.00000E+00  9.000E+00
      25     1     1     2     0     0 -1.555111065E+02  8.297770473E+01 -1.869065133E+02  2.857062275E+02  1.250000000E+02  0.00000E+00  9.000E+00
      25     1     1     2     0     0  1.370414272E+02 -6.657777461E+01 -7.622057668E+01  2.112996194E+02  1.250000000E+02  0.00000E+00  9.000E+00
      21     1     1     2   502   512  1.846967928E+01 -1.639993012E+01 -8.365840654E+01  8.722852598E+01  9.536743164E-07  0.00000E+00  9.000E+00
#rwgt            1           1   2.7092636813452670E-002           1      399452           0
</event>
<event>
      5   9999  3.79277E-02  1.01009E+02 -1.00000E+00  1.23632E-01
      21    -1     0     0   502   511  0.000000000E+00  0.000000000E+00  2.394360679E+02  2.394360679E+02  0.000000000E+00  0.00000E+00  9.000E+00
      21    -1     0     0   501   502  0.000000000E+00  0.000000000E+00 -3.171303942E+02  3.171303942E+02  0.000000000E+00  0.00000E+00  9.000E+00
      25     1     1     2     0     0  2.234754800E+02 -1.992110924E+01 -9.457008070E+01  2.736907761E+02  1.250000000E+02  0.00000E+00  9.000E+00
      25     1     1     2     0     0 -1.230347909E+02  9.225425436E+00 -1.671395237E+01  1.764285250E+02  1.250000000E+02  0.00000E+00  9.000E+00
      21     1     1     2   501   511 -1.004406891E+02  1.069568380E+01  3.358970673E+01  1.064471610E+02  0.000000000E+00  0.00000E+00  9.000E+00
#rwgt            1           1  0.19382975850598147                1      399599           0
</event>
<event>
      5   9999  3.79277E-02  2.31597E+01 -1.00000E+00  1.61279E-01
      21    -1     0     0   512   501  0.000000000E+00  0.000000000E+00  5.820808288E+02  5.820808288E+02  0.000000000E+00  0.00000E+00  9.000E+00
      21    -1     0     0   501   502  0.000000000E+00  0.000000000E+00 -9.231401482E+01  9.231401482E+01  0.000000000E+00  0.00000E+00  9.000E+00
      25     1     1     2     0     0 -5.295695564E+01 -1.248733506E+01  3.603970248E+02  3.853198518E+02  1.250000000E+02  0.00000E+00  9.000E+00
      25     1     1     2     0     0  5.095218042E+01  3.556012466E+01 -1.723608152E+01  1.406510919E+02  1.250000000E+02  0.00000E+00  9.000E+00
      21     1     1     2   512   502  2.004775214E+00 -2.307278960E+01  1.466058707E+02  1.484238999E+02  2.697398305E-06  0.00000E+00  9.000E+00
#rwgt            1           1   4.5787397594455208E-002           1      399677           0
</event>
<event>
      5   9999  3.79277E-02  3.23653E+01 -1.00000E+00  1.50785E-01
      21    -1     0     0   502   501  0.000000000E+00  0.000000000E+00  2.192921289E+02  2.192921289E+02  0.000000000E+00  0.00000E+00  9.000E+00
      21    -1     0     0   511   502  0.000000000E+00  0.000000000E+00 -5.381465549E+02  5.381465549E+02  0.000000000E+00  0.00000E+00  9.000E+00
      25     1     1     2     0     0 -1.931726257E+02  2.276426782E+02 -1.997335679E+02  3.803358390E+02  1.250000000E+02  0.00000E+00  9.000E+00
      25     1     1     2     0     0  1.608774401E+02 -2.297718210E+02 -6.476506059E+01  3.138409686E+02  1.250000000E+02  0.00000E+00  9.000E+00
      21     1     1     2   511   501  3.229518553E+01  2.129142771E+00 -5.435579756E+01  6.326187624E+01  1.168007728E-06  0.00000E+00  9.000E+00
#rwgt            1           1   3.2540427415043503E-002           1      399851           0
</event>
<event>
      5   9999  3.79277E-02  6.80824E+01 -1.00000E+00  1.31835E-01
      21    -1     0     0   502   501  0.000000000E+00  0.000000000E+00  2.459606549E+01  2.459606549E+01  0.000000000E+00  0.00000E+00  9.000E+00
      -2    -1     0     0     0   502  0.000000000E+00  0.000000000E+00 -2.650409719E+03  2.650409719E+03  0.000000000E+00  0.00000E+00  9.000E+00
      25     1     1     2     0     0  6.463735265E+01  3.077599432E+01 -2.081554611E+03  2.086532949E+03  1.250000000E+02  0.00000E+00  9.000E+00
      25     1     1     2     0     0 -7.458185946E-01 -7.258135625E+00 -1.887651984E+02  2.265182927E+02  1.250000000E+02  0.00000E+00  9.000E+00
      -2     1     1     2     0   501 -6.389153406E+01 -2.351785869E+01 -3.554938445E+02  3.619545431E+02  3.814697266E-06  0.00000E+00  9.000E+00
#rwgt            1           1  0.10008158740638366                1      400063           0
</event>
<event>
      5   9999  3.79277E-02  3.54088E+01 -1.00000E+00  1.48202E-01
      21    -1     0     0   502   501  0.000000000E+00  0.000000000E+00  2.409301184E+02  2.409301184E+02  0.000000000E+00  0.00000E+00  9.000E+00
      21    -1     0     0   501   511  0.000000000E+00  0.000000000E+00 -4.216597143E+02  4.216597143E+02  0.000000000E+00  0.00000E+00  9.000E+00
      25     1     1     2     0     0 -2.068163590E+02 -1.493570579E+02 -1.468454123E+02  3.197954224E+02  1.250000000E+02  0.00000E+00  9.000E+00
      25     1     1     2     0     0  2.406102088E+02  1.387855263E+02 -2.178539185E+01  3.053756673E+02  1.250000000E+02  0.00000E+00  9.000E+00
      21     1     1     2   502   511 -3.379384980E+01  1.057153158E+01 -1.209879178E+01  3.741874299E+01  4.129530925E-07  0.00000E+00  9.000E+00
#rwgt            1           1   3.3623115622834716E-002           1      400319           0
</event>
<event>
      5   9999  3.79277E-02  1.90055E+02 -1.00000E+00  1.12460E-01
      21    -1     0     0   502   501  0.000000000E+00  0.000000000E+00  1.888112815E+03  1.888112815E+03  0.000000000E+00  0.00000E+00  9.000E+00
      21    -1     0     0   512   502  0.000000000E+00  0.000000000E+00 -1.061225253E+02  1.061225253E+02  0.000000000E+00  0.00000E+00  9.000E+00
      25     1     1     2     0     0  1.399324596E+02  1.796023350E+02  9.671164711E+02  1.001387717E+03  1.250000000E+02  0.00000E+00  9.000E+00
      25     1     1     2     0     0  4.996003303E+01 -1.717404454E+02  7.661883886E+02  7.966557803E+02  1.250000000E+02  0.00000E+00  9.000E+00
      21     1     1     2   512   501 -1.898924926E+02 -7.861889579E+00  4.868543031E+01  1.961918428E+02  1.507891493E-06  0.00000E+00  9.000E+00
#rwgt            1           1   4.6640642546656182E-002           1      400500           0
</event>
<event>
      5   9999  3.79277E-02  5.60826E+01 -1.00000E+00  1.36289E-01
      21    -1     0     0   502   501  0.000000000E+00  0.000000000E+00  9.504212807E+01  9.504212807E+01  0.000000000E+00  0.00000E+00  9.000E+00
      21    -1     0     0   501   511  0.000000000E+00  0.000000000E+00 -4.262652083E+02  4.262652083E+02  0.000000000E+00  0.00000E+00  9.000E+00
      25     1     1     2     0     0 -5.723387139E+01  7.836157333E+01 -3.933490443E+01  1.630597649E+02  1.250000000E+02  0.00000E+00  9.000E+00
      25     1     1     2     0     0  8.123644906E+01 -2.767494646E+01 -2.130964225E+02  2.615346031E+02  1.250000000E+02  0.00000E+00  9.000E+00
      21     1     1     2   502   511 -2.400257767E+01 -5.068662687E+01 -7.879175327E+01  9.671296842E+01  9.536743164E-07  0.00000E+00  9.000E+00
#rwgt            1           1   4.4699208876728555E-002           1      400548           0
</event>
<event>
      5   9999  3.79277E-02  7.43927E+01 -1.00000E+00  1.29896E-01
      21    -1     0     0   512   501  0.000000000E+00  0.000000000E+00  1.813582472E+02  1.813582472E+02  0.000000000E+00  0.00000E+00  9.000E+00
      21    -1     0     0   501   502  0.000000000E+00  0.000000000E+00 -6.083610577E+02  6.083610577E+02  0.000000000E+00  0.00000E+00  9.000E+00
      25     1     1     2     0     0  1.269328386E+01 -3.014164888E+01 -5.003986499E+02  5.168108428E+02  1.250000000E+02  0.00000E+00  9.000E+00
      25     1     1     2     0     0 -8.196924819E+01  3.028556916E+00  1.141310707E+02  1.880931447E+02  1.250000000E+02  0.00000E+00  9.000E+00
      21     1     1     2   512   502  6.927596433E+01  2.711309196E+01 -4.073523131E+01  8.481531736E+01  8.259061849E-07  0.00000E+00  9.000E+00
#rwgt            1           1   4.3531685522760863E-002           1      400744           0
</event>
<event>
      5   9999  3.79277E-02  1.50623E+02 -1.00000E+00  1.16322E-01
      21    -1     0     0   502   501  0.000000000E+00  0.000000000E+00  5.779935946E+02  5.779935946E+02  0.000000000E+00  0.00000E+00  9.000E+00
      21    -1     0     0   511   502  0.000000000E+00  0.000000000E+00 -1.990537968E+02  1.990537968E+02  0.000000000E+00  0.00000E+00  9.000E+00
      25     1     1     2     0     0 -6.614687381E+00  5.278267343E+01  4.161439781E+02  4.377562966E+02  1.250000000E+02  0.00000E+00  9.000E+00
      25     1     1     2     0     0 -1.340219323E+02  1.150010795E+00  3.358442436E+00  1.833016093E+02  1.250000000E+02  0.00000E+00  9.000E+00
      21     1     1     2   511   501  1.406366196E+02 -5.393268422E+01 -4.056262281E+01  1.559894855E+02  2.078484985E-06  0.00000E+00  9.000E+00
#rwgt            1           1   3.9772985492869790E-002           1      401123           0
</event>
<event>
      5   9999  3.79277E-02  9.70084E+01 -1.00000E+00  1.24424E-01
      21    -1     0     0   502   501  0.000000000E+00  0.000000000E+00  2.783359539E+02  2.783359539E+02  0.000000000E+00  0.00000E+00  9.000E+00
      21    -1     0     0   512   502  0.000000000E+00  0.000000000E+00 -4.907947843E+02  4.907947843E+02  0.000000000E+00  0.00000E+00  9.000E+00
      25     1     1     2     0     0 -7.288625857E+01  1.403903566E+02  1.771777064E+02  2.684004444E+02  1.250000000E+02  0.00000E+00  9.000E+00
      25     1     1     2     0     0 -2.171516438E+01 -1.189147701E+02 -1.125040431E+02  2.071097067E+02  1.250000000E+02  0.00000E+00  9.000E+00
      21     1     1     2   512   501  9.460142295E+01 -2.147558653E+01 -2.771324937E+02  2.936205870E+02  3.814697266E-06  0.00000E+00  9.000E+00
#rwgt            1           1   4.4279985010823857E-002           1      401237           0
</event>
<event>
      5   9999  3.79277E-02  4.43326E+00 -1.00000E+00  2.53372E-01
      21    -1     0     0   511   501  0.000000000E+00  0.000000000E+00  5.368070756E+01  5.368070756E+01  0.000000000E+00  0.00000E+00  9.000E+00
      21    -1     0     0   501   502  0.000000000E+00  0.000000000E+00 -5.772947651E+02  5.772947651E+02  0.000000000E+00  0.00000E+00  9.000E+00
      25     1     1     2     0     0  3.849196230E+01  7.004565135E+01 -1.211705799E+02  1.915602617E+02  1.250000000E+02  0.00000E+00  9.000E+00
      25     1     1     2     0     0 -3.434438211E+01 -7.161134343E+01 -4.069702901E+02  4.330791361E+02  1.250000000E+02  0.00000E+00  9.000E+00
      21     1     1     2   511   502 -4.147580196E+00  1.565692083E+00  4.526812478E+00  6.336074841E+00  2.457562462E-07  0.00000E+00  9.000E+00
#rwgt            1           1   3.3853875565562207E-002           1      401384           0
</event>
<event>
      5   9999  3.79277E-02  7.69884E+01 -1.00000E+00  1.29161E-01
       2    -1     0     0   502     0  0.000000000E+00  0.000000000E+00  1.785074745E+02  1.785074745E+02  0.000000000E+00  0.00000E+00  9.000E+00
      21    -1     0     0   501   502  0.000000000E+00  0.000000000E+00 -2.472728440E+02  2.472728440E+02  0.000000000E+00  0.00000E+00  9.000E+00
      25     1     1     2     0     0  1.321468329E+02 -3.471981588E+01 -8.520395290E+01  2.038454431E+02  1.250000000E+02  0.00000E+00  9.000E+00
      25     1     1     2     0     0 -6.221446864E+01  2.522320459E+00  3.228418891E+01  1.433327285E+02  1.250000000E+02  0.00000E+00  9.000E+00
       2     1     1     2   501     0 -6.993236430E+01  3.219749542E+01 -1.584560551E+01  7.860214693E+01  2.920019320E-07  0.00000E+00  9.000E+00
#rwgt            1           1   3.3065738485837486E-002           1      401820           0
</event>
<event>
      5   9999  3.79277E-02  9.03462E+01 -1.00000E+00  1.25844E-01
      21    -1     0     0   502   501  0.000000000E+00  0.000000000E+00  1.818615238E+03  1.818615238E+03  0.000000000E+00  0.00000E+00  9.000E+00
      21    -1     0     0   501   511  0.000000000E+00  0.000000000E+00 -2.376435020E+01  2.376435020E+01  0.000000000E+00  0.00000E+00  9.000E+00
      25     1     1     2     0     0  2.823670912E+01  2.351022389E+01  8.723585647E+02  8.820343008E+02  1.250000000E+02  0.00000E+00  9.000E+00
      25     1     1     2     0     0 -1.166495579E+02 -4.919655683E+00  6.908127132E+02  7.116730479E+02  1.250000000E+02  0.00000E+00  9.000E+00
      21     1     1     2   502   511  8.841284875E+01 -1.859056821E+01  2.316796094E+02  2.486722390E+02  7.136645101E-06  0.00000E+00  9.000E+00
#rwgt            1           1   9.0747681075264444E-002           1      401869           0
</event>
<event>
      5   9999  3.79277E-02  1.47718E+01 -1.00000E+00  1.78013E-01
      21    -1     0     0   502   512  0.000000000E+00  0.000000000E+00  1.912701348E+03  1.912701348E+03  0.000000000E+00  0.00000E+00  9.000E+00
      21    -1     0     0   501   502  0.000000000E+00  0.000000000E+00 -2.141241072E+01  2.141241072E+01  0.000000000E+00  0.00000E+00  9.000E+00
      25     1     1     2     0     0  1.308642198E+02  2.477389927E+01  6.882439860E+02  7.120702032E+02  1.250000000E+02  0.00000E+00  9.000E+00
      25     1     1     2     0     0 -1.430266568E+02 -1.639056775E+01  9.717211274E+02  9.902485671E+02  1.250000000E+02  0.00000E+00  9.000E+00
      21     1     1     2   501   512  1.216243703E+01 -8.383331524E+00  2.313238237E+02  2.317949882E+02  0.000000000E+00  0.00000E+00  9.000E+00
#rwgt            1           1  0.14619512750473038                1      401956           0
</event>
<event>
      5   9999  3.79277E-02  9.70589E+00 -1.00000E+00  1.97268E-01
      21    -1     0     0   502   501  0.000000000E+00  0.000000000E+00  4.945770299E+02  4.945770299E+02  0.000000000E+00  0.00000E+00  9.000E+00
       5    -1     0     0   501     0  0.000000000E+00  0.000000000E+00 -2.007492089E+02  2.007492089E+02  0.000000000E+00  0.00000E+00  9.000E+00
      25     1     1     2     0     0  2.750646708E+01 -1.435147837E+02  3.850791769E+01  1.961146567E+02  1.250000000E+02  0.00000E+00  9.000E+00
      25     1     1     2     0     0 -1.932202575E+01  1.487319953E+02  3.517453854E+02  4.022988482E+02  1.250000000E+02  0.00000E+00  9.000E+00
       5     1     1     2   502     0 -8.184441331E+00 -5.217211647E+00 -9.642548208E+01  9.691273380E+01  1.907348633E-06  0.00000E+00  9.000E+00
#rwgt            1           1   4.2407169739624231E-002           1      402165           0
</event>
<event>
      5   9999  3.79277E-02  4.46004E+01 -1.00000E+00  1.41968E-01
      21    -1     0     0   502   501  0.000000000E+00  0.000000000E+00  9.056715603E+01  9.056715603E+01  0.000000000E+00  0.00000E+00  9.000E+00
      21    -1     0     0   501   511  0.000000000E+00  0.000000000E+00 -1.204281597E+03  1.204281597E+03  0.000000000E+00  0.00000E+00  9.000E+00
      25     1     1     2     0     0  1.290069761E+02 -1.238969356E+01 -6.161562777E+02  6.419266804E+02  1.250000000E+02  0.00000E+00  9.000E+00
      25     1     1     2     0     0 -1.521114303E+02 -2.575972651E+01 -5.216162065E+01  2.052980405E+02  1.250000000E+02  0.00000E+00  9.000E+00
      21     1     1     2   502   511  2.310445425E+01  3.814942007E+01 -4.453965422E+02  4.476240318E+02  7.629394531E-06  0.00000E+00  9.000E+00
#rwgt            1           1   4.5066372822067463E-002           1      402381           0
</event>
<event>
      5   9999  3.79277E-02  3.51815E+01 -1.00000E+00  1.48384E-01
      21    -1     0     0   502   501  0.000000000E+00  0.000000000E+00  7.781347637E+02  7.781347637E+02  0.000000000E+00  0.00000E+00  9.000E+00
      21    -1     0     0   501   512  0.000000000E+00  0.000000000E+00 -8.208757070E+01  8.208757070E+01  0.000000000E+00  0.00000E+00  9.000E+00
      25     1     1     2     0     0  1.136092157E+02 -1.083619204E+02  4.230506113E+02  4.682373110E+02  1.250000000E+02  0.00000E+00  9.000E+00
      25     1     1     2     0     0 -1.472721310E+02  1.185865632E+02  2.754471047E+02  3.567183217E+02  1.250000000E+02  0.00000E+00  9.000E+00
      21     1     1     2   502   512  3.366291527E+01 -1.022464281E+01 -2.450523043E+00  3.526670169E+01  3.746093836E-07  0.00000E+00  9.000E+00
#rwgt            1           1   4.1306611729439870E-002           1      402450           0
</event>
<event>
      5   9999  3.79277E-02  8.41325E+01 -1.00000E+00  1.27300E-01
      21    -1     0     0   502   501  0.000000000E+00  0.000000000E+00  2.008677766E+02  2.008677766E+02  0.000000000E+00  0.00000E+00  9.000E+00
      21    -1     0     0   501   511  0.000000000E+00  0.000000000E+00 -3.034179344E+02  3.034179344E+02  0.000000000E+00  0.00000E+00  9.000E+00
      25     1     1     2     0     0 -1.350637871E+02  1.821322279E+01  9.295604998E+01  2.069777169E+02  1.250000000E+02  0.00000E+00  9.000E+00
      25     1     1     2     0     0  5.852521148E+01  1.671693938E+01 -1.092916800E+02  1.768454912E+02  1.250000000E+02  0.00000E+00  9.000E+00
      21     1     1     2   502   511  7.653857564E+01 -3.493016218E+01 -8.621452787E+01  1.204625029E+02  1.348699152E-06  0.00000E+00  9.000E+00
#rwgt            1           1   2.7431925002994344E-002           1      402598           0
</event>
<event>
      5   9999  3.79277E-02  6.54112E+01 -1.00000E+00  1.32730E-01
       2    -1     0     0   502     0  0.000000000E+00  0.000000000E+00  7.700744008E+02  7.700744008E+02  0.000000000E+00  0.00000E+00  9.000E+00
      21    -1     0     0   501   502  0.000000000E+00  0.000000000E+00 -1.033119381E+02  1.033119381E+02  0.000000000E+00  0.00000E+00  9.000E+00
      25     1     1     2     0     0  1.366768340E+02 -8.428374360E+00  1.914355730E+02  2.665036079E+02  1.250000000E+02  0.00000E+00  9.000E+00
      25     1     1     2     0     0 -8.463646737E+01  4.805700879E+01  3.567299429E+01  1.623895632E+02  1.250000000E+02  0.00000E+00  9.000E+00
       2     1     1     2   501     0 -5.204036662E+01 -3.962863443E+01  4.396538955E+02  4.444931678E+02  0.000000000E+00  0.00000E+00  9.000E+00
#rwgt            1           1   2.5747681076004059E-002           1      402648           0
</event>
<event>
      5   9999  3.79277E-02  3.42907E+01 -1.00000E+00  1.49114E-01
      21    -1     0     0   502   501  0.000000000E+00  0.000000000E+00  5.813157683E+01  5.813157683E+01  0.000000000E+00  0.00000E+00  9.000E+00
      21    -1     0     0   511   502  0.000000000E+00  0.000000000E+00 -1.244683661E+03  1.244683661E+03  0.000000000E+00  0.00000E+00  9.000E+00
      25     1     1     2     0     0  1.454135936E+02  2.350575387E+01 -4.331891200E+02  4.743157676E+02  1.250000000E+02  0.00000E+00  9.000E+00
      25     1     1     2     0     0 -1.433342107E+02  1.072182970E+01 -2.079393097E+02  2.819989541E+02  1.250000000E+02  0.00000E+00  9.000E+00
      21     1     1     2   511   501 -2.079382870E+00 -3.422758357E+01 -5.454236548E+02  5.465005164E+02  7.629394531E-06  0.00000E+00  9.000E+00
#rwgt            1           1  0.10219232610469857                1      402801           0
</event>
<event>
      5   9999  3.79277E-02  6.49283E+01 -1.00000E+00  1.32897E-01
       2    -1     0     0   502     0  0.000000000E+00  0.000000000E+00  1.275807756E+03  1.275807756E+03  0.000000000E+00  0.00000E+00  9.000E+00
      21    -1     0     0   501   502  0.000000000E+00  0.000000000E+00 -6.798963023E+01  6.798963023E+01  0.000000000E+00  0.00000E+00  9.000E+00
      25     1     1     2     0     0  3.847904189E+01  4.859717493E+01  6.996470349E+01  1.560845342E+02  1.250000000E+02  0.00000E+00  9.000E+00
      25     1     1     2     0     0 -1.048367543E+01 -1.071800005E+02  2.631090618E+02  3.105621329E+02  1.250000000E+02  0.00000E+00  9.000E+00
       2     1     1     2   501     0 -2.799536646E+01  5.858282561E+01  8.747443600E+02  8.771507187E+02  1.078959322E-05  0.00000E+00  9.000E+00
#rwgt            1           1   4.9189554174351016E-002           1      402991           0
</event>
<event>
      5   9999  3.79277E-02  3.10882E+01 -1.00000E+00  1.51973E-01
      21    -1     0     0   502   501  0.000000000E+00  0.000000000E+00  1.511558001E+02  1.511558001E+02  0.000000000E+00  0.00000E+00  9.000E+00
      21    -1     0     0   511   502  0.000000000E+00  0.000000000E+00 -4.215378151E+02  4.215378151E+02  0.000000000E+00  0.00000E+00  9.000E+00
      25     1     1     2     0     0  5.234158088E+01  1.309861890E+02  5.080509586E+01  1.952003600E+02  1.250000000E+02  0.00000E+00  9.000E+00
      25     1     1     2     0     0 -4.801549658E+01 -1.002004368E+02 -2.694021185E+02  3.170932306E+02  1.250000000E+02  0.00000E+00  9.000E+00
      21     1     1     2   511   501 -4.326084305E+00 -3.078575220E+01 -5.178499230E+01  6.040002460E+01  6.743495762E-07  0.00000E+00  9.000E+00
#rwgt            1           1   4.3412655155477126E-002           1      403062           0
</event>
<event>
      5   9999  3.79277E-02  2.56748E+01 -1.00000E+00  1.57889E-01
      21    -1     0     0   502   501  0.000000000E+00  0.000000000E+00  1.168333202E+03  1.168333202E+03  0.000000000E+00  0.00000E+00  9.000E+00
      21    -1     0     0   501   512  0.000000000E+00  0.000000000E+00 -4.658056259E+01  4.658056259E+01  0.000000000E+00  0.00000E+00  9.000E+00
      25     1     1     2     0     0  1.412303456E+02  2.430087602E+01  3.215326610E+02  3.735569504E+02  1.250000000E+02  0.00000E+00  9.000E+00
      25     1     1     2     0     0 -1.567667469E+02 -4.474143530E+01  7.851616553E+02  8.115919134E+02  1.250000000E+02  0.00000E+00  9.000E+00
      21     1     1     2   502   512  1.553640125E+01  2.044055928E+01  1.505832323E+01  2.976490091E+01  4.460403188E-07  0.00000E+00  9.000E+00
#rwgt            1           1   2.9076384796359760E-002           1      403344           0
</event>
<event>
      5   9999  3.79277E-02  2.68873E+01 -1.00000E+00  1.56419E-01
      -1    -1     0     0     0   501  0.000000000E+00  0.000000000E+00  8.922594775E+02  8.922594775E+02  0.000000000E+00  0.00000E+00  9.000E+00
      21    -1     0     0   501   502  0.000000000E+00  0.000000000E+00 -1.531853184E+02  1.531853184E+02  0.000000000E+00  0.00000E+00  9.000E+00
      25     1     1     2     0     0 -1.732987545E+01  1.804382671E+02  8.159283488E+01  2.348205347E+02  1.250000000E+02  0.00000E+00  9.000E+00
      25     1     1     2     0     0  3.082363872E+01 -2.036943649E+02  1.141703272E+02  2.666483726E+02  1.250000000E+02  0.00000E+00  9.000E+00
      -1     1     1     2     0   502 -1.349376327E+01  2.325609780E+01  5.433109971E+02  5.439758885E+02  0.000000000E+00  0.00000E+00  9.000E+00
#rwgt            1           1   3.8098005308878920E-002           1      403558           0
</event>
<event>
      5   9999 -3.79277E-02  3.14064E+01 -1.00000E+00  1.51671E-01
      21    -1     0     0   502   501  0.000000000E+00  0.000000000E+00  1.602046553E+02  1.602046553E+02  0.000000000E+00  0.00000E+00  9.000E+00
      21    -1     0     0   501   511  0.000000000E+00  0.000000000E+00 -2.503271246E+02  2.503271246E+02  0.000000000E+00  0.00000E+00  9.000E+00
      25     1     1     2     0     0  9.280782118E+01  5.364401443E+01  2.322013121E+01  1.662983657E+02  1.250000000E+02  0.00000E+00  9.000E+00
      25     1     1     2     0     0 -1.064032267E+02 -8.195531179E+01 -8.616771135E+01  2.027022305E+02  1.250000000E+02  0.00000E+00  9.000E+00
      21     1     1     2   502   511  1.359540555E+01  2.831129735E+01 -2.717488911E+01  4.153118356E+01  3.371747881E-07  0.00000E+00  9.000E+00
#rwgt            1           1  -4.0286834478998723E-002           1      403742           0
</event>
<event>
      5   9999  3.79277E-02  9.08776E+00 -1.00000E+00  2.00685E-01
      21    -1     0     0   512   501  0.000000000E+00  0.000000000E+00  3.734986832E+02  3.734986832E+02  0.000000000E+00  0.00000E+00  9.000E+00
      21    -1     0     0   501   502  0.000000000E+00  0.000000000E+00 -1.492115273E+02  1.492115273E+02  0.000000000E+00  0.00000E+00  9.000E+00
      25     1     1     2     0     0  1.631934661E+02 -5.194674963E+01  1.027506539E+01  2.122761154E+02  1.250000000E+02  0.00000E+00  9.000E+00
      25     1     1     2     0     0 -1.652481316E+02  4.309430246E+01  1.887114589E+02  2.835508395E+02  1.250000000E+02  0.00000E+00  9.000E+00
      21     1     1     2   512   502  2.054665478E+00  8.852447168E+00  2.530063166E+01  2.688325563E+01  3.371747881E-07  0.00000E+00  9.000E+00
#rwgt            1           1   4.5696228505981630E-002           1      403903           0
</event>
<event>
      5   9999  3.79277E-02  5.51986E+01 -1.00000E+00  1.36668E-01
      21    -1     0     0   511   501  0.000000000E+00  0.000000000E+00  1.043047342E+02  1.043047342E+02  0.000000000E+00  0.00000E+00  9.000E+00
      21    -1     0     0   501   502  0.000000000E+00  0.000000000E+00 -5.906748979E+02  5.906748979E+02  0.000000000E+00  0.00000E+00  9.000E+00
      25     1     1     2     0     0 -1.665578564E+02 -3.765694794E+01 -2.503500852E+02  3.278105099E+02  1.250000000E+02  0.00000E+00  9.000E+00
      25     1     1     2     0     0  1.250938830E+02  7.409360300E+01 -2.451438264E+02  3.112215243E+02  1.250000000E+02  0.00000E+00  9.000E+00
      21     1     1     2   511   502  4.146397341E+01 -3.643665506E+01  9.123747899E+00  5.594759779E+01  5.462855929E-07  0.00000E+00  9.000E+00
#rwgt            1           1   3.0146171577426720E-002           1      404170           0
</event>
<event>
      5   9999  3.79277E-02  4.23560E+01 -1.00000E+00  1.43315E-01
      21    -1     0     0   502   501  0.000000000E+00  0.000000000E+00  3.573693863E+02  3.573693863E+02  0.000000000E+00  0.00000E+00  9.000E+00
      21    -1     0     0   512   502  0.000000000E+00  0.000000000E+00 -7.550459484E+02  7.550459484E+02  0.000000000E+00  0.00000E+00  9.000E+00
      25     1     1     2     0     0  2.133699855E+02  3.716966118E+01  8.316258309E+01  2.635324451E+02  1.250000000E+02  0.00000E+00  9.000E+00
      25     1     1     2     0     0 -2.206876894E+02  4.549416895E+00  9.545389385E+01  2.710354207E+02  1.250000000E+02  0.00000E+00  9.000E+00
      21     1     1     2   512   501  7.317703933E+00 -4.171907808E+01 -5.762930391E+02  5.778474687E+02  0.000000000E+00  0.00000E+00  9.000E+00
#rwgt            1           1   4.5914362867235561E-002           1      404279           0
</event>
<event>
      5   9999  3.79277E-02  4.34640E+01 -1.00000E+00  1.42638E-01
       2    -1     0     0   502     0  0.000000000E+00  0.000000000E+00  1.620260842E+03  1.620260842E+03  0.000000000E+00  0.00000E+00  9.000E+00
      21    -1     0     0   501   502  0.000000000E+00  0.000000000E+00 -4.269375284E+02  4.269375284E+02  0.000000000E+00  0.00000E+00  9.000E+00
      25     1     1     2     0     0  1.853107614E+02  2.575185979E+02  4.946118785E+02  6.007676896E+02  1.250000000E+02  0.00000E+00  9.000E+00
      25     1     1     2     0     0 -1.426524622E+02 -2.658487510E+02 -3.019807262E+02  4.447950566E+02  1.250000000E+02  0.00000E+00  9.000E+00
       2     1     1     2   501     0 -4.265829921E+01  8.330153012E+00  1.000692161E+03  1.001635624E+03  0.000000000E+00  0.00000E+00  9.000E+00
#rwgt            1           1   8.9568724590710136E-002           1      404437           0
</event>
<event>
      5   9999  3.79277E-02  7.95034E+01 -1.00000E+00  1.28481E-01
      21    -1     0     0   502   501  0.000000000E+00  0.000000000E+00  1.398602077E+02  1.398602077E+02  0.000000000E+00  0.00000E+00  9.000E+00
       3    -1     0     0   501     0  0.000000000E+00  0.000000000E+00 -3.894827549E+03  3.894827549E+03  0.000000000E+00  0.00000E+00  9.000E+00
      25     1     1     2     0     0  1.155260754E+02  2.589430008E+02 -2.367306938E+03  2.387501810E+03  1.250000000E+02  0.00000E+00  9.000E+00
      25     1     1     2     0     0 -6.189696748E+01 -2.002513795E+02  1.288802319E+01  2.443827954E+02  1.250000000E+02  0.00000E+00  9.000E+00
       3     1     1     2   502     0 -5.362910796E+01 -5.869162131E+01 -1.400548426E+03  1.402803151E+03  2.157918644E-05  0.00000E+00  9.000E+00
#rwgt            1           1   3.4044051609561803E-002           1      404596           0
</event>
<event>
      5   9999  3.79277E-02  1.28964E+01 -1.00000E+00  1.83797E-01
      21    -1     0     0   511   501  0.000000000E+00  0.000000000E+00  2.021157045E+02  2.021157045E+02  0.000000000E+00  0.00000E+00  9.000E+00
      21    -1     0     0   501   502  0.000000000E+00  0.000000000E+00 -6.868491887E+02  6.868491887E+02  0.000000000E+00  0.00000E+00  9.000E+00
      25     1     1     2     0     0  4.989065865E+01 -2.435246257E+02 -5.299591030E+02  5.985607505E+02  1.250000000E+02  0.00000E+00  9.000E+00
      25     1     1     2     0     0 -5.123638230E+01  2.306986024E+02  2.788387588E+01  2.687927130E+02  1.250000000E+02  0.00000E+00  9.000E+00
      21     1     1     2   511   502  1.345723644E+00  1.282602328E+01  1.734174296E+01  2.161142971E+01  2.384185791E-07  0.00000E+00  9.000E+00
#rwgt            1           1   1.7647642256594240E-002           1      404763           0
</event>
<event>
      5   9999  3.79277E-02  1.96421E+01 -1.00000E+00  1.67019E-01
      21    -1     0     0   502   512  0.000000000E+00  0.000000000E+00  4.786985589E+02  4.786985589E+02  0.000000000E+00  0.00000E+00  9.000E+00
      21    -1     0     0   501   502  0.000000000E+00  0.000000000E+00 -9.794368688E+01  9.794368688E+01  0.000000000E+00  0.00000E+00  9.000E+00
      25     1     1     2     0     0  1.424700494E+02 -2.779534550E+01  2.087467484E+02  2.833204919E+02  1.250000000E+02  0.00000E+00  9.000E+00
      25     1     1     2     0     0 -1.611798652E+02  3.377496166E+01  1.231094195E+02  2.406254894E+02  1.250000000E+02  0.00000E+00  9.000E+00
      21     1     1     2   501   512  1.870981581E+01 -5.979616160E+00  4.889870414E+01  5.269626442E+01  0.000000000E+00  0.00000E+00  9.000E+00
#rwgt            1           1   4.4153753996336184E-002           1      405100           0
</event>
<event>
      5   9999  3.79277E-02  2.65169E+01 -1.00000E+00  1.56858E-01
      21    -1     0     0   511   501  0.000000000E+00  0.000000000E+00  6.039783651E+02  6.039783651E+02  0.000000000E+00  0.00000E+00  9.000E+00
      21    -1     0     0   501   502  0.000000000E+00  0.000000000E+00 -1.590967369E+02  1.590967369E+02  0.000000000E+00  0.00000E+00  9.000E+00
      25     1     1     2     0     0  1.243539185E+02 -1.372155339E+02 -3.341146368E+01  2.259055681E+02  1.250000000E+02  0.00000E+00  9.000E+00
      25     1     1     2     0     0 -1.370985676E+02  1.139621491E+02  4.182218273E+02  4.715059761E+02  1.250000000E+02  0.00000E+00  9.000E+00
      21     1     1     2   511   502  1.274464906E+01  2.325338483E+01  6.007126461E+01  6.566355776E+01  9.536743164E-07  0.00000E+00  9.000E+00
#rwgt            1           1   4.7188654538555599E-002           1      405270           0
</event>
<event>
      5   9999  3.79277E-02  1.93348E+01 -1.00000E+00  1.67590E-01
       2    -1     0     0   502     0  0.000000000E+00  0.000000000E+00  2.091659441E+03  2.091659441E+03  0.000000000E+00  0.00000E+00  9.000E+00
      21    -1     0     0   501   502  0.000000000E+00  0.000000000E+00 -1.738854167E+02  1.738854167E+02  0.000000000E+00  0.00000E+00  9.000E+00
      25     1     1     2     0     0 -1.043669559E+02  6.909817465E+01  1.895450895E+01  1.779081016E+02  1.250000000E+02  0.00000E+00  9.000E+00
      25     1     1     2     0     0  1.143968208E+02 -5.256832805E+01 -1.096850551E+01  1.777508645E+02  1.250000000E+02  0.00000E+00  9.000E+00
       2     1     1     2   501     0 -1.002986492E+01 -1.652984660E+01  1.909788021E+03  1.909885892E+03  2.157918644E-05  0.00000E+00  9.000E+00
#rwgt            1           1   2.8597892855571488E-002           1      405508           0
</event>
<event>
      5   9999  3.79277E-02  7.82537E+01 -1.00000E+00  1.28815E-01
      21    -1     0     0   502   501  0.000000000E+00  0.000000000E+00  1.012411174E+02  1.012411174E+02  0.000000000E+00  0.00000E+00  9.000E+00
      21    -1     0     0   511   502  0.000000000E+00  0.000000000E+00 -1.975042113E+03  1.975042113E+03  0.000000000E+00  0.00000E+00  9.000E+00
      25     1     1     2     0     0 -1.758779976E+02  1.178483363E+02 -2.761278183E+02  3.697199919E+02  1.250000000E+02  0.00000E+00  9.000E+00
      25     1     1     2     0     0  2.022363220E+02 -4.416734857E+01 -2.207649845E+02  3.274331428E+02  1.250000000E+02  0.00000E+00  9.000E+00
      21     1     1     2   511   501 -2.635832443E+01 -7.368098772E+01 -1.376908193E+03  1.379130096E+03  2.157918644E-05  0.00000E+00  9.000E+00
#rwgt            1           1   2.7428271019776913E-002           1      405659           0
</event>
<event>
      5   9999  3.79277E-02  2.15815E+01 -1.00000E+00  1.63687E-01
      21    -1     0     0   502   512  0.000000000E+00  0.000000000E+00  2.406328485E+02  2.406328485E+02  0.000000000E+00  0.00000E+00  9.000E+00
      21    -1     0     0   501   502  0.000000000E+00  0.000000000E+00 -3.195133989E+02  3.195133989E+02  0.000000000E+00  0.00000E+00  9.000E+00
      25     1     1     2     0     0  1.125723432E+02 -1.157776261E+02  1.122760988E+02  2.330405834E+02  1.250000000E+02  0.00000E+00  9.000E+00
      25     1     1     2     0     0 -1.019406611E+02  1.345586657E+02 -2.110409864E+02  2.977603581E+02  1.250000000E+02  0.00000E+00  9.000E+00
      21     1     1     2   501   512 -1.063168209E+01 -1.878103963E+01  1.988433721E+01  2.934530593E+01  3.371747881E-07  0.00000E+00  9.000E+00
#rwgt            1           1   3.3805409155281033E-002           1      405826           0
</event>
<event>
      5   9999  3.79277E-02  9.30697E+01 -1.00000E+00  1.25247E-01
      21    -1     0     0   511   501  0.000000000E+00  0.000000000E+00  3.485506249E+01  3.485506249E+01  0.000000000E+00  0.00000E+00  9.000E+00
      21    -1     0     0   501   502  0.000000000E+00  0.000000000E+00 -2.003090267E+03  2.003090267E+03  0.000000000E+00  0.00000E+00  9.000E+00
      25     1     1     2     0     0 -3.941370571E+01 -1.108606624E+02 -1.349183477E+03  1.360060507E+03  1.250000000E+02  0.00000E+00  9.000E+00
      25     1     1     2     0     0 -4.898440192E+01  8.174449468E+01 -5.141883091E+02  5.376767163E+02  1.250000000E+02  0.00000E+00  9.000E+00
      21     1     1     2   511   502  8.839810763E+01  2.911616774E+01 -1.048634183E+02  1.402081066E+02  2.336015456E-06  0.00000E+00  9.000E+00
#rwgt            1           1  0.12024947267129914                1      405999           0
</event>
<event>
      5   9999  3.79277E-02  7.05253E+01 -1.00000E+00  1.31056E-01
      21    -1     0     0   502   501  0.000000000E+00  0.000000000E+00  7.702356397E+02  7.702356397E+02  0.000000000E+00  0.00000E+00  9.000E+00
      21    -1     0     0   512   502  0.000000000E+00  0.000000000E+00 -1.613208758E+02  1.613208758E+02  0.000000000E+00  0.00000E+00  9.000E+00
      25     1     1     2     0     0 -4.896186041E+01  2.166288630E+02  3.140386936E+02  4.044386593E+02  1.250000000E+02  0.00000E+00  9.000E+00
      25     1     1     2     0     0  9.494794201E+01 -2.700994193E+02  3.246675839E+02  4.505583736E+02  1.250000000E+02  0.00000E+00  9.000E+00
      21     1     1     2   512   501 -4.598608160E+01  5.347055624E+01 -2.979151359E+01  7.655948255E+01  2.311553887E-06  0.00000E+00  9.000E+00
#rwgt            1           1   3.2616043996369255E-002           1      406063           0
</event>
<event>
      5   9999  3.79277E-02  1.37251E+02 -1.00000E+00  1.17943E-01
      21    -1     0     0   502   501  0.000000000E+00  0.000000000E+00  4.026042874E+02  4.026042874E+02  0.000000000E+00  0.00000E+00  9.000E+00
      21    -1     0     0   511   502  0.000000000E+00  0.000000000E+00 -2.913654202E+02  2.913654202E+02  0.000000000E+00  0.00000E+00  9.000E+00
      25     1     1     2     0     0 -6.617473421E+01  1.723891546E+02  1.498255938E+02  2.686444205E+02  1.250000000E+02  0.00000E+00  9.000E+00
      25     1     1     2     0     0  1.756212000E+02 -8.956765519E+01  7.708723434E+01  2.458304547E+02  1.250000000E+02  0.00000E+00  9.000E+00
      21     1     1     2   511   501 -1.094464658E+02 -8.282149941E+01 -1.156739609E+02  1.794948325E+02  1.348699152E-06  0.00000E+00  9.000E+00
#rwgt            1           1   3.0959292101095749E-002           1      406215           0
</event>
<event>
      5   9999  3.79277E-02  4.13479E+01 -1.00000E+00  1.43953E-01
      21    -1     0     0   502   501  0.000000000E+00  0.000000000E+00  9.001760025E+01  9.001760025E+01  0.000000000E+00  0.00000E+00  9.000E+00
       1    -1     0     0   501     0  0.000000000E+00  0.000000000E+00 -2.554872635E+03  2.554872635E+03  0.000000000E+00  0.00000E+00  9.000E+00
      25     1     1     2     0     0  7.545000421E+01  8.514122636E+01 -3.647748291E+01  1.729084680E+02  1.250000000E+02  0.00000E+00  9.000E+00
      25     1     1     2     0     0 -8.847135693E+01 -1.243852348E+02 -4.291626955E+02  4.723393767E+02  1.250000000E+02  0.00000E+00  9.000E+00
       1     1     1     2   502     0  1.302135272E+01  3.924400846E+01 -1.999214856E+03  1.999642391E+03  0.000000000E+00  0.00000E+00  9.000E+00
#rwgt            1           1   5.0513715792320869E-002           1      406296           0
</event>
<event>
      5   9999  3.79277E-02  1.60564E+01 -1.00000E+00  1.74644E-01
      21    -1     0     0   511   501  0.000000000E+00  0.000000000E+00  7.379217597E+02  7.379217597E+02  0.000000000E+00  0.00000E+00  9.000E+00
      21    -1     0     0   501   502  0.000000000E+00  0.000000000E+00 -5.429822505E+01  5.429822505E+01  0.000000000E+00  0.00000E+00  9.000E+00
      25     1     1     2     0     0  2.653468680E+01  1.317986818E+02  2.025063322E+02  2.733290997E+02  1.250000000E+02  0.00000E+00  9.000E+00
      25     1     1     2     0     0 -3.841615265E+01 -1.209987060E+02  4.464407331E+02  4.806774551E+02  1.250000000E+02  0.00000E+00  9.000E+00
      21     1     1     2   511   502  1.188146586E+01 -1.079997583E+01  3.467646928E+01  3.821342997E+01  0.000000000E+00  0.00000E+00  9.000E+00
#rwgt            1           1   4.8276406159814274E-002           1      406437           0
</event>
<event>
      5   9999  3.79277E-02  2.22513E+01 -1.00000E+00  1.62635E-01
      21    -1     0     0   502   501  0.000000000E+00  0.000000000E+00  8.308223885E+02  8.308223885E+02  0.000000000E+00  0.00000E+00  9.000E+00
      21    -1     0     0   512   502  0.000000000E+00  0.000000000E+00 -3.812695165E+01  3.812695165E+01  0.000000000E+00  0.00000E+00  9.000E+00
      25     1     1     2     0     0  1.517525886E+00 -6.209724760E+01  5.688887416E+02  5.857625554E+02  1.250000000E+02  0.00000E+00  9.000E+00
      25     1     1     2     0     0 -5.728581766E+00  8.394647683E+01  2.022114693E+02  2.521791148E+02  1.250000000E+02  0.00000E+00  9.000E+00
      21     1     1     2   512   501  4.211055881E+00 -2.184922923E+01  2.159522598E+01  3.100766993E+01  5.331201500E-07  0.00000E+00  9.000E+00
#rwgt            1           1   4.0782341962163411E-002           1      406736           0
</event>
<event>
      5   9999  3.79277E-02  5.71656E+01 -1.00000E+00  1.35836E-01
      21    -1     0     0   502   501  0.000000000E+00  0.000000000E+00  2.654665095E+02  2.654665095E+02  0.000000000E+00  0.00000E+00  9.000E+00
      21    -1     0     0   511   502  0.000000000E+00  0.000000000E+00 -2.941662626E+02  2.941662626E+02  0.000000000E+00  0.00000E+00  9.000E+00
      25     1     1     2     0     0  1.580350499E+02 -9.663798732E+01 -1.281527015E+02  2.576084092E+02  1.250000000E+02  0.00000E+00  9.000E+00
      25     1     1     2     0     0 -1.703138826E+02  4.080664442E+01  1.133441295E+02  2.431951737E+02  1.250000000E+02  0.00000E+00  9.000E+00
      21     1     1     2   511   501  1.227883268E+01  5.583134290E+01 -1.389118104E+01  5.882918912E+01  9.973764736E-07  0.00000E+00  9.000E+00
#rwgt            1           1   3.5525059785962911E-002           1      406915           0
</event>
<event>
      5   9999  3.79277E-02  1.67686E+01 -1.00000E+00  1.72942E-01
      21    -1     0     0   502   501  0.000000000E+00  0.000000000E+00  1.930771489E+02  1.930771489E+02  0.000000000E+00  0.00000E+00  9.000E+00
      21    -1     0     0   501   512  0.000000000E+00  0.000000000E+00 -2.281530096E+02  2.281530096E+02  0.000000000E+00  0.00000E+00  9.000E+00
      25     1     1     2     0     0  4.400439891E+01 -1.334928759E+02 -8.185057985E+01  2.051371552E+02  1.250000000E+02  0.00000E+00  9.000E+00
      25     1     1     2     0     0 -4.338879883E+01  1.167356284E+02  6.795029538E+01  1.890820918E+02  1.250000000E+02  0.00000E+00  9.000E+00
      21     1     1     2   502   512 -6.156000787E-01  1.675724753E+01 -2.117557629E+01  2.701091149E+01  0.000000000E+00  0.00000E+00  9.000E+00
#rwgt            1           1   3.8114918644028571E-002           1      406971           0
</event>
<event>
      5   9999  3.79277E-02  2.66675E+01 -1.00000E+00  1.56679E-01
      21    -1     0     0   502   501  0.000000000E+00  0.000000000E+00  1.898879188E+02  1.898879188E+02  0.000000000E+00  0.00000E+00  9.000E+00
      21    -1     0     0   501   511  0.000000000E+00  0.000000000E+00 -2.417594024E+02  2.417594024E+02  0.000000000E+00  0.00000E+00  9.000E+00
      25     1     1     2     0     0  2.527739052E+01 -7.643365249E+01  1.164697401E+02  1.888683405E+02  1.250000000E+02  0.00000E+00  9.000E+00
      25     1     1     2     0     0  1.248238808E+00  7.918085368E+01 -1.373548222E+02  2.018972830E+02  1.250000000E+02  0.00000E+00  9.000E+00
      21     1     1     2   502   511 -2.652562932E+01 -2.747201194E+00 -3.098640152E+01  4.088169767E+01  5.840038640E-07  0.00000E+00  9.000E+00
#rwgt            1           1   3.3199338653369798E-002           1      407156           0
</event>
<event>
      5   9999  3.79277E-02  5.04163E+01 -1.00000E+00  1.38870E-01
       2    -1     0     0   502     0  0.000000000E+00  0.000000000E+00  1.393005792E+03  1.393005792E+03  0.000000000E+00  0.00000E+00  9.000E+00
      21    -1     0     0   501   502  0.000000000E+00  0.000000000E+00 -3.558069795E+02  3.558069795E+02  0.000000000E+00  0.00000E+00  9.000E+00
      25     1     1     2     0     0  1.828053986E+02  1.166885394E+02 -6.864892227E+01  2.595605970E+02  1.250000000E+02  0.00000E+00  9.000E+00
      25     1     1     2     0     0 -1.803312786E+02 -6.633294715E+01 -1.224762617E+02  2.598939487E+02  1.250000000E+02  0.00000E+00  9.000E+00
       2     1     1     2   501     0 -2.474120014E+00 -5.035559229E+01  1.228323996E+03  1.229358226E+03  1.525878906E-05  0.00000E+00  9.000E+00
#rwgt            1           1   3.4567357315752473E-002           1      407286           0
</event>
<event>
      5   9999  3.79277E-02  1.18547E+02 -1.00000E+00  1.20593E-01
      21    -1     0     0   502   511  0.000000000E+00  0.000000000E+00  2.722543928E+02  2.722543928E+02  0.000000000E+00  0.00000E+00  9.000E+00
      21    -1     0     0   501   502  0.000000000E+00  0.000000000E+00 -5.790414094E+02  5.790414094E+02  0.000000000E+00  0.00000E+00  9.000E+00
      25     1     1     2     0     0  2.211257708E+01 -3.114387092E+02 -3.398445750E+02  4.781238028E+02  1.250000000E+02  0.00000E+00  9.000E+00
      25     1     1     2     0     0  9.768606647E+00  1.972587328E+02 -3.521349018E+01  2.363713672E+02  1.250000000E+02  0.00000E+00  9.000E+00
      21     1     1     2   501   511 -3.188118373E+01  1.141799764E+02  6.827104858E+01  1.368006322E+02  1.348699152E-06  0.00000E+00  9.000E+00
#rwgt            1           1   3.8189102000405171E-002           1      407383           0
</event>
<event>
      5   9999  3.79277E-02  5.47521E+00 -1.00000E+00  2.31828E-01
      21    -1     0     0   512   501  0.000000000E+00  0.000000000E+00  3.472980988E+02  3.472980988E+02  0.000000000E+00  0.00000E+00  9.000E+00
      21    -1     0     0   501   502  0.000000000E+00  0.000000000E+00 -6.075940685E+02  6.075940685E+02  0.000000000E+00  0.00000E+00  9.000E+00
      25     1     1     2     0     0 -9.020782216E+00 -3.826197634E+02 -7.491752900E+01  4.095325310E+02  1.250000000E+02  0.00000E+00  9.000E+00
      25     1     1     2     0     0  1.244804350E+01  3.868896405E+02 -2.520052077E+02  4.785082783E+02  1.250000000E+02  0.00000E+00  9.000E+00
      21     1     1     2   512   502 -3.427261279E+00 -4.269877103E+00  6.662676708E+01  6.685135797E+01  9.536743164E-07  0.00000E+00  9.000E+00
#rwgt            1           1   3.3538236067660813E-002           1      407466           0
</event>
<event>
      5   9999  3.79277E-02  1.00240E+02 -1.00000E+00  1.23781E-01
      21    -1     0     0   502   501  0.000000000E+00  0.000000000E+00  3.959341033E+02  3.959341033E+02  0.000000000E+00  0.00000E+00  9.000E+00
      21    -1     0     0   501   511  0.000000000E+00  0.000000000E+00 -3.739224668E+02  3.739224668E+02  0.000000000E+00  0.00000E+00  9.000E+00
      25     1     1     2     0     0 -2.079188511E+02  8.183327809E+01 -1.172148664E+02  2.815870362E+02  1.250000000E+02  0.00000E+00  9.000E+00
      25     1     1     2     0     0  1.511770924E+02  8.009411682E-01  2.635679058E+02  3.285547073E+02  1.250000000E+02  0.00000E+00  9.000E+00
      21     1     1     2   502   511  5.674175872E+01 -8.263421926E+01 -1.243414028E+02  1.597148266E+02  1.348699152E-06  0.00000E+00  9.000E+00
#rwgt            1           1   6.9671031944371450E-002           1      408039           0
</event>
<event>
      5   9999  3.79277E-02  3.89563E+02 -1.00000E+00  1.02032E-01
       2    -1     0     0   502     0  0.000000000E+00  0.000000000E+00  2.770273976E+02  2.770273976E+02  0.000000000E+00  0.00000E+00  9.000E+00
      21    -1     0     0   501   502  0.000000000E+00  0.000000000E+00 -1.629431367E+03  1.629431367E+03  0.000000000E+00  0.00000E+00  9.000E+00
      25     1     1     2     0     0  5.957676291E+01 -6.801082643E+01 -9.638677065E+02  9.761356560E+02  1.250000000E+02  0.00000E+00  9.000E+00
      25     1     1     2     0     0  2.680907815E+02  2.787071253E+02 -3.544570912E+02  5.392728051E+02  1.250000000E+02  0.00000E+00  9.000E+00
       2     1     1     2   501     0 -3.276675444E+02 -2.106962988E+02 -3.407917192E+01  3.910503037E+02  7.371723573E-06  0.00000E+00  9.000E+00
#rwgt            1           1   3.8267390942762242E-002           1      408193           0
</event>
<event>
      5   9999  3.79277E-02  2.91953E+01 -1.00000E+00  1.53865E-01
       2    -1     0     0   502     0  0.000000000E+00  0.000000000E+00  1.851479515E+03  1.851479515E+03  0.000000000E+00  0.00000E+00  9.000E+00
      21    -1     0     0   501   502  0.000000000E+00  0.000000000E+00 -3.986523184E+02  3.986523184E+02  0.000000000E+00  0.00000E+00  9.000E+00
      25     1     1     2     0     0  4.598435672E+01 -2.303236261E+01 -3.253657545E+02  3.523250275E+02  1.250000000E+02  0.00000E+00  9.000E+00
      25     1     1     2     0     0 -7.433066067E+01  1.604294805E+01  2.998324395E+01  1.493533335E+02  1.250000000E+02  0.00000E+00  9.000E+00
       2     1     1     2   501     0  2.834630395E+01  6.989414559E+00  1.748209707E+03  1.748453472E+03  2.157918644E-05  0.00000E+00  9.000E+00
#rwgt            1           1   4.4066518340443041E-002           1      408244           0
</event>
<event>
      5   9999  3.79277E-02  2.82603E+01 -1.00000E+00  1.54864E-01
      21    -1     0     0   502   501  0.000000000E+00  0.000000000E+00  2.059696718E+03  2.059696718E+03  0.000000000E+00  0.00000E+00  9.000E+00
      21    -1     0     0   511   502  0.000000000E+00  0.000000000E+00 -6.199337549E+01  6.199337549E+01  0.000000000E+00  0.00000E+00  9.000E+00
      25     1     1     2     0     0 -1.058386697E+02  9.411145827E-01  1.956600989E+02  2.551677565E+02  1.250000000E+02  0.00000E+00  9.000E+00
      25     1     1     2     0     0  1.146057477E+02  2.592488224E+01  1.823178947E+03  1.831232658E+03  1.250000000E+02  0.00000E+00  9.000E+00
      21     1     1     2   511   501 -8.767078060E+00 -2.686599682E+01 -2.113570336E+01  3.528967837E+01  8.259061849E-07  0.00000E+00  9.000E+00
#rwgt            1           1   5.1140475251020105E-002           1      408355           0
</event>
<event>
      5   9999 -3.79277E-02  3.85298E+01 -1.00000E+00  1.45856E-01
      21    -1     0     0   502   501  0.000000000E+00  0.000000000E+00  2.416003260E+03  2.416003260E+03  0.000000000E+00  0.00000E+00  9.000E+00
      -1    -1     0     0     0   502  0.000000000E+00  0.000000000E+00 -3.073840419E+02  3.073840419E+02  0.000000000E+00  0.00000E+00  9.000E+00
      25     1     1     2     0     0 -7.750618481E+01 -6.419531534E+01  1.243260301E+02  2.030029777E+02  1.250000000E+02  0.00000E+00  9.000E+00
      25     1     1     2     0     0  5.581870845E+01  3.234886269E+01  2.248745056E+03  2.253140365E+03  1.250000000E+02  0.00000E+00  9.000E+00
      -1     1     1     2     0   501  2.168747636E+01  3.184645265E+01 -2.644518681E+02  2.672439592E+02  9.344061824E-06  0.00000E+00  9.000E+00
#rwgt            1           1 -0.11931719782219910                1      408543           0
</event>
<event>
      5   9999  3.79277E-02  4.70540E+01 -1.00000E+00  1.40597E-01
      21    -1     0     0   502   501  0.000000000E+00  0.000000000E+00  1.625260944E+03  1.625260944E+03  0.000000000E+00  0.00000E+00  9.000E+00
      21    -1     0     0   501   511  0.000000000E+00  0.000000000E+00 -4.444620357E+02  4.444620357E+02  0.000000000E+00  0.00000E+00  9.000E+00
      25     1     1     2     0     0 -1.673177390E+02 -7.640813358E+01  3.050675649E+02  3.775243671E+02  1.250000000E+02  0.00000E+00  9.000E+00
      25     1     1     2     0     0  1.811477128E+02  3.143250498E+01  1.272941902E+03  1.292210734E+03  1.250000000E+02  0.00000E+00  9.000E+00
      21     1     1     2   502   511 -1.382997379E+01  4.497562860E+01 -3.972105583E+02  3.999878785E+02  1.206313194E-05  0.00000E+00  9.000E+00
#rwgt            1           1   3.4305867941870315E-002           1      408791           0
</event>
<event>
      5   9999  3.79277E-02  5.24273E+01 -1.00000E+00  1.37911E-01
       1    -1     0     0   502     0  0.000000000E+00  0.000000000E+00  7.209805684E+02  7.209805684E+02  0.000000000E+00  0.00000E+00  9.000E+00
      21    -1     0     0   501   502  0.000000000E+00  0.000000000E+00 -4.788307163E+02  4.788307163E+02  0.000000000E+00  0.00000E+00  9.000E+00
      25     1     1     2     0     0 -1.612362387E+02  3.443898784E+01 -1.692479758E+02  2.673070255E+02  1.250000000E+02  0.00000E+00  9.000E+00
      25     1     1     2     0     0  1.740336731E+02 -8.528034232E+01 -2.081971246E+02  3.106951864E+02  1.250000000E+02  0.00000E+00  9.000E+00
       1     1     1     2   501     0 -1.279743431E+01  5.084135448E+01  6.195949526E+02  6.218090727E+02  0.000000000E+00  0.00000E+00  9.000E+00
#rwgt            1           1   3.4546692130516636E-002           1      408905           0
</event>
<event>
      5   9999  3.79277E-02  1.05269E+01 -1.00000E+00  1.93214E-01
      21    -1     0     0   502   501  0.000000000E+00  0.000000000E+00  2.984464237E+02  2.984464237E+02  0.000000000E+00  0.00000E+00  9.000E+00
      21    -1     0     0   511   502  0.000000000E+00  0.000000000E+00 -1.792992475E+02  1.792992475E+02  0.000000000E+00  0.00000E+00  9.000E+00
      25     1     1     2     0     0 -4.220449599E+01 -9.008370062E+01 -7.937267083E+01  1.783852950E+02  1.250000000E+02  0.00000E+00  9.000E+00
      25     1     1     2     0     0  4.078093999E+01  7.965352549E+01  2.240649644E+02  2.717312596E+02  1.250000000E+02  0.00000E+00  9.000E+00
      21     1     1     2   511   501  1.423555997E+00  1.043017513E+01 -2.554511736E+01  2.762911663E+01  3.371747881E-07  0.00000E+00  9.000E+00
#rwgt            1           1   2.4692066480149766E-002           1      408984           0
</event>
<event>
      5   9999  3.79277E-02  3.44055E+01 -1.00000E+00  1.49018E-01
      21    -1     0     0   502   512  0.000000000E+00  0.000000000E+00  1.704917478E+02  1.704917478E+02  0.000000000E+00  0.00000E+00  9.000E+00
      21    -1     0     0   501   502  0.000000000E+00  0.000000000E+00 -3.015437086E+02  3.015437086E+02  0.000000000E+00  0.00000E+00  9.000E+00
      25     1     1     2     0     0  1.062879468E+02 -1.178362735E+02 -1.173563657E+02  2.336236965E+02  1.250000000E+02  0.00000E+00  9.000E+00
      25     1     1     2     0     0 -1.154691438E+02  8.467842156E+01 -4.104985251E+01  1.944573183E+02  1.250000000E+02  0.00000E+00  9.000E+00
      21     1     1     2   501   512  9.181197069E+00  3.315785195E+01  2.735425745E+01  4.395444148E+01  8.259061849E-07  0.00000E+00  9.000E+00
#rwgt            1           1   4.0099945140003403E-002           1      409150           0
</event>
<event>
      5   9999  3.79277E-02  6.85821E+01 -1.00000E+00  1.31672E-01
      -1    -1     0     0     0   501  0.000000000E+00  0.000000000E+00  1.015035757E+03  1.015035757E+03  0.000000000E+00  0.00000E+00  9.000E+00
      21    -1     0     0   501   502  0.000000000E+00  0.000000000E+00 -4.310022952E+01  4.310022952E+01  0.000000000E+00  0.00000E+00  9.000E+00
      25     1     1     2     0     0 -5.254497763E+01  1.804725390E+01  2.056802543E+02  2.470142608E+02  1.250000000E+02  0.00000E+00  9.000E+00
      25     1     1     2     0     0  1.101580706E+02  1.915811510E+01  3.370301360E+02  3.764520507E+02  1.250000000E+02  0.00000E+00  9.000E+00
      -1     1     1     2     0   502 -5.761309302E+01 -3.720536900E+01  4.292251369E+02  4.346696747E+02  0.000000000E+00  0.00000E+00  9.000E+00
#rwgt            1           1  0.11043332064538451                1      409271           0
</event>
<event>
      5   9999  3.79277E-02  6.56820E+01 -1.00000E+00  1.32637E-01
      21    -1     0     0   502   511  0.000000000E+00  0.000000000E+00  1.279484613E+03  1.279484613E+03  0.000000000E+00  0.00000E+00  9.000E+00
      21    -1     0     0   501   502  0.000000000E+00  0.000000000E+00 -3.330896418E+01  3.330896418E+01  0.000000000E+00  0.00000E+00  9.000E+00
      25     1     1     2     0     0  7.964317091E+01  1.125907522E+01  2.512954315E+02  2.919660859E+02  1.250000000E+02  0.00000E+00  9.000E+00
      25     1     1     2     0     0 -6.082171578E+01 -7.418667979E+01  7.939364324E+02  8.094214003E+02  1.250000000E+02  0.00000E+00  9.000E+00
      21     1     1     2   501   511 -1.882145513E+01  6.292760457E+01  2.009437849E+02  2.114060910E+02  4.672030912E-06  0.00000E+00  9.000E+00
#rwgt            1           1   4.5747669011025290E-002           1      409354           0
</event>
<event>
      5   9999  3.79277E-02  6.50904E+00 -1.00000E+00  2.20116E-01
      21    -1     0     0   502   501  0.000000000E+00  0.000000000E+00  2.484952394E+02  2.484952394E+02  0.000000000E+00  0.00000E+00  9.000E+00
      21    -1     0     0   512   502  0.000000000E+00  0.000000000E+00 -1.675967846E+02  1.675967846E+02  0.000000000E+00  0.00000E+00  9.000E+00
      25     1     1     2     0     0 -1.026780604E+02  6.733333524E+01  5.866811613E+01  1.847796254E+02  1.250000000E+02  0.00000E+00  9.000E+00
      25     1     1     2     0     0  9.801216728E+01 -6.279494230E+01  6.890901231E+01  1.841820884E+02  1.250000000E+02  0.00000E+00  9.000E+00
      21     1     1     2   512   501  4.665893139E+00 -4.538392945E+00 -4.667867360E+01  4.713031018E+01  6.743495762E-07  0.00000E+00  9.000E+00
#rwgt            1           1   4.0505419836078069E-002           1      409452           0
</event>
<event>
      5   9999  3.79277E-02  2.43509E+01 -1.00000E+00  1.59611E-01
      21    -1     0     0   502   501  0.000000000E+00  0.000000000E+00  3.785544595E+02  3.785544595E+02  0.000000000E+00  0.00000E+00  9.000E+00
      21    -1     0     0   511   502  0.000000000E+00  0.000000000E+00 -3.387011794E+02  3.387011794E+02  0.000000000E+00  0.00000E+00  9.000E+00
      25     1     1     2     0     0 -2.767350197E+02  5.411936791E+00 -1.046251125E+02  3.212210677E+02  1.250000000E+02  0.00000E+00  9.000E+00
      25     1     1     2     0     0  2.974284722E+02  7.423422355E+00  1.665613128E+02  3.631617741E+02  1.250000000E+02  0.00000E+00  9.000E+00
      21     1     1     2   511   501 -2.069345246E+01 -1.283535915E+01 -2.208292017E+01  3.287279700E+01  5.840038640E-07  0.00000E+00  9.000E+00
#rwgt            1           1   3.8429030533885349E-002           1      409740           0
</event>
<event>
      5   9999 -3.79277E-02  3.66377E+01 -1.00000E+00  1.47245E-01
      21    -1     0     0   502   501  0.000000000E+00  0.000000000E+00  2.514894874E+03  2.514894874E+03  0.000000000E+00  0.00000E+00  9.000E+00
       1    -1     0     0   501     0  0.000000000E+00  0.000000000E+00 -2.223367745E+02  2.223367745E+02  0.000000000E+00  0.00000E+00  9.000E+00
      25     1     1     2     0     0  9.328540963E+00 -7.171911170E+01  1.990874886E+03  1.996105825E+03  1.250000000E+02  0.00000E+00  9.000E+00
      25     1     1     2     0     0  2.492816738E+01  8.471149922E+01  5.085294356E+02  5.310599198E+02  1.250000000E+02  0.00000E+00  9.000E+00
       1     1     1     2   502     0 -3.425670834E+01 -1.299238752E+01 -2.068462222E+02  2.100659036E+02  4.672030912E-06  0.00000E+00  9.000E+00
#rwgt            1           1 -0.11987274047512235                1      409958           0
</event>
<event>
      5   9999  3.79277E-02  1.00664E+02 -1.00000E+00  1.23699E-01
      21    -1     0     0   511   501  0.000000000E+00  0.000000000E+00  8.588207665E+02  8.588207665E+02  0.000000000E+00  0.00000E+00  9.000E+00
      21    -1     0     0   501   502  0.000000000E+00  0.000000000E+00 -5.432040378E+02  5.432040378E+02  0.000000000E+00  0.00000E+00  9.000E+00
      25     1     1     2     0     0 -5.176028283E+02  3.119505199E+02 -9.919998200E+01  6.250531587E+02  1.250000000E+02  0.00000E+00  9.000E+00
      25     1     1     2     0     0  4.182766734E+02 -2.955953526E+02  2.491586337E+02  5.831269268E+02  1.250000000E+02  0.00000E+00  9.000E+00
      21     1     1     2   511   502  9.932615485E+01 -1.635516736E+01  1.656580771E+02  1.938447189E+02  1.907348633E-06  0.00000E+00  9.000E+00
#rwgt            1           1   5.6226437156558631E-002           1      410032           0
</event>
<event>
      5   9999  3.79277E-02  1.90209E+02 -1.00000E+00  1.12447E-01
       2    -1     0     0   502     0  0.000000000E+00  0.000000000E+00  2.533248329E+03  2.533248329E+03  0.000000000E+00  0.00000E+00  9.000E+00
      21    -1     0     0   501   502  0.000000000E+00  0.000000000E+00 -1.354315260E+02  1.354315260E+02  0.000000000E+00  0.00000E+00  9.000E+00
      25     1     1     2     0     0  1.536946087E+02 -2.430502083E+01  2.052020459E+02  2.862615000E+02  1.250000000E+02  0.00000E+00  9.000E+00
      25     1     1     2     0     0 -2.495135289E+01  1.643215938E+02  2.843883260E+01  2.098997937E+02  1.250000000E+02  0.00000E+00  9.000E+00
       2     1     1     2   501     0 -1.287432558E+02 -1.400165729E+02  2.164175924E+03  2.172518561E+03  0.000000000E+00  0.00000E+00  9.000E+00
#rwgt            1           1   4.0917759081566085E-002           1      410198           0
</event>
<event>
      5   9999  3.79277E-02  1.34746E+01 -1.00000E+00  1.81887E-01
       1    -1     0     0   502     0  0.000000000E+00  0.000000000E+00  1.307781668E+03  1.307781668E+03  0.000000000E+00  0.00000E+00  9.000E+00
      21    -1     0     0   501   502  0.000000000E+00  0.000000000E+00 -1.111633078E+02  1.111633078E+02  0.000000000E+00  0.00000E+00  9.000E+00
      25     1     1     2     0     0 -1.400236368E+02 -6.397944280E+01  1.443382151E+02  2.452723146E+02  1.250000000E+02  0.00000E+00  9.000E+00
      25     1     1     2     0     0  1.447207309E+02  7.660890692E+01  1.142882661E+02  2.355840027E+02  1.250000000E+02  0.00000E+00  9.000E+00
       1     1     1     2   501     0 -4.697094050E+00 -1.262946412E+01  9.379918791E+02  9.380886586E+02  0.000000000E+00  0.00000E+00  9.000E+00
#rwgt            1           1   3.3197155208469172E-002           1      410317           0
</event>
<event>
      5   9999  3.79277E-02  1.04118E+02 -1.00000E+00  1.23045E-01
      21    -1     0     0   502   501  0.000000000E+00  0.000000000E+00  1.056999181E+02  1.056999181E+02  0.000000000E+00  0.00000E+00  9.000E+00
       1    -1     0     0   501     0  0.000000000E+00  0.000000000E+00 -8.193361875E+02  8.193361875E+02  0.000000000E+00  0.00000E+00  9.000E+00
      25     1     1     2     0     0 -1.113394664E+02 -2.480327092E+01 -6.240014453E+02  6.465403953E+02  1.250000000E+02  0.00000E+00  9.000E+00
      25     1     1     2     0     0  4.418393758E+01 -5.476196310E+01 -3.694680487E+00  1.434912667E+02  1.250000000E+02  0.00000E+00  9.000E+00
       1     1     1     2   502     0  6.715552879E+01  7.956523402E+01 -8.594014365E+01  1.350044436E+02  9.536743164E-07  0.00000E+00  9.000E+00
#rwgt            1           1   4.8162490922601615E-002           1      410647           0
</event>
<event>
      5   9999  3.79277E-02  1.11091E+02 -1.00000E+00  1.21808E-01
      21    -1     0     0   502   501  0.000000000E+00  0.000000000E+00  8.273542462E+02  8.273542462E+02  0.000000000E+00  0.00000E+00  9.000E+00
       3    -1     0     0   501     0  0.000000000E+00  0.000000000E+00 -9.460091492E+01  9.460091492E+01  0.000000000E+00  0.00000E+00  9.000E+00
      25     1     1     2     0     0 -3.866023226E+01  2.255550981E+02  2.871394559E+02  3.878708329E+02  1.250000000E+02  0.00000E+00  9.000E+00
      25     1     1     2     0     0  3.225168032E+01 -1.146492144E+02  3.373447582E+02  3.789605509E+02  1.250000000E+02  0.00000E+00  9.000E+00
       3     1     1     2   502     0  6.408551938E+00 -1.109058837E+02  1.082691172E+02  1.551237774E+02  3.015782986E-06  0.00000E+00  9.000E+00
#rwgt            1           1   3.7720726018854497E-002           1      410736           0
</event>
<event>
      5   9999  3.79277E-02  2.49515E+01 -1.00000E+00  1.58814E-01
      21    -1     0     0   502   501  0.000000000E+00  0.000000000E+00  3.161524282E+02  3.161524282E+02  0.000000000E+00  0.00000E+00  9.000E+00
      21    -1     0     0   501   511  0.000000000E+00  0.000000000E+00 -8.538412848E+02  8.538412848E+02  0.000000000E+00  0.00000E+00  9.000E+00
      25     1     1     2     0     0 -1.676570913E+02 -1.075285992E+02 -6.724714037E+01  2.445781630E+02  1.250000000E+02  0.00000E+00  9.000E+00
      25     1     1     2     0     0  1.456681736E+02  1.193211630E+02  1.710474370E+02  2.834413210E+02  1.250000000E+02  0.00000E+00  9.000E+00
      21     1     1     2   502   511  2.198891772E+01 -1.179256381E+01 -6.414891532E+02  6.419742290E+02  0.000000000E+00  0.00000E+00  9.000E+00
#rwgt            1           1   4.5650740858250126E-002           1      410847           0
</event>
<event>
      5   9999  3.79277E-02  4.24528E+01 -1.00000E+00  1.43255E-01
      21    -1     0     0   502   501  0.000000000E+00  0.000000000E+00  3.555945933E+02  3.555945933E+02  0.000000000E+00  0.00000E+00  9.000E+00
      -5    -1     0     0     0   502  0.000000000E+00  0.000000000E+00 -1.738207392E+02  1.738207392E+02  0.000000000E+00  0.00000E+00  9.000E+00
      25     1     1     2     0     0 -1.391435560E+02 -7.763060213E+01  4.850923034E+01  2.082440515E+02  1.250000000E+02  0.00000E+00  9.000E+00
      25     1     1     2     0     0  9.680931633E+01  7.446072027E+01  1.848366184E+02  2.543737763E+02  1.250000000E+02  0.00000E+00  9.000E+00
      -5     1     1     2     0   501  4.233423969E+01  3.169881866E+00 -5.157199462E+01  6.679750467E+01  1.168007728E-06  0.00000E+00  9.000E+00
#rwgt            1           1   3.4719639379261029E-002           1      411035           0
</event>
<event>
      5   9999  3.79277E-02  1.99198E+01 -1.00000E+00  1.66513E-01
      21    -1     0     0   502   501  0.000000000E+00  0.000000000E+00  4.492293494E+01  4.492293494E+01  0.000000000E+00  0.00000E+00  9.000E+00
       2    -1     0     0   501     0  0.000000000E+00  0.000000000E+00 -1.771963682E+03  1.771963682E+03  0.000000000E+00  0.00000E+00  9.000E+00
      25     1     1     2     0     0 -1.437771064E+02  1.020536781E+02 -3.429931936E+02  4.054086092E+02  1.250000000E+02  0.00000E+00  9.000E+00
      25     1     1     2     0     0  1.496528174E+02 -8.302015430E+01 -8.156845376E+02  8.427660272E+02  1.250000000E+02  0.00000E+00  9.000E+00
       2     1     1     2   502     0 -5.875710965E+00 -1.903352376E+01 -5.683630164E+02  5.687119810E+02  1.078959322E-05  0.00000E+00  9.000E+00
#rwgt            1           1   3.5304847055436635E-002           1      411230           0
</event>
<event>
      5   9999  3.79277E-02  1.47712E+01 -1.00000E+00  1.78015E-01
      21    -1     0     0   502   501  0.000000000E+00  0.000000000E+00  3.379156616E+01  3.379156616E+01  0.000000000E+00  0.00000E+00  9.000E+00
      21    -1     0     0   511   502  0.000000000E+00  0.000000000E+00 -1.920584878E+03  1.920584878E+03  0.000000000E+00  0.00000E+00  9.000E+00
      25     1     1     2     0     0 -5.187330190E+01 -1.690452420E+02 -1.050705075E+03  1.072787625E+03  1.250000000E+02  0.00000E+00  9.000E+00
      25     1     1     2     0     0  3.720695490E+01  1.672881248E+02 -4.751464350E+02  5.203448942E+02  1.250000000E+02  0.00000E+00  9.000E+00
      21     1     1     2   511   501  1.466634700E+01  1.757117188E+00 -3.609418015E+02  3.612439249E+02  8.529922400E-06  0.00000E+00  9.000E+00
#rwgt            1           1   4.4984296015478875E-002           1      411567           0
</event>
<event>
      5   9999  3.79277E-02  1.31099E+02 -1.00000E+00  1.18760E-01
      21    -1     0     0   502   501  0.000000000E+00  0.000000000E+00  3.307806248E+02  3.307806248E+02  0.000000000E+00  0.00000E+00  9.000E+00
      21    -1     0     0   501   512  0.000000000E+00  0.000000000E+00 -3.188023722E+02  3.188023722E+02  0.000000000E+00  0.00000E+00  9.000E+00
      25     1     1     2     0     0  1.916981431E+02  1.317546285E+02  1.318422621E+02  2.951522358E+02  1.250000000E+02  0.00000E+00  9.000E+00
      25     1     1     2     0     0 -6.136629851E+01 -1.459178431E+02 -6.099430442E+01  2.107205370E+02  1.250000000E+02  0.00000E+00  9.000E+00
      21     1     1     2   502   512 -1.303318446E+02  1.416321464E+01 -5.886970515E+01  1.437102242E+02  9.536743164E-07  0.00000E+00  9.000E+00
#rwgt            1           1   4.8193546897621779E-002           1      411876           0
</event>
<event>
      5   9999  3.79277E-02  4.60143E+01 -1.00000E+00  1.41166E-01
      21    -1     0     0   502   501  0.000000000E+00  0.000000000E+00  3.704289422E+02  3.704289422E+02  0.000000000E+00  0.00000E+00  9.000E+00
      21    -1     0     0   501   511  0.000000000E+00  0.000000000E+00 -3.072950369E+02  3.072950369E+02  0.000000000E+00  0.00000E+00  9.000E+00
      25     1     1     2     0     0  8.661075339E+01  1.366508129E+02  2.055681044E+02  2.899277717E+02  1.250000000E+02  0.00000E+00  9.000E+00
      25     1     1     2     0     0 -7.837083674E+01 -1.819213422E+02  4.042497673E+00  2.342620426E+02  1.250000000E+02  0.00000E+00  9.000E+00
      21     1     1     2   502   511 -8.239916646E+00  4.527052934E+01 -1.464766968E+02  1.535341648E+02  2.697398305E-06  0.00000E+00  9.000E+00
#rwgt            1           1   2.7203590885015866E-002           1      412004           0
</event>
<event>
      5   9999  3.79277E-02  1.07597E+01 -1.00000E+00  1.92151E-01
      21    -1     0     0   512   501  0.000000000E+00  0.000000000E+00  3.486108969E+02  3.486108969E+02  0.000000000E+00  0.00000E+00  9.000E+00
      21    -1     0     0   501   502  0.000000000E+00  0.000000000E+00 -9.281921820E+01  9.281921820E+01  0.000000000E+00  0.00000E+00  9.000E+00
      25     1     1     2     0     0  3.359925328E+01  1.155437769E+02  1.284814010E+02  2.158975327E+02  1.250000000E+02  0.00000E+00  9.000E+00
      25     1     1     2     0     0 -4.131439327E+01 -1.080439142E+02  1.032171826E+02  1.991460602E+02  1.250000000E+02  0.00000E+00  9.000E+00
      21     1     1     2   512   502  7.715139985E+00 -7.499862749E+00  2.409309505E+01  2.638652223E+01  3.371747881E-07  0.00000E+00  9.000E+00
#rwgt            1           1   3.1883708869679790E-002           1      412108           0
</event>
<event>
      5   9999  3.79277E-02  1.33272E+02 -1.00000E+00  1.18466E-01
      21    -1     0     0   502   511  0.000000000E+00  0.000000000E+00  4.111691462E+02  4.111691462E+02  0.000000000E+00  0.00000E+00  9.000E+00
      21    -1     0     0   501   502  0.000000000E+00  0.000000000E+00 -2.785802279E+02  2.785802279E+02  0.000000000E+00  0.00000E+00  9.000E+00
      25     1     1     2     0     0  1.133837064E+02  1.229659073E+02 -2.794283594E+01  2.106710263E+02  1.250000000E+02  0.00000E+00  9.000E+00
      25     1     1     2     0     0 -1.149501854E+02 -2.562285996E+02  6.262663950E+01  3.137096370E+02  1.250000000E+02  0.00000E+00  9.000E+00
      21     1     1     2   501   511  1.566479005E+00  1.332626923E+02  9.790511478E+01  1.653687108E+02  1.907348633E-06  0.00000E+00  9.000E+00
#rwgt            1           1   5.4773049080003820E-002           1      412312           0
</event>
<event>
      5   9999  3.79277E-02  5.08654E+00 -1.00000E+00  2.37221E-01
      21    -1     0     0   502   512  0.000000000E+00  0.000000000E+00  2.999916562E+02  2.999916562E+02  0.000000000E+00  0.00000E+00  9.000E+00
      21    -1     0     0   501   502  0.000000000E+00  0.000000000E+00 -1.845724725E+02  1.845724725E+02  0.000000000E+00  0.00000E+00  9.000E+00
      25     1     1     2     0     0 -1.425115108E+02  1.039482475E+02  1.991732035E+01  2.171093470E+02  1.250000000E+02  0.00000E+00  9.000E+00
      25     1     1     2     0     0  1.442279170E+02 -9.916005020E+01  4.889055513E+01  2.205667563E+02  1.250000000E+02  0.00000E+00  9.000E+00
      21     1     1     2   501   512 -1.716406187E+00 -4.788197317E+00  4.661130815E+01  4.688802546E+01  6.743495762E-07  0.00000E+00  9.000E+00
#rwgt            1           1   2.9519869593197610E-002           1      412444           0
</event>
<event>
      5   9999  3.79277E-02  3.28723E+01 -1.00000E+00  1.50332E-01
      21    -1     0     0   502   501  0.000000000E+00  0.000000000E+00  3.619828555E+02  3.619828555E+02  0.000000000E+00  0.00000E+00  9.000E+00
      21    -1     0     0   501   511  0.000000000E+00  0.000000000E+00 -4.907915280E+02  4.907915280E+02  0.000000000E+00  0.00000E+00  9.000E+00
      25     1     1     2     0     0 -8.481519862E+01  1.797026346E+02 -2.564274828E+02  3.476588971E+02  1.250000000E+02  0.00000E+00  9.000E+00
      25     1     1     2     0     0  1.038008860E+02 -1.528673592E+02  2.750022882E+02  3.541105929E+02  1.250000000E+02  0.00000E+00  9.000E+00
      21     1     1     2   502   511 -1.898568738E+01 -2.683527532E+01 -1.473834779E+02  1.510048936E+02  1.907348633E-06  0.00000E+00  9.000E+00
#rwgt            1           1   2.5979717949595357E-002           1      412707           0
</event>
<event>
      5   9999  3.79277E-02  7.66090E+01 -1.00000E+00  1.29267E-01
       1    -1     0     0   502     0  0.000000000E+00  0.000000000E+00  1.131501915E+03  1.131501915E+03  0.000000000E+00  0.00000E+00  9.000E+00
      21    -1     0     0   501   502  0.000000000E+00  0.000000000E+00 -8.235962527E+01  8.235962527E+01  0.000000000E+00  0.00000E+00  9.000E+00
      25     1     1     2     0     0 -1.340947337E+02  1.244116254E+02  2.271017396E+02  3.172693655E+02  1.250000000E+02  0.00000E+00  9.000E+00
      25     1     1     2     0     0  1.598357795E+02 -5.225664163E+01  2.829482143E+02  3.520836903E+02  1.250000000E+02  0.00000E+00  9.000E+00
       1     1     1     2   501     0 -2.574104582E+01 -7.215498378E+01  5.390923359E+02  5.445084846E+02  1.078959322E-05  0.00000E+00  9.000E+00
#rwgt            1           1   3.9165604705686759E-002           1      413177           0
</event>
<event>
      5   9999  3.79277E-02  4.70898E+01 -1.00000E+00  1.40578E-01
       1    -1     0     0   502     0  0.000000000E+00  0.000000000E+00  5.835649607E+02  5.835649607E+02  0.000000000E+00  0.00000E+00  9.000E+00
      21    -1     0     0   501   502  0.000000000E+00  0.000000000E+00 -2.564570198E+02  2.564570198E+02  0.000000000E+00  0.00000E+00  9.000E+00
      25     1     1     2     0     0  7.091448197E+00  7.328599499E+01 -1.876024077E+02  2.371514054E+02  1.250000000E+02  0.00000E+00  9.000E+00
      25     1     1     2     0     0  1.948594428E+01 -1.121587572E+02  1.248356755E+02  2.101624008E+02  1.250000000E+02  0.00000E+00  9.000E+00
       1     1     1     2   501     0 -2.657739247E+01  3.887276217E+01  3.898746731E+02  3.927081743E+02  5.394796609E-06  0.00000E+00  9.000E+00
#rwgt            1           1   2.9103358570130761E-002           1      413255           0
</event>
<event>
      5   9999  3.79277E-02  2.40544E+01 -1.00000E+00  1.60015E-01
       2    -1     0     0   502     0  0.000000000E+00  0.000000000E+00  4.354675056E+03  4.354675056E+03  0.000000000E+00  0.00000E+00  9.000E+00
      21    -1     0     0   501   502  0.000000000E+00  0.000000000E+00 -1.574608709E+02  1.574608709E+02  0.000000000E+00  0.00000E+00  9.000E+00
      25     1     1     2     0     0  1.144770386E+02  1.233350774E+02  4.791294165E+02  5.229785191E+02  1.250000000E+02  0.00000E+00  9.000E+00
      25     1     1     2     0     0 -9.504876789E+01 -1.091520675E+02 -6.801849844E+01  2.029777284E+02  1.250000000E+02  0.00000E+00  9.000E+00
       2     1     1     2   501     0 -1.942827068E+01 -1.418300989E+01  3.786103267E+03  3.786179679E+03  6.103515625E-05  0.00000E+00  9.000E+00
#rwgt            1           1   3.1759507010616986E-002           1      413372           0
</event>
<event>
      5   9999  3.79277E-02  8.34367E+01 -1.00000E+00  1.27472E-01
      21    -1     0     0   502   501  0.000000000E+00  0.000000000E+00  4.565980200E+01  4.565980200E+01  0.000000000E+00  0.00000E+00  9.000E+00
      21    -1     0     0   501   511  0.000000000E+00  0.000000000E+00 -1.389860779E+03  1.389860779E+03  0.000000000E+00  0.00000E+00  9.000E+00
      25     1     1     2     0     0  1.229858645E+02 -3.582912958E+01 -4.110382238E+02  4.483153698E+02  1.250000000E+02  0.00000E+00  9.000E+00
      25     1     1     2     0     0 -1.718900373E+02 -3.177308089E+01 -4.728516681E+02  5.193933130E+02  1.250000000E+02  0.00000E+00  9.000E+00
      21     1     1     2   502   511  4.890417279E+01  6.760221047E+01 -4.603110854E+02  4.678118984E+02  5.394796609E-06  0.00000E+00  9.000E+00
#rwgt            1           1   4.9990840115351327E-002           1      413567           0
</event>
<event>
      5   9999  3.79277E-02  2.00369E+01 -1.00000E+00  1.66303E-01
      21    -1     0     0   512   501  0.000000000E+00  0.000000000E+00  1.042348853E+03  1.042348853E+03  0.000000000E+00  0.00000E+00  9.000E+00
      21    -1     0     0   501   502  0.000000000E+00  0.000000000E+00 -6.729874977E+01  6.729874977E+01  0.000000000E+00  0.00000E+00  9.000E+00
      25     1     1     2     0     0 -5.289734420E+01  3.859557370E+01  5.325347410E+02  5.509137843E+02  1.250000000E+02  0.00000E+00  9.000E+00
      25     1     1     2     0     0  3.287559012E+01 -3.781691243E+01  2.047405697E+01  1.362171439E+02  1.250000000E+02  0.00000E+00  9.000E+00
      21     1     1     2   512   502  2.002175407E+01 -7.786612724E-01  4.220413055E+02  4.225166748E+02  0.000000000E+00  0.00000E+00  9.000E+00
#rwgt            1           1   3.9594738982565644E-002           1      413649           0
</event>
<event>
      5   9999  3.79277E-02  1.71212E+02 -1.00000E+00  1.14162E-01
      21    -1     0     0   511   501  0.000000000E+00  0.000000000E+00  8.947925136E+02  8.947925136E+02  0.000000000E+00  0.00000E+00  9.000E+00
      21    -1     0     0   501   502  0.000000000E+00  0.000000000E+00 -1.095517782E+02  1.095517782E+02  0.000000000E+00  0.00000E+00  9.000E+00
      25     1     1     2     0     0  9.936045487E+01 -4.481669631E+01  2.537091672E+02  3.031078649E+02  1.250000000E+02  0.00000E+00  9.000E+00
      25     1     1     2     0     0 -2.157199074E+02 -8.077790296E+01  2.057088660E+02  3.331685544E+02  1.250000000E+02  0.00000E+00  9.000E+00
      21     1     1     2   511   502  1.163594526E+02  1.255945993E+02  3.258227021E+02  3.680678725E+02  0.000000000E+00  0.00000E+00  9.000E+00
#rwgt            1           1   4.4829310079352390E-002           1      413878           0
</event>
<event>
      5   9999  3.79277E-02  4.76617E+01 -1.00000E+00  1.40273E-01
      21    -1     0     0   502   501  0.000000000E+00  0.000000000E+00  1.380148928E+03  1.380148928E+03  0.000000000E+00  0.00000E+00  9.000E+00
      21    -1     0     0   501   512  0.000000000E+00  0.000000000E+00 -1.075276577E+02  1.075276577E+02  0.000000000E+00  0.00000E+00  9.000E+00
      25     1     1     2     0     0 -7.599298645E+01  2.411665515E+02  8.114295599E+02  8.590571403E+02  1.250000000E+02  0.00000E+00  9.000E+00
      25     1     1     2     0     0  9.478917744E+01 -2.849654326E+02  4.779089930E+02  5.781109682E+02  1.250000000E+02  0.00000E+00  9.000E+00
      21     1     1     2   502   512 -1.879619099E+01  4.379888111E+01 -1.671728222E+01  5.050847758E+01  1.238859277E-06  0.00000E+00  9.000E+00
#rwgt            1           1   3.2198583677832932E-002           1      413984           0
</event>
<event>
      5   9999  3.79277E-02  1.99323E+02 -1.00000E+00  1.11702E-01
      21    -1     0     0   511   501  0.000000000E+00  0.000000000E+00  9.760401849E+02  9.760401849E+02  0.000000000E+00  0.00000E+00  9.000E+00
      21    -1     0     0   501   502  0.000000000E+00  0.000000000E+00 -2.631443776E+02  2.631443776E+02  0.000000000E+00  0.00000E+00  9.000E+00
      25     1     1     2     0     0  2.179708848E+02 -8.566517045E+00  2.745479525E+02  3.722717691E+02  1.250000000E+02  0.00000E+00  9.000E+00
      25     1     1     2     0     0 -3.807220105E+02 -1.065067589E+02  3.389672565E+01  4.160131331E+02  1.250000000E+02  0.00000E+00  9.000E+00
      21     1     1     2   511   502  1.627511257E+02  1.150732759E+02  4.044511291E+02  4.508996602E+02  0.000000000E+00  0.00000E+00  9.000E+00
#rwgt            2          11   1.4594694232795452E-003           1      414081           0
</event>
<event>
      5   9999  3.79277E-02  6.31556E+00 -1.00000E+00  2.22069E-01
      21    -1     0     0   502   512  0.000000000E+00  0.000000000E+00  3.828312858E+02  3.828312858E+02  0.000000000E+00  0.00000E+00  9.000E+00
      21    -1     0     0   501   502  0.000000000E+00  0.000000000E+00 -3.134992699E+02  3.134992699E+02  0.000000000E+00  0.00000E+00  9.000E+00
      25     1     1     2     0     0 -6.607539903E+01 -9.864129983E+01 -1.769794615E+02  2.470683998E+02  1.250000000E+02  0.00000E+00  9.000E+00
      25     1     1     2     0     0  6.892577241E+01  1.042770446E+02 -2.442273404E+01  1.784542913E+02  1.250000000E+02  0.00000E+00  9.000E+00
      21     1     1     2   501   512 -2.850373372E+00 -5.635744742E+00  2.707342115E+02  2.708078646E+02  3.814697266E-06  0.00000E+00  9.000E+00
#rwgt            1           1   4.6081193242585243E-002           1      414176           0
</event>
<event>
      5   9999  3.79277E-02  2.67994E+01 -1.00000E+00  1.56523E-01
      21    -1     0     0   502   501  0.000000000E+00  0.000000000E+00  9.403384822E+01  9.403384822E+01  0.000000000E+00  0.00000E+00  9.000E+00
      21    -1     0     0   511   502  0.000000000E+00  0.000000000E+00 -6.060310310E+02  6.060310310E+02  0.000000000E+00  0.00000E+00  9.000E+00
      25     1     1     2     0     0 -1.829764969E+02  1.742370147E+01 -2.452571477E+02  3.309985684E+02  1.250000000E+02  0.00000E+00  9.000E+00
      25     1     1     2     0     0  1.573259648E+02 -2.518627036E+01 -1.573918434E+02  2.564819677E+02  1.250000000E+02  0.00000E+00  9.000E+00
      21     1     1     2   511   501  2.565053218E+01  7.762568888E+00 -1.093481917E+02  1.125843431E+02  1.348699152E-06  0.00000E+00  9.000E+00
#rwgt            1           1   3.9025718354524598E-002           1      414432           0
</event>
<event>
      5   9999  3.79277E-02  5.79544E+01 -1.00000E+00  1.35513E-01
      21    -1     0     0   502   501  0.000000000E+00  0.000000000E+00  6.244211876E+01  6.244211876E+01  0.000000000E+00  0.00000E+00  9.000E+00
      21    -1     0     0   512   502  0.000000000E+00  0.000000000E+00 -7.164709369E+02  7.164709369E+02  0.000000000E+00  0.00000E+00  9.000E+00
      25     1     1     2     0     0 -7.594522640E+01  3.547108983E+01 -3.790599521E+02  4.078447289E+02  1.250000000E+02  0.00000E+00  9.000E+00
      25     1     1     2     0     0  1.311362293E+02 -1.778874540E+01 -1.601771666E+02  2.424765449E+02  1.250000000E+02  0.00000E+00  9.000E+00
      21     1     1     2   512   501 -5.519100292E+01 -1.768234443E+01 -1.147916994E+02  1.285917819E+02  1.348699152E-06  0.00000E+00  9.000E+00
#rwgt            1           1   4.0298149171458547E-002           1      414569           0
</event>
<event>
      5   9999  3.79277E-02  5.40392E+01 -1.00000E+00  1.37177E-01
      21    -1     0     0   502   501  0.000000000E+00  0.000000000E+00  1.091769735E+02  1.091769735E+02  0.000000000E+00  0.00000E+00  9.000E+00
       2    -1     0     0   501     0  0.000000000E+00  0.000000000E+00 -2.831426233E+03  2.831426233E+03  0.000000000E+00  0.00000E+00  9.000E+00
      25     1     1     2     0     0  1.842697166E+02  2.947600150E+01 -1.765595750E+02  2.856964239E+02  1.250000000E+02  0.00000E+00  9.000E+00
      25     1     1     2     0     0 -1.430413259E+02 -6.441099252E+01 -1.309145584E+02  2.395270725E+02  1.250000000E+02  0.00000E+00  9.000E+00
       2     1     1     2   502     0 -4.122839069E+01  3.493499102E+01 -2.414775126E+03  2.415379710E+03  0.000000000E+00  0.00000E+00  9.000E+00
#rwgt            1           1   4.4352735724395645E-002           1      414717           0
</event>
<event>
      5   9999  3.79277E-02  1.01220E+02 -1.00000E+00  1.23592E-01
      -1    -1     0     0     0   501  0.000000000E+00  0.000000000E+00  4.042614698E+02  4.042614698E+02  0.000000000E+00  0.00000E+00  9.000E+00
      21    -1     0     0   501   502  0.000000000E+00  0.000000000E+00 -1.419962357E+02  1.419962357E+02  0.000000000E+00  0.00000E+00  9.000E+00
      25     1     1     2     0     0 -8.709303165E+01 -9.010171476E+01  9.897237933E+01  2.027906483E+02  1.250000000E+02  0.00000E+00  9.000E+00
      25     1     1     2     0     0  9.519394205E+00  1.551228212E+02  1.242265974E+02  2.349701173E+02  1.250000000E+02  0.00000E+00  9.000E+00
      -1     1     1     2     0   502  7.757363745E+01 -6.502110642E+01  3.906625728E+01  1.084969399E+02  1.507891493E-06  0.00000E+00  9.000E+00
#rwgt            1           1   4.0178572800484987E-002           1      414783           0
</event>
<event>
      5   9999 -3.79277E-02  6.17576E+01 -1.00000E+00  1.34037E-01
       2    -1     0     0   502     0  0.000000000E+00  0.000000000E+00  2.091717212E+03  2.091717212E+03  0.000000000E+00  0.00000E+00  9.000E+00
      21    -1     0     0   501   502  0.000000000E+00  0.000000000E+00 -1.191122759E+02  1.191122759E+02  0.000000000E+00  0.00000E+00  9.000E+00
      25     1     1     2     0     0  1.996844004E+01  1.256695086E+02  3.680398808E+01  1.821293428E+02  1.250000000E+02  0.00000E+00  9.000E+00
      25     1     1     2     0     0  4.118167472E+01 -1.343105165E+02  1.466064785E+02  2.384401491E+02  1.250000000E+02  0.00000E+00  9.000E+00
       2     1     1     2   501     0 -6.115011475E+01  8.641007923E+00  1.789194469E+03  1.790259996E+03  0.000000000E+00  0.00000E+00  9.000E+00
#rwgt            1           1  -8.0057503614035866E-002           1      414870           0
</event>
<event>
      5   9999  3.79277E-02  6.50932E+01 -1.00000E+00  1.32839E-01
      21    -1     0     0   502   511  0.000000000E+00  0.000000000E+00  7.999819268E+02  7.999819268E+02  0.000000000E+00  0.00000E+00  9.000E+00
      21    -1     0     0   501   502  0.000000000E+00  0.000000000E+00 -5.305964896E+02  5.305964896E+02  0.000000000E+00  0.00000E+00  9.000E+00
      25     1     1     2     0     0  2.456236198E+02  7.823736544E+01 -7.610551880E+01  2.964272220E+02  1.250000000E+02  0.00000E+00  9.000E+00
      25     1     1     2     0     0 -2.254588149E+02 -1.634625342E+01 -2.939996708E+02  3.913562107E+02  1.250000000E+02  0.00000E+00  9.000E+00
      21     1     1     2   501   511 -2.016480499E+01 -6.189111202E+01  6.394906269E+02  6.427949836E+02  7.629394531E-06  0.00000E+00  9.000E+00
#rwgt            1           1  0.40774194675977538                1      415000           0
</event>
<event>
      5   9999  3.79277E-02  4.86966E+01 -1.00000E+00  1.39733E-01
      21    -1     0     0   502   501  0.000000000E+00  0.000000000E+00  5.636578574E+01  5.636578574E+01  0.000000000E+00  0.00000E+00  9.000E+00
       2    -1     0     0   501     0  0.000000000E+00  0.000000000E+00 -8.121572398E+02  8.121572398E+02  0.000000000E+00  0.00000E+00  9.000E+00
      25     1     1     2     0     0 -8.011241264E+01 -7.310471807E+01 -2.026738320E+02  2.616562261E+02  1.250000000E+02  0.00000E+00  9.000E+00
      25     1     1     2     0     0  9.644805374E+01  1.189796415E+02 -3.999210298E+02  4.461168146E+02  1.250000000E+02  0.00000E+00  9.000E+00
       2     1     1     2   502     0 -1.633564110E+01 -4.587492343E+01 -1.531965922E+02  1.607499849E+02  1.907348633E-06  0.00000E+00  9.000E+00
#rwgt            1           1   4.1886062116416281E-002           1      415096           0
</event>
<event>
      5   9999  3.79277E-02  5.10128E+01 -1.00000E+00  1.38580E-01
       2    -1     0     0   502     0  0.000000000E+00  0.000000000E+00  2.069956176E+03  2.069956176E+03  0.000000000E+00  0.00000E+00  9.000E+00
      21    -1     0     0   501   502  0.000000000E+00  0.000000000E+00 -5.466314982E+01  5.466314982E+01  0.000000000E+00  0.00000E+00  9.000E+00
      25     1     1     2     0     0  1.918322359E+02  2.049192617E+01  3.825718021E+02  4.463246683E+02  1.250000000E+02  0.00000E+00  9.000E+00
      25     1     1     2     0     0 -1.567989194E+02 -5.757257778E+01  4.672892307E+02  5.117467420E+02  1.250000000E+02  0.00000E+00  9.000E+00
       2     1     1     2   501     0 -3.503331651E+01  3.708065161E+01  1.165431994E+03  1.166547916E+03  2.642899792E-05  0.00000E+00  9.000E+00
#rwgt            1           1   3.3214427199373814E-002           1      415215           0
</event>
<event>
      5   9999  3.79277E-02  1.56204E+02 -1.00000E+00  1.15700E-01
      21    -1     0     0   502   501  0.000000000E+00  0.000000000E+00  1.607408877E+02  1.607408877E+02  0.000000000E+00  0.00000E+00  9.000E+00
      21    -1     0     0   501   511  0.000000000E+00  0.000000000E+00 -1.144218582E+03  1.144218582E+03  0.000000000E+00  0.00000E+00  9.000E+00
      25     1     1     2     0     0 -2.307747616E+02 -2.151722212E+01 -1.878305723E+01  2.640033801E+02  1.250000000E+02  0.00000E+00  9.000E+00
      25     1     1     2     0     0  7.701343072E+01  4.903173506E+01 -1.653683535E+02  2.265102026E+02  1.250000000E+02  0.00000E+00  9.000E+00
      21     1     1     2   502   511  1.537613309E+02 -2.751451294E+01 -7.993262836E+02  8.144458871E+02  1.525878906E-05  0.00000E+00  9.000E+00
#rwgt            1           1   3.7594644516729551E-002           1      415327           0
</event>
<event>
      5   9999  3.79277E-02  1.79559E+02 -1.00000E+00  1.13380E-01
      21    -1     0     0   502   501  0.000000000E+00  0.000000000E+00  2.372307755E+02  2.372307755E+02  0.000000000E+00  0.00000E+00  9.000E+00
       2    -1     0     0   501     0  0.000000000E+00  0.000000000E+00 -1.287754848E+03  1.287754848E+03  0.000000000E+00  0.00000E+00  9.000E+00
      25     1     1     2     0     0 -2.680090440E+02  3.164545228E+02 -6.678314888E+02  7.959875691E+02  1.250000000E+02  0.00000E+00  9.000E+00
      25     1     1     2     0     0  1.287882613E+02 -2.030573660E+02  3.603952843E+01  2.733908516E+02  1.250000000E+02  0.00000E+00  9.000E+00
       2     1     1     2   502     0  1.392207828E+02 -1.133971568E+02 -4.187321125E+02  4.556072031E+02  5.394796609E-06  0.00000E+00  9.000E+00
#rwgt            1           1   6.5646112725138664E-002           1      415386           0
</event>
<event>
      5   9999  3.79277E-02  2.89500E+01 -1.00000E+00  1.54122E-01
      21    -1     0     0   511   501  0.000000000E+00  0.000000000E+00  6.631238344E+02  6.631238344E+02  0.000000000E+00  0.00000E+00  9.000E+00
      21    -1     0     0   501   502  0.000000000E+00  0.000000000E+00 -1.313616780E+02  1.313616780E+02  0.000000000E+00  0.00000E+00  9.000E+00
      25     1     1     2     0     0  2.992474575E+01  1.857672846E+02  3.528143194E+01  2.286367291E+02  1.250000000E+02  0.00000E+00  9.000E+00
      25     1     1     2     0     0 -5.693878363E+01 -1.753585417E+02  3.383546402E+02  4.050944406E+02  1.250000000E+02  0.00000E+00  9.000E+00
      21     1     1     2   511   502  2.701403788E+01 -1.040874286E+01  1.581260843E+02  1.607543427E+02  2.697398305E-06  0.00000E+00  9.000E+00
#rwgt            1           1  0.17269272381783327                1      415506           0
</event>
<event>
      5   9999  3.79277E-02  6.91404E+01 -1.00000E+00  1.31493E-01
      21    -1     0     0   512   501  0.000000000E+00  0.000000000E+00  1.363048953E+02  1.363048953E+02  0.000000000E+00  0.00000E+00  9.000E+00
      21    -1     0     0   501   502  0.000000000E+00  0.000000000E+00 -3.657415488E+02  3.657415488E+02  0.000000000E+00  0.00000E+00  9.000E+00
      25     1     1     2     0     0  5.678261601E+01 -2.492776640E+01 -2.098197685E+02  2.519821309E+02  1.250000000E+02  0.00000E+00  9.000E+00
      25     1     1     2     0     0 -1.242403952E+02  9.767129365E+00  5.247769860E+00  1.765888210E+02  1.250000000E+02  0.00000E+00  9.000E+00
      21     1     1     2   512   502  6.745777921E+01  1.516063704E+01 -2.486465490E+01  7.347549221E+01  1.390207266E-06  0.00000E+00  9.000E+00
#rwgt            1           1   5.3499859650457275E-002           1      415750           0
</event>
<event>
      5   9999  3.79277E-02  1.57779E+02 -1.00000E+00  1.15530E-01
      21    -1     0     0   502   501  0.000000000E+00  0.000000000E+00  1.655397447E+02  1.655397447E+02  0.000000000E+00  0.00000E+00  9.000E+00
      21    -1     0     0   501   511  0.000000000E+00  0.000000000E+00 -1.164419009E+03  1.164419009E+03  0.000000000E+00  0.00000E+00  9.000E+00
      25     1     1     2     0     0  7.577582861E+01  2.512523832E+02 -2.077832577E+02  3.573074564E+02  1.250000000E+02  0.00000E+00  9.000E+00
      25     1     1     2     0     0  5.158571834E+01 -3.443824551E+02 -3.712167429E+02  5.241061266E+02  1.250000000E+02  0.00000E+00  9.000E+00
      21     1     1     2   502   511 -1.273615469E+02  9.313007198E+01 -4.198792636E+02  4.485451704E+02  0.000000000E+00  0.00000E+00  9.000E+00
#rwgt            1           1   4.1315433589097277E-002           1      415844           0
</event>
<event>
      5   9999 -3.79277E-02  9.93646E+00 -1.00000E+00  1.96078E-01
      21    -1     0     0   502   501  0.000000000E+00  0.000000000E+00  2.404949605E+03  2.404949605E+03  0.000000000E+00  0.00000E+00  9.000E+00
      21    -1     0     0   512   502  0.000000000E+00  0.000000000E+00 -2.596428005E+01  2.596428005E+01  0.000000000E+00  0.00000E+00  9.000E+00
      25     1     1     2     0     0  1.828708842E+02  1.034789254E+02  1.175140863E+03  1.200304418E+03  1.250000000E+02  0.00000E+00  9.000E+00
      25     1     1     2     0     0 -1.875885756E+02 -9.473383625E+01  1.172604961E+03  1.197827770E+03  1.250000000E+02  0.00000E+00  9.000E+00
      21     1     1     2   512   501  4.717691413E+00 -8.745089114E+00  3.123950153E+01  3.278169690E+01  5.840038640E-07  0.00000E+00  9.000E+00
#rwgt            1           1  -8.7361385950806655E-002           1      415923           0
</event>
<event>
      5   9999  3.79277E-02  1.10515E+01 -1.00000E+00  1.90868E-01
      21    -1     0     0   502   501  0.000000000E+00  0.000000000E+00  3.533774142E+02  3.533774142E+02  0.000000000E+00  0.00000E+00  9.000E+00
      21    -1     0     0   511   502  0.000000000E+00  0.000000000E+00 -3.041624720E+02  3.041624720E+02  0.000000000E+00  0.00000E+00  9.000E+00
      25     1     1     2     0     0  3.021118107E+01  1.415500931E+02  1.604602346E+02  2.496430075E+02  1.250000000E+02  0.00000E+00  9.000E+00
      25     1     1     2     0     0 -3.772415361E+01 -1.334451233E+02  8.936483298E+01  2.069825743E+02  1.250000000E+02  0.00000E+00  9.000E+00
      21     1     1     2   511   501  7.512972535E+00 -8.104969782E+00 -2.006101253E+02  2.009143043E+02  2.697398305E-06  0.00000E+00  9.000E+00
#rwgt            1           1   4.0304632397745649E-002           1      416198           0
</event>
<event>
      5   9999  3.79277E-02  7.95880E+01 -1.00000E+00  1.28458E-01
      21    -1     0     0   502   501  0.000000000E+00  0.000000000E+00  1.356618052E+03  1.356618052E+03  0.000000000E+00  0.00000E+00  9.000E+00
      21    -1     0     0   512   502  0.000000000E+00  0.000000000E+00 -6.384431626E+01  6.384431626E+01  0.000000000E+00  0.00000E+00  9.000E+00
      25     1     1     2     0     0 -7.220413353E+01  2.462181225E+02  6.785464387E+02  7.361297917E+02  1.250000000E+02  0.00000E+00  9.000E+00
      25     1     1     2     0     0  4.152507982E+01 -1.727807941E+02  4.994795158E+02  5.446855256E+02  1.250000000E+02  0.00000E+00  9.000E+00
      21     1     1     2   512   501  3.067905371E+01 -7.343732839E+01  1.147477811E+02  1.396470508E+02  0.000000000E+00  0.00000E+00  9.000E+00
#rwgt            1           1   8.5713058465436018E-002           1      416412           0
</event>
<event>
      5   9999  3.79277E-02  7.12605E+00 -1.00000E+00  2.14464E-01
      21    -1     0     0   511   501  0.000000000E+00  0.000000000E+00  1.105258070E+02  1.105258070E+02  0.000000000E+00  0.00000E+00  9.000E+00
      21    -1     0     0   501   502  0.000000000E+00  0.000000000E+00 -6.755850435E+02  6.755850435E+02  0.000000000E+00  0.00000E+00  9.000E+00
      25     1     1     2     0     0  5.329056817E+01  1.371698322E+02 -5.093547206E+02  5.447225706E+02  1.250000000E+02  0.00000E+00  9.000E+00
      25     1     1     2     0     0 -4.749622368E+01 -1.330217967E+02 -8.813012064E+01  2.081888754E+02  1.250000000E+02  0.00000E+00  9.000E+00
      21     1     1     2   511   502 -5.794344491E+00 -4.148035510E+00  3.242560465E+01  3.319940457E+01  8.259061849E-07  0.00000E+00  9.000E+00
#rwgt            1           1   4.4453966388942480E-002           1      416495           0
</event>
<event>
      5   9999  3.79277E-02  3.71033E+01 -1.00000E+00  1.46894E-01
      21    -1     0     0   502   501  0.000000000E+00  0.000000000E+00  1.504999610E+02  1.504999610E+02  0.000000000E+00  0.00000E+00  9.000E+00
      21    -1     0     0   512   502  0.000000000E+00  0.000000000E+00 -3.175401351E+02  3.175401351E+02  0.000000000E+00  0.00000E+00  9.000E+00
      25     1     1     2     0     0 -1.314033283E+02  1.952572447E+01 -1.248812891E+02  2.210620388E+02  1.250000000E+02  0.00000E+00  9.000E+00
      25     1     1     2     0     0  1.536747033E+02 -4.920131853E+01 -2.353905431E+01  2.054647689E+02  1.250000000E+02  0.00000E+00  9.000E+00
      21     1     1     2   512   501 -2.227137494E+01  2.967559406E+01 -1.861983065E+01  4.151328845E+01  1.192092896E-06  0.00000E+00  9.000E+00
#rwgt            1           1   4.1423308995263204E-002           1      416887           0
</event>
<event>
      5   9999 -3.79277E-02  1.83972E+01 -1.00000E+00  1.69419E-01
      21    -1     0     0   502   501  0.000000000E+00  0.000000000E+00  9.382496996E+01  9.382496996E+01  0.000000000E+00  0.00000E+00  9.000E+00
      21    -1     0     0   501   511  0.000000000E+00  0.000000000E+00 -3.436411530E+02  3.436411530E+02  0.000000000E+00  0.00000E+00  9.000E+00
      25     1     1     2     0     0 -8.674357896E+01  3.137451000E+01 -4.715159787E+01  1.623486420E+02  1.250000000E+02  0.00000E+00  9.000E+00
      25     1     1     2     0     0  6.940428141E+01 -3.752322044E+01 -1.198951769E+02  1.903281371E+02  1.250000000E+02  0.00000E+00  9.000E+00
      21     1     1     2   502   511  1.733929755E+01  6.148710445E+00 -8.276940825E+01  8.478934380E+01  1.348699152E-06  0.00000E+00  9.000E+00
#rwgt            1           1  -4.4117891770351358E-002           1      417086           0
</event>
<event>
      5   9999 -3.79277E-02  2.97931E+01 -1.00000E+00  1.53249E-01
      21    -1     0     0   512   501  0.000000000E+00  0.000000000E+00  5.348923093E+02  5.348923093E+02  0.000000000E+00  0.00000E+00  9.000E+00
      21    -1     0     0   501   502  0.000000000E+00  0.000000000E+00 -4.105611233E+02  4.105611233E+02  0.000000000E+00  0.00000E+00  9.000E+00
      25     1     1     2     0     0 -3.451914666E+02 -2.733500245E+02 -2.384962027E+01  4.583352364E+02  1.250000000E+02  0.00000E+00  9.000E+00
      25     1     1     2     0     0  3.187894488E+02  2.595456123E+02  1.200073606E+02  4.461136673E+02  1.250000000E+02  0.00000E+00  9.000E+00
      21     1     1     2   512   502  2.640201781E+01  1.380441219E+01  2.817344577E+01  4.100452886E+01  7.539457465E-07  0.00000E+00  9.000E+00
#rwgt            1           1 -0.20285710363269446                1      417270           0
</event>
<event>
      5   9999  3.79277E-02  1.57174E+02 -1.00000E+00  1.15595E-01
      21    -1     0     0   502   501  0.000000000E+00  0.000000000E+00  1.862385381E+02  1.862385381E+02  0.000000000E+00  0.00000E+00  9.000E+00
      21    -1     0     0   501   511  0.000000000E+00  0.000000000E+00 -9.610786428E+02  9.610786428E+02  0.000000000E+00  0.00000E+00  9.000E+00
      25     1     1     2     0     0 -9.051220609E+01 -1.263863941E+02  2.891220857E+01  2.015611467E+02  1.250000000E+02  0.00000E+00  9.000E+00
      25     1     1     2     0     0  2.315050976E+02  1.958466434E+02 -4.340942489E+02  5.440710752E+02  1.250000000E+02  0.00000E+00  9.000E+00
      21     1     1     2   502   511 -1.409928915E+02 -6.946024928E+01 -3.696580644E+02  4.016849589E+02  5.394796609E-06  0.00000E+00  9.000E+00
#rwgt            1           1   2.4213819788310255E-002           1      417613           0
</event>
<event>
      5   9999  3.79277E-02  1.14876E+02 -1.00000E+00  1.21178E-01
      21    -1     0     0   502   501  0.000000000E+00  0.000000000E+00  7.148354346E+02  7.148354346E+02  0.000000000E+00  0.00000E+00  9.000E+00
      21    -1     0     0   512   502  0.000000000E+00  0.000000000E+00 -7.676301466E+01  7.676301466E+01  0.000000000E+00  0.00000E+00  9.000E+00
      25     1     1     2     0     0  2.672295417E+01  8.956022769E+01  4.339532125E+02  4.611675848E+02  1.250000000E+02  0.00000E+00  9.000E+00
      25     1     1     2     0     0 -6.708513039E+01  1.799164247E+01  9.283867855E+01  1.704937951E+02  1.250000000E+02  0.00000E+00  9.000E+00
      21     1     1     2   512   501  4.036217621E+01 -1.075518702E+02  1.112805288E+02  1.599370693E+02  2.336015456E-06  0.00000E+00  9.000E+00
#rwgt            1           1   4.3774548686156198E-002           1      417715           0
</event>
<event>
      5   9999  3.79277E-02  1.95249E+02 -1.00000E+00  1.12029E-01
       2    -1     0     0   502     0  0.000000000E+00  0.000000000E+00  2.358066267E+03  2.358066267E+03  0.000000000E+00  0.00000E+00  9.000E+00
      21    -1     0     0   501   502  0.000000000E+00  0.000000000E+00 -2.287470526E+02  2.287470526E+02  0.000000000E+00  0.00000E+00  9.000E+00
      25     1     1     2     0     0 -9.379305208E+01  9.847888487E+01  1.534161548E+02  2.401181875E+02  1.250000000E+02  0.00000E+00  9.000E+00
      25     1     1     2     0     0  2.648294669E+02 -4.304680884E+00 -6.207525521E+01  2.993852270E+02  1.250000000E+02  0.00000E+00  9.000E+00
       2     1     1     2   501     0 -1.710364148E+02 -9.417420399E+01  2.037978315E+03  2.047309905E+03  2.157918644E-05  0.00000E+00  9.000E+00
#rwgt            2          18   2.0104324610959868E-003           1      417968           0
</event>
<event>
      5   9999  3.79277E-02  5.76541E+01 -1.00000E+00  1.35636E-01
      21    -1     0     0   502   501  0.000000000E+00  0.000000000E+00  5.189855583E+02  5.189855583E+02  0.000000000E+00  0.00000E+00  9.000E+00
       1    -1     0     0   501     0  0.000000000E+00  0.000000000E+00 -3.691272101E+02  3.691272101E+02  0.000000000E+00  0.00000E+00  9.000E+00
      25     1     1     2     0     0 -2.700340357E+01  7.690183831E+01  1.515578048E+01  1.499925806E+02  1.250000000E+02  0.00000E+00  9.000E+00
      25     1     1     2     0     0  5.245412902E+01 -2.516926796E+01  4.225915218E+02  4.445149289E+02  1.250000000E+02  0.00000E+00  9.000E+00
       1     1     1     2   502     0 -2.545072545E+01 -5.173257035E+01 -2.878889540E+02  2.936052590E+02  5.394796609E-06  0.00000E+00  9.000E+00
#rwgt            1           1   3.7882389509185661E-002           1      418032           0
</event>
<event>
      5   9999  3.79277E-02  2.22744E+01 -1.00000E+00  1.62600E-01
      21    -1     0     0   502   501  0.000000000E+00  0.000000000E+00  1.757254791E+02  1.757254791E+02  0.000000000E+00  0.00000E+00  9.000E+00
      21    -1     0     0   511   502  0.000000000E+00  0.000000000E+00 -3.813093004E+02  3.813093004E+02  0.000000000E+00  0.00000E+00  9.000E+00
      25     1     1     2     0     0 -1.088555305E+02  1.106760128E+01  5.762234019E+01  1.758333086E+02  1.250000000E+02  0.00000E+00  9.000E+00
      25     1     1     2     0     0  8.659367891E+01 -1.031901359E+01 -4.093247829E+01  1.578144957E+02  1.250000000E+02  0.00000E+00  9.000E+00
      21     1     1     2   511   501  2.226185163E+01 -7.485876919E-01 -2.222736832E+02  2.233869751E+02  3.814697266E-06  0.00000E+00  9.000E+00
#rwgt            1           1   4.8637226408197690E-002           1      418135           0
</event>
<event>
      5   9999  3.79277E-02  1.16290E+02 -1.00000E+00  1.20950E-01
      21    -1     0     0   502   501  0.000000000E+00  0.000000000E+00  5.145860312E+02  5.145860312E+02  0.000000000E+00  0.00000E+00  9.000E+00
       2    -1     0     0   501     0  0.000000000E+00  0.000000000E+00 -3.562012187E+02  3.562012187E+02  0.000000000E+00  0.00000E+00  9.000E+00
      25     1     1     2     0     0  8.509507465E+00  1.414047284E+01  8.603856913E+01  1.526433754E+02  1.250000000E+02  0.00000E+00  9.000E+00
      25     1     1     2     0     0 -7.271140583E+01 -1.111014346E+02  3.623729300E+02  4.056718104E+02  1.250000000E+02  0.00000E+00  9.000E+00
       2     1     1     2   502     0  6.420189836E+01  9.696096179E+01 -2.900266866E+02  3.124720640E+02  3.814697266E-06  0.00000E+00  9.000E+00
#rwgt            1           1   5.6454042379677303E-003           1      418330           0
</event>
<event>
      5   9999  3.79277E-02  7.23863E+00 -1.00000E+00  2.13516E-01
      21    -1     0     0   502   501  0.000000000E+00  0.000000000E+00  1.576434508E+02  1.576434508E+02  0.000000000E+00  0.00000E+00  9.000E+00
      21    -1     0     0   501   511  0.000000000E+00  0.000000000E+00 -3.221382882E+02  3.221382882E+02  0.000000000E+00  0.00000E+00  9.000E+00
      25     1     1     2     0     0 -1.563018695E+02  6.529455675E+01 -1.244934816E+02  2.445757153E+02  1.250000000E+02  0.00000E+00  9.000E+00
      25     1     1     2     0     0  1.521462605E+02 -5.936761563E+01 -1.170403570E+01  2.059975311E+02  1.250000000E+02  0.00000E+00  9.000E+00
      21     1     1     2   502   511  4.155608963E+00 -5.926941116E+00 -2.829732009E+01  2.920849262E+01  3.371747881E-07  0.00000E+00  9.000E+00
#rwgt            1           1   3.3666684701391905E-002           1      418503           0
</event>
<event>
      5   9999  3.79277E-02  3.06380E+01 -1.00000E+00  1.52408E-01
      21    -1     0     0   502   501  0.000000000E+00  0.000000000E+00  7.510935211E+02  7.510935211E+02  0.000000000E+00  0.00000E+00  9.000E+00
      21    -1     0     0   501   512  0.000000000E+00  0.000000000E+00 -1.177335976E+02  1.177335976E+02  0.000000000E+00  0.00000E+00  9.000E+00
      25     1     1     2     0     0 -1.591402224E+02  9.506802085E+01  5.014331969E+02  5.490207554E+02  1.250000000E+02  0.00000E+00  9.000E+00
      25     1     1     2     0     0  1.678938293E+02 -1.244288796E+02  1.482555055E+02  2.850887211E+02  1.250000000E+02  0.00000E+00  9.000E+00
      21     1     1     2   502   512 -8.753606832E+00  2.936085871E+01 -1.632877893E+01  3.471764217E+01  8.259061849E-07  0.00000E+00  9.000E+00
#rwgt            1           1   2.9582765687517786E-002           1      418764           0
</event>
<event>
      5   9999  3.79277E-02  3.55789E+01 -1.00000E+00  1.48067E-01
      21    -1     0     0   502   511  0.000000000E+00  0.000000000E+00  7.808963286E+01  7.808963286E+01  0.000000000E+00  0.00000E+00  9.000E+00
      21    -1     0     0   501   502  0.000000000E+00  0.000000000E+00 -8.820000694E+02  8.820000694E+02  0.000000000E+00  0.00000E+00  9.000E+00
      25     1     1     2     0     0  3.399879500E+00  1.273215709E+02 -6.403426435E+02  6.647450961E+02  1.250000000E+02  0.00000E+00  9.000E+00
      25     1     1     2     0     0  3.211551263E+01 -1.251968089E+02 -1.815142458E+02  2.554957310E+02  1.250000000E+02  0.00000E+00  9.000E+00
      21     1     1     2   501   511 -3.551539213E+01 -2.124762049E+00  1.794645279E+01  3.984887526E+01  1.348699152E-06  0.00000E+00  9.000E+00
#rwgt            1           1   3.0375151545493459E-002           1      418949           0
</event>
<event>
      5   9999  3.79277E-02  8.46214E+00 -1.00000E+00  2.04532E-01
      21    -1     0     0   502   501  0.000000000E+00  0.000000000E+00  6.522292439E+01  6.522292439E+01  0.000000000E+00  0.00000E+00  9.000E+00
      21    -1     0     0   501   512  0.000000000E+00  0.000000000E+00 -6.595713289E+02  6.595713289E+02  0.000000000E+00  0.00000E+00  9.000E+00
      25     1     1     2     0     0  6.509325515E+01 -5.808202661E+01 -5.066519177E+02  5.290858337E+02  1.250000000E+02  0.00000E+00  9.000E+00
      25     1     1     2     0     0 -7.335527871E+01  5.991143983E+01 -6.197481542E+01  1.686305289E+02  1.250000000E+02  0.00000E+00  9.000E+00
      21     1     1     2   502   512  8.262023553E+00 -1.829413214E+00 -2.572167137E+01  2.707789068E+01  3.371747881E-07  0.00000E+00  9.000E+00
#rwgt            1           1   4.1828169977123547E-002           1      419119           0
</event>
<event>
      5   9999  3.79277E-02  4.70134E+01 -1.00000E+00  1.40619E-01
      21    -1     0     0   502   501  0.000000000E+00  0.000000000E+00  5.884077218E+02  5.884077218E+02  0.000000000E+00  0.00000E+00  9.000E+00
      21    -1     0     0   511   502  0.000000000E+00  0.000000000E+00 -1.104928118E+02  1.104928118E+02  0.000000000E+00  0.00000E+00  9.000E+00
      25     1     1     2     0     0  5.582440682E+01  8.102188260E+01  4.560679552E+01  1.654868262E+02  1.250000000E+02  0.00000E+00  9.000E+00
      25     1     1     2     0     0 -3.518400961E+01 -3.878170096E+01  4.595232028E+02  4.790913365E+02  1.250000000E+02  0.00000E+00  9.000E+00
      21     1     1     2   511   501 -2.064039722E+01 -4.224018164E+01 -2.721508826E+01  5.432237082E+01  0.000000000E+00  0.00000E+00  9.000E+00
#rwgt            1           1   4.5782410690916597E-002           1      419359           0
</event>
<event>
      5   9999  3.79277E-02  1.44203E+01 -1.00000E+00  1.79012E-01
      21    -1     0     0   502   512  0.000000000E+00  0.000000000E+00  6.491149796E+01  6.491149796E+01  0.000000000E+00  0.00000E+00  9.000E+00
      21    -1     0     0   501   502  0.000000000E+00  0.000000000E+00 -5.950404223E+02  5.950404223E+02  0.000000000E+00  0.00000E+00  9.000E+00
      25     1     1     2     0     0 -5.452961624E+01 -1.133085058E+02 -3.927519688E+02  4.309192564E+02  1.250000000E+02  0.00000E+00  9.000E+00
      25     1     1     2     0     0  4.904400933E+01  9.997236825E+01 -1.334477870E+02  2.140866673E+02  1.250000000E+02  0.00000E+00  9.000E+00
      21     1     1     2   501   512  5.485606912E+00  1.333613752E+01 -3.929168517E+00  1.494599653E+01  1.976862425E-07  0.00000E+00  9.000E+00
#rwgt            1           1   4.0531361640301564E-002           1      419512           0
</event>
<event>
      5   9999  3.79277E-02  6.39502E+01 -1.00000E+00  1.33240E-01
      21    -1     0     0   502   511  0.000000000E+00  0.000000000E+00  5.005234058E+02  5.005234058E+02  0.000000000E+00  0.00000E+00  9.000E+00
      21    -1     0     0   501   502  0.000000000E+00  0.000000000E+00 -1.865420468E+02  1.865420468E+02  0.000000000E+00  0.00000E+00  9.000E+00
      25     1     1     2     0     0  1.325200358E+02 -1.829730889E+02  1.644186033E+02  3.061032314E+02  1.250000000E+02  0.00000E+00  9.000E+00
      25     1     1     2     0     0 -1.940692671E+02  1.656145937E+02  1.044346878E+02  3.026923820E+02  1.250000000E+02  0.00000E+00  9.000E+00
      21     1     1     2   501   511  6.154923133E+01  1.735849520E+01  4.512806793E+01  7.826983932E+01  1.651812370E-06  0.00000E+00  9.000E+00
#rwgt            1           1   3.2809958472385450E-002           1      419948           0
</event>
<event>
      5   9999  3.79277E-02  7.90760E+01 -1.00000E+00  1.28594E-01
      21    -1     0     0   502   501  0.000000000E+00  0.000000000E+00  1.030952395E+02  1.030952395E+02  0.000000000E+00  0.00000E+00  9.000E+00
       2    -1     0     0   501     0  0.000000000E+00  0.000000000E+00 -3.538357261E+03  3.538357261E+03  0.000000000E+00  0.00000E+00  9.000E+00
      25     1     1     2     0     0 -2.442214083E+02 -8.391503185E+00 -4.621284965E+02  5.374962891E+02  1.250000000E+02  0.00000E+00  9.000E+00
      25     1     1     2     0     0  2.315146761E+02  8.643988129E+01 -2.308643264E+02  3.605471336E+02  1.250000000E+02  0.00000E+00  9.000E+00
       2     1     1     2   502     0  1.270673220E+01 -7.804837811E+01 -2.742269198E+03  2.743409077E+03  3.051757812E-05  0.00000E+00  9.000E+00
#rwgt            1           1  0.19384006593118255                1      420030           0
</event>
<event>
      5   9999  3.79277E-02  5.21479E+01 -1.00000E+00  1.38041E-01
      21    -1     0     0   502   501  0.000000000E+00  0.000000000E+00  1.337998502E+02  1.337998502E+02  0.000000000E+00  0.00000E+00  9.000E+00
      21    -1     0     0   511   502  0.000000000E+00  0.000000000E+00 -1.015302755E+03  1.015302755E+03  0.000000000E+00  0.00000E+00  9.000E+00
      25     1     1     2     0     0 -9.807703816E+01 -2.739374600E+02 -3.118182492E+02  4.444282371E+02  1.250000000E+02  0.00000E+00  9.000E+00
      25     1     1     2     0     0  5.700580411E+01  3.060709596E+02 -3.751927034E+02  5.033126848E+02  1.250000000E+02  0.00000E+00  9.000E+00
      21     1     1     2   511   501  4.107123405E+01 -3.213349958E+01 -1.944919518E+02  2.013616830E+02  2.697398305E-06  0.00000E+00  9.000E+00
#rwgt            1           1   4.2136826234682831E-002           1      420127           0
</event>
<event>
      5   9999  3.79277E-02  2.09205E+01 -1.00000E+00  1.64773E-01
      21    -1     0     0   502   501  0.000000000E+00  0.000000000E+00  9.010552932E+01  9.010552932E+01  0.000000000E+00  0.00000E+00  9.000E+00
      21    -1     0     0   501   512  0.000000000E+00  0.000000000E+00 -1.786471404E+03  1.786471404E+03  0.000000000E+00  0.00000E+00  9.000E+00
      25     1     1     2     0     0  1.207411730E+02  1.539569735E+02 -9.311858196E+01  2.501544540E+02  1.250000000E+02  0.00000E+00  9.000E+00
      25     1     1     2     0     0 -1.326627256E+02 -1.711483374E+02 -1.527974552E+03  1.548296607E+03  1.250000000E+02  0.00000E+00  9.000E+00
      21     1     1     2   502   512  1.192155265E+01  1.719136388E+01 -7.527274151E+01  7.812587295E+01  9.536743164E-07  0.00000E+00  9.000E+00
#rwgt            1           1   4.7240425479407648E-002           1      420213           0
</event>
<event>
      5   9999  3.79277E-02  2.29061E+01 -1.00000E+00  1.61650E-01
      21    -1     0     0   502   511  0.000000000E+00  0.000000000E+00  1.170535893E+03  1.170535893E+03  0.000000000E+00  0.00000E+00  9.000E+00
      21    -1     0     0   501   502  0.000000000E+00  0.000000000E+00 -5.073164649E+01  5.073164649E+01  0.000000000E+00  0.00000E+00  9.000E+00
      25     1     1     2     0     0  8.393608061E+01 -1.307425927E+02  8.178519546E+02  8.418109710E+02  1.250000000E+02  0.00000E+00  9.000E+00
      25     1     1     2     0     0 -1.012176204E+02  1.157081095E+02  2.281272703E+02  3.021596014E+02  1.250000000E+02  0.00000E+00  9.000E+00
      21     1     1     2   501   511  1.728153980E+01  1.503448318E+01  7.382502115E+01  7.729696663E+01  0.000000000E+00  0.00000E+00  9.000E+00
#rwgt            1           1   3.8138136706411932E-002           1      420456           0
</event>
<event>
      5   9999  3.79277E-02  3.33427E+01 -1.00000E+00  1.49920E-01
      21    -1     0     0   502   512  0.000000000E+00  0.000000000E+00  3.181483357E+02  3.181483357E+02  0.000000000E+00  0.00000E+00  9.000E+00
      21    -1     0     0   501   502  0.000000000E+00  0.000000000E+00 -2.242460566E+02  2.242460566E+02  0.000000000E+00  0.00000E+00  9.000E+00
      25     1     1     2     0     0 -9.937144441E+01  1.270655272E+02 -1.227068584E+02  2.381224585E+02  1.250000000E+02  0.00000E+00  9.000E+00
      25     1     1     2     0     0  7.615083355E+01 -1.031377869E+02  1.939077109E+02  2.639347512E+02  1.250000000E+02  0.00000E+00  9.000E+00
      21     1     1     2   501   512  2.322061086E+01 -2.392774025E+01  2.270142659E+01  4.033718249E+01  3.371747881E-07  0.00000E+00  9.000E+00
#rwgt            1           1   3.9642124404502314E-002           1      420604           0
</event>
<event>
      5   9999  3.79277E-02  5.42751E+01 -1.00000E+00  1.37073E-01
      21    -1     0     0   502   511  0.000000000E+00  0.000000000E+00  1.266158523E+02  1.266158523E+02  0.000000000E+00  0.00000E+00  9.000E+00
      21    -1     0     0   501   502  0.000000000E+00  0.000000000E+00 -1.782600634E+03  1.782600634E+03  0.000000000E+00  0.00000E+00  9.000E+00
      25     1     1     2     0     0 -2.209376800E+01 -8.117151194E+01  5.146940692E+01  1.592201268E+02  1.250000000E+02  0.00000E+00  9.000E+00
      25     1     1     2     0     0  5.949883709E+01  1.204989862E+02 -1.678455199E+03  1.688459941E+03  1.250000000E+02  0.00000E+00  9.000E+00
      21     1     1     2   501   511 -3.740506910E+01 -3.932747424E+01 -2.899898982E+01  6.153641876E+01  8.920806376E-07  0.00000E+00  9.000E+00
#rwgt            1           1   4.2155339714106600E-002           1      420722           0
</event>
<event>
      5   9999  3.79277E-02  6.42341E+00 -1.00000E+00  2.20969E-01
      21    -1     0     0   502   501  0.000000000E+00  0.000000000E+00  6.132152687E+02  6.132152687E+02  0.000000000E+00  0.00000E+00  9.000E+00
      21    -1     0     0   512   502  0.000000000E+00  0.000000000E+00 -3.445050371E+02  3.445050371E+02  0.000000000E+00  0.00000E+00  9.000E+00
      25     1     1     2     0     0 -3.397897278E+02 -1.161029839E+02 -1.325552954E+02  4.026572591E+02  1.250000000E+02  0.00000E+00  9.000E+00
      25     1     1     2     0     0  3.337453073E+02  1.182767214E+02  3.997710988E+02  5.484680888E+02  1.250000000E+02  0.00000E+00  9.000E+00
      21     1     1     2   512   501  6.044420529E+00 -2.173737479E+00  1.494428248E+00  6.594957919E+00  4.712160915E-08  0.00000E+00  9.000E+00
#rwgt            1           1  0.11039272893859960                1      420946           0
</event>
<event>
      5   9999 -3.79277E-02  2.56835E+01 -1.00000E+00  1.57878E-01
      21    -1     0     0   502   511  0.000000000E+00  0.000000000E+00  3.702426829E+02  3.702426829E+02  0.000000000E+00  0.00000E+00  9.000E+00
      21    -1     0     0   501   502  0.000000000E+00  0.000000000E+00 -5.911479044E+02  5.911479044E+02  0.000000000E+00  0.00000E+00  9.000E+00
      25     1     1     2     0     0  2.431317142E+02  1.667280417E+02  1.107613127E+02  3.388278896E+02  1.250000000E+02  0.00000E+00  9.000E+00
      25     1     1     2     0     0 -2.192057758E+02 -1.573903658E+02 -4.289401714E+02  5.219555250E+02  1.250000000E+02  0.00000E+00  9.000E+00
      21     1     1     2   501   511 -2.392593841E+01 -9.337675876E+00  9.727363721E+01  1.006071728E+02  0.000000000E+00  0.00000E+00  9.000E+00
#rwgt            1           1  -4.4005279517605543E-002           1      421594           0
</event>
<event>
      5   9999  3.79277E-02  1.54892E+02 -1.00000E+00  1.15844E-01
      21    -1     0     0   502   501  0.000000000E+00  0.000000000E+00  3.071086026E+02  3.071086026E+02  0.000000000E+00  0.00000E+00  9.000E+00
      21    -1     0     0   501   512  0.000000000E+00  0.000000000E+00 -3.942136150E+02  3.942136150E+02  0.000000000E+00  0.00000E+00  9.000E+00
      25     1     1     2     0     0  6.750448195E+00 -1.363902777E+01  2.011894785E+02  2.373474202E+02  1.250000000E+02  0.00000E+00  9.000E+00
      25     1     1     2     0     0  1.000392847E+02 -9.855517616E+01 -2.332658961E+02  2.995979965E+02  1.250000000E+02  0.00000E+00  9.000E+00
      21     1     1     2   502   512 -1.067897329E+02  1.121942039E+02 -5.502859479E+01  1.643768010E+02  1.168007728E-06  0.00000E+00  9.000E+00
#rwgt            1           1   3.7300479640829352E-002           1      421847           0
</event>
<event>
      5   9999  3.79277E-02  1.57928E+02 -1.00000E+00  1.15514E-01
      21    -1     0     0   502   501  0.000000000E+00  0.000000000E+00  4.038489208E+02  4.038489208E+02  0.000000000E+00  0.00000E+00  9.000E+00
      21    -1     0     0   511   502  0.000000000E+00  0.000000000E+00 -8.440296690E+02  8.440296690E+02  0.000000000E+00  0.00000E+00  9.000E+00
      25     1     1     2     0     0 -6.666328296E+01 -1.769745341E+02 -1.072812404E+02  2.507952223E+02  1.250000000E+02  0.00000E+00  9.000E+00
      25     1     1     2     0     0  2.245709013E+02  1.744098651E+02  2.465083884E+02  3.965378624E+02  1.250000000E+02  0.00000E+00  9.000E+00
      21     1     1     2   511   501 -1.579076183E+02  2.564668946E+00 -5.794078963E+02  6.005455051E+02  0.000000000E+00  0.00000E+00  9.000E+00
#rwgt            1           1   3.1226108731761976E-002           1      422031           0
</event>
<event>
      5   9999  3.79277E-02  2.21624E+01 -1.00000E+00  1.62772E-01
      21    -1     0     0   502   512  0.000000000E+00  0.000000000E+00  4.538134153E+02  4.538134153E+02  0.000000000E+00  0.00000E+00  9.000E+00
      21    -1     0     0   501   502  0.000000000E+00  0.000000000E+00 -1.502434585E+02  1.502434585E+02  0.000000000E+00  0.00000E+00  9.000E+00
      25     1     1     2     0     0 -1.127691630E+02  9.134397872E+01 -4.545098674E+01  1.968537497E+02  1.250000000E+02  0.00000E+00  9.000E+00
      25     1     1     2     0     0  1.179439615E+02 -6.979423576E+01  2.909754469E+02  3.450706074E+02  1.250000000E+02  0.00000E+00  9.000E+00
      21     1     1     2   501   512 -5.174798486E+00 -2.154974296E+01  5.804549658E+01  6.213251672E+01  9.536743164E-07  0.00000E+00  9.000E+00
#rwgt            1           1  0.13534740136427686                1      422132           0
</event>
<event>
      5   9999  3.79277E-02  4.38163E+01 -1.00000E+00  1.42428E-01
       2    -1     0     0   502     0  0.000000000E+00  0.000000000E+00  1.110393434E+03  1.110393434E+03  0.000000000E+00  0.00000E+00  9.000E+00
      21    -1     0     0   501   502  0.000000000E+00  0.000000000E+00 -5.617387881E+02  5.617387881E+02  0.000000000E+00  0.00000E+00  9.000E+00
      25     1     1     2     0     0 -1.492379757E+02  1.704534379E+02 -2.643831220E+01  2.600967748E+02  1.250000000E+02  0.00000E+00  9.000E+00
      25     1     1     2     0     0  1.896896852E+02 -1.536150871E+02 -3.729825910E+02  4.629479289E+02  1.250000000E+02  0.00000E+00  9.000E+00
       2     1     1     2   501     0 -4.045170952E+01 -1.683835088E+01  9.480755487E+02  9.490875181E+02  1.078959322E-05  0.00000E+00  9.000E+00
#rwgt            1           1   3.8544896948908128E-002           1      422328           0
</event>
<event>
      5   9999  3.79277E-02  6.90279E+01 -1.00000E+00  1.31529E-01
      21    -1     0     0   502   511  0.000000000E+00  0.000000000E+00  2.089322686E+02  2.089322686E+02  0.000000000E+00  0.00000E+00  9.000E+00
      21    -1     0     0   501   502  0.000000000E+00  0.000000000E+00 -3.242580295E+02  3.242580295E+02  0.000000000E+00  0.00000E+00  9.000E+00
      25     1     1     2     0     0  6.328505525E+01 -8.748336689E+01 -1.450457119E+02  2.198217374E+02  1.250000000E+02  0.00000E+00  9.000E+00
      25     1     1     2     0     0 -3.678738105E+01  1.512228765E+02 -5.211652982E+01  2.063075434E+02  1.250000000E+02  0.00000E+00  9.000E+00
      21     1     1     2   501   511 -2.649767420E+01 -6.373950960E+01  8.183648084E+01  1.070610173E+02  1.651812370E-06  0.00000E+00  9.000E+00
#rwgt            1           1   2.9045231597920260E-002           1      422513           0
</event>
<event>
      5   9999  3.79277E-02  5.26002E+01 -1.00000E+00  1.37831E-01
      21    -1     0     0   502   501  0.000000000E+00  0.000000000E+00  1.544352651E+02  1.544352651E+02  0.000000000E+00  0.00000E+00  9.000E+00
      21    -1     0     0   512   502  0.000000000E+00  0.000000000E+00 -4.201360577E+02  4.201360577E+02  0.000000000E+00  0.00000E+00  9.000E+00
      25     1     1     2     0     0  1.640664339E+02  5.100670416E+00 -1.931761467E+02  2.826408237E+02  1.250000000E+02  0.00000E+00  9.000E+00
      25     1     1     2     0     0 -1.613108323E+02 -5.762865919E+01 -1.293859845E+01  2.124491805E+02  1.250000000E+02  0.00000E+00  9.000E+00
      21     1     1     2   512   501 -2.755601686E+00  5.252798877E+01 -5.958604747E+01  7.948131855E+01  9.536743164E-07  0.00000E+00  9.000E+00
#rwgt            1           1   3.1784468789469632E-002           1      422665           0
</event>
<event>
      5   9999  3.79277E-02  4.29765E+01 -1.00000E+00  1.42933E-01
      21    -1     0     0   502   511  0.000000000E+00  0.000000000E+00  6.575209721E+01  6.575209721E+01  0.000000000E+00  0.00000E+00  9.000E+00
      21    -1     0     0   501   502  0.000000000E+00  0.000000000E+00 -1.207841891E+03  1.207841891E+03  0.000000000E+00  0.00000E+00  9.000E+00
      25     1     1     2     0     0  1.196462322E+02 -2.108258988E+01 -2.440315185E+02  2.998934452E+02  1.250000000E+02  0.00000E+00  9.000E+00
      25     1     1     2     0     0 -1.366103820E+02  6.056923425E+01 -9.087623312E+02  9.294111056E+02  1.250000000E+02  0.00000E+00  9.000E+00
      21     1     1     2   501   511  1.696414987E+01 -3.948664437E+01  1.070405578E+01  4.428943750E+01  1.469710828E-06  0.00000E+00  9.000E+00
#rwgt            1           1   3.0576667803674282E-002           1      422775           0
</event>
<event>
      5   9999  3.79277E-02  3.55883E+01 -1.00000E+00  1.48060E-01
      21    -1     0     0   502   512  0.000000000E+00  0.000000000E+00  2.572454622E+02  2.572454622E+02  0.000000000E+00  0.00000E+00  9.000E+00
      21    -1     0     0   501   502  0.000000000E+00  0.000000000E+00 -3.385713246E+02  3.385713246E+02  0.000000000E+00  0.00000E+00  9.000E+00
      25     1     1     2     0     0 -7.173689968E+01 -1.053708254E+02  4.160357986E+01  1.833168063E+02  1.250000000E+02  0.00000E+00  9.000E+00
      25     1     1     2     0     0  8.601472649E+01  1.379694171E+02 -2.249777419E+02  3.044241738E+02  1.250000000E+02  0.00000E+00  9.000E+00
      21     1     1     2   501   512 -1.427782680E+01 -3.259859164E+01  1.020482997E+02  1.080758066E+02  0.000000000E+00  0.00000E+00  9.000E+00
#rwgt            1           1   4.5525685475419464E-002           1      422883           0
</event>
<event>
      5   9999  3.79277E-02  1.65192E+02 -1.00000E+00  1.14757E-01
      21    -1     0     0   502   501  0.000000000E+00  0.000000000E+00  2.706174445E+02  2.706174445E+02  0.000000000E+00  0.00000E+00  9.000E+00
      21    -1     0     0   501   511  0.000000000E+00  0.000000000E+00 -6.439819077E+02  6.439819077E+02  0.000000000E+00  0.00000E+00  9.000E+00
      25     1     1     2     0     0  2.175876917E+02 -3.998395434E+00  1.180480035E+02  2.773458525E+02  1.250000000E+02  0.00000E+00  9.000E+00
      25     1     1     2     0     0 -7.780822232E+01  9.203375377E+01 -7.475548192E+01  1.890442101E+02  1.250000000E+02  0.00000E+00  9.000E+00
      21     1     1     2   502   511 -1.397794694E+02 -8.803535834E+01 -4.166569847E+02  4.482092896E+02  5.394796609E-06  0.00000E+00  9.000E+00
#rwgt            1           1   4.4956381853640856E-002           1      423011           0
</event>
<event>
      5   9999  3.79277E-02  7.35170E+01 -1.00000E+00  1.30151E-01
      21    -1     0     0   502   501  0.000000000E+00  0.000000000E+00  1.053513462E+03  1.053513462E+03  0.000000000E+00  0.00000E+00  9.000E+00
      21    -1     0     0   501   512  0.000000000E+00  0.000000000E+00 -1.928247575E+02  1.928247575E+02  0.000000000E+00  0.00000E+00  9.000E+00
      25     1     1     2     0     0  9.789444982E+01  3.238947939E+01  8.371101939E+02  8.526493291E+02  1.250000000E+02  0.00000E+00  9.000E+00
      25     1     1     2     0     0 -1.699513659E+02 -4.696836805E+01  1.389053820E+02  2.569225555E+02  1.250000000E+02  0.00000E+00  9.000E+00
      21     1     1     2   502   512  7.205691608E+01  1.457888866E+01 -1.153268713E+02  1.367663350E+02  3.568322551E-06  0.00000E+00  9.000E+00
#rwgt            1           1   4.6817291550365916E-002           1      423064           0
</event>
<event>
      5   9999  3.79277E-02  4.78139E+01 -1.00000E+00  1.40192E-01
      21    -1     0     0   502   511  0.000000000E+00  0.000000000E+00  3.639240161E+01  3.639240161E+01  0.000000000E+00  0.00000E+00  9.000E+00
      21    -1     0     0   501   502  0.000000000E+00  0.000000000E+00 -1.328052504E+03  1.328052504E+03  0.000000000E+00  0.00000E+00  9.000E+00
      25     1     1     2     0     0  2.609404490E+01  3.100484342E+01 -2.037461728E+02  2.424452566E+02  1.250000000E+02  0.00000E+00  9.000E+00
      25     1     1     2     0     0  2.013916461E+01 -4.319756188E+01 -1.056167458E+03  1.064606178E+03  1.250000000E+02  0.00000E+00  9.000E+00
      21     1     1     2   501   511 -4.623320951E+01  1.219271845E+01 -3.174647169E+01  5.739347097E+01  1.348699152E-06  0.00000E+00  9.000E+00
#rwgt            1           1   4.9834448833381867E-002           1      423144           0
</event>
<event>
      5   9999  3.79277E-02  4.37925E+01 -1.00000E+00  1.42442E-01
      21    -1     0     0   512   501  0.000000000E+00  0.000000000E+00  8.519454231E+01  8.519454231E+01  0.000000000E+00  0.00000E+00  9.000E+00
      21    -1     0     0   501   502  0.000000000E+00  0.000000000E+00 -1.017797775E+03  1.017797775E+03  0.000000000E+00  0.00000E+00  9.000E+00
      25     1     1     2     0     0 -1.253762238E+02  1.771270893E+02 -2.937378740E+02  3.860053651E+02  1.250000000E+02  0.00000E+00  9.000E+00
      25     1     1     2     0     0  8.555947664E+01 -1.588949081E+02 -6.363158675E+02  6.731202709E+02  1.250000000E+02  0.00000E+00  9.000E+00
      21     1     1     2   512   502  3.981674713E+01 -1.823218125E+01 -2.549490700E+00  4.386668084E+01  8.429369702E-07  0.00000E+00  9.000E+00
#rwgt            1           1   3.6202714031917264E-002           1      423272           0
</event>
<event>
      5   9999  3.79277E-02  2.91313E+01 -1.00000E+00  1.53931E-01
      21    -1     0     0   502   501  0.000000000E+00  0.000000000E+00  9.743650074E+01  9.743650074E+01  0.000000000E+00  0.00000E+00  9.000E+00
       2    -1     0     0   501     0  0.000000000E+00  0.000000000E+00 -1.463545556E+03  1.463545556E+03  0.000000000E+00  0.00000E+00  9.000E+00
      25     1     1     2     0     0 -2.757904253E+01  1.513563444E+02 -2.870170209E+02  3.488167383E+02  1.250000000E+02  0.00000E+00  9.000E+00
      25     1     1     2     0     0  1.104360132E+01 -1.753399725E+02 -1.089400825E+02  2.415760929E+02  1.250000000E+02  0.00000E+00  9.000E+00
       2     1     1     2   502     0  1.653544120E+01  2.398362813E+01 -9.701519519E+02  9.705892257E+02  0.000000000E+00  0.00000E+00  9.000E+00
#rwgt            1           1   2.6201202254225897E-002           1      423377           0
</event>
<event>
      5   9999  3.79277E-02  2.32139E+01 -1.00000E+00  1.61200E-01
      21    -1     0     0   502   511  0.000000000E+00  0.000000000E+00  1.236823516E+03  1.236823516E+03  0.000000000E+00  0.00000E+00  9.000E+00
      21    -1     0     0   501   502  0.000000000E+00  0.000000000E+00 -4.488085654E+01  4.488085654E+01  0.000000000E+00  0.00000E+00  9.000E+00
      25     1     1     2     0     0  1.157919618E+02 -8.737807573E+00  9.768169654E+02  9.916050179E+02  1.250000000E+02  0.00000E+00  9.000E+00
      25     1     1     2     0     0 -9.554558367E+01  2.009429219E+01  1.403118312E+02  2.117667328E+02  1.250000000E+02  0.00000E+00  9.000E+00
      21     1     1     2   501   511 -2.024637813E+01 -1.135648462E+01  7.481386333E+01  7.833262231E+01  1.907348633E-06  0.00000E+00  9.000E+00
#rwgt            1           1   3.5685565665764418E-002           1      423567           0
</event>
<event>
      5   9999  3.79277E-02  1.00581E+02 -1.00000E+00  1.23715E-01
      21    -1     0     0   502   512  0.000000000E+00  0.000000000E+00  6.305812227E+01  6.305812227E+01  0.000000000E+00  0.00000E+00  9.000E+00
      21    -1     0     0   501   502  0.000000000E+00  0.000000000E+00 -8.349305139E+02  8.349305139E+02  0.000000000E+00  0.00000E+00  9.000E+00
      25     1     1     2     0     0  7.506168808E+00 -7.553495978E+01 -1.358170416E+02  1.995824178E+02  1.250000000E+02  0.00000E+00  9.000E+00
      25     1     1     2     0     0 -7.407857987E+01  1.387397192E-01 -5.404334164E+02  5.596257078E+02  1.250000000E+02  0.00000E+00  9.000E+00
      21     1     1     2   501   512  6.657241106E+01  7.539622006E+01 -9.562193357E+01  1.387805105E+02  0.000000000E+00  0.00000E+00  9.000E+00
#rwgt            1           1   4.7418529862389806E-002           1      423786           0
</event>
<event>
      5   9999  3.79277E-02  2.11370E+01 -1.00000E+00  1.64412E-01
      21    -1     0     0   502   501  0.000000000E+00  0.000000000E+00  5.292179832E+02  5.292179832E+02  0.000000000E+00  0.00000E+00  9.000E+00
      21    -1     0     0   511   502  0.000000000E+00  0.000000000E+00 -7.211786904E+01  7.211786904E+01  0.000000000E+00  0.00000E+00  9.000E+00
      25     1     1     2     0     0  5.102108948E+01  7.872345422E+01  8.901725103E+01  1.798599588E+02  1.250000000E+02  0.00000E+00  9.000E+00
      25     1     1     2     0     0 -7.052050045E+01 -8.688104687E+01  3.627637667E+02  3.996798815E+02  1.250000000E+02  0.00000E+00  9.000E+00
      21     1     1     2   511   501  1.949941097E+01  8.157592658E+00  5.319096469E+00  2.179601187E+01  3.318646170E-07  0.00000E+00  9.000E+00
#rwgt            1           1   5.5743191407173320E-002           1      423851           0
</event>
<event>
      5   9999  3.79277E-02  7.50204E+01 -1.00000E+00  1.29715E-01
      21    -1     0     0   502   501  0.000000000E+00  0.000000000E+00  2.212730969E+02  2.212730969E+02  0.000000000E+00  0.00000E+00  9.000E+00
      21    -1     0     0   501   512  0.000000000E+00  0.000000000E+00 -4.308923040E+02  4.308923040E+02  0.000000000E+00  0.00000E+00  9.000E+00
      25     1     1     2     0     0  1.632826033E+02  3.234002568E+01  3.200697395E+01  2.106099052E+02  1.250000000E+02  0.00000E+00  9.000E+00
      25     1     1     2     0     0 -1.476766825E+02  4.103927611E+01 -9.945831127E+00  1.980316750E+02  1.250000000E+02  0.00000E+00  9.000E+00
      21     1     1     2   502   512 -1.560592081E+01 -7.337930179E+01 -2.316803499E+02  2.435238207E+02  4.672030912E-06  0.00000E+00  9.000E+00
#rwgt            1           1   3.9461194545670923E-002           1      423941           0
</event>
<event>
      5   9999  3.79277E-02  1.51549E+02 -1.00000E+00  1.16217E-01
      21    -1     0     0   502   501  0.000000000E+00  0.000000000E+00  9.953066312E+01  9.953066312E+01  0.000000000E+00  0.00000E+00  9.000E+00
      21    -1     0     0   511   502  0.000000000E+00  0.000000000E+00 -7.497864291E+02  7.497864291E+02  0.000000000E+00  0.00000E+00  9.000E+00
      25     1     1     2     0     0 -1.541535408E+02 -7.085130637E+01 -1.511395980E+02  2.593287486E+02  1.250000000E+02  0.00000E+00  9.000E+00
      25     1     1     2     0     0  7.548510415E+01 -5.868044676E+01 -1.983446570E+02  2.531935993E+02  1.250000000E+02  0.00000E+00  9.000E+00
      21     1     1     2   511   501  7.866843665E+01  1.295317531E+02 -3.007715110E+02  3.367947443E+02  0.000000000E+00  0.00000E+00  9.000E+00
#rwgt            1           1   3.8742464309507216E-002           1      424100           0
</event>
<event>
      5   9999  3.79277E-02  5.76059E+01 -1.00000E+00  1.35655E-01
      21    -1     0     0   502   501  0.000000000E+00  0.000000000E+00  3.641853487E+02  3.641853487E+02  0.000000000E+00  0.00000E+00  9.000E+00
      21    -1     0     0   501   512  0.000000000E+00  0.000000000E+00 -4.752817471E+02  4.752817471E+02  0.000000000E+00  0.00000E+00  9.000E+00
      25     1     1     2     0     0 -3.371341875E+01  8.987318644E+01  8.865609359E+01  1.808277832E+02  1.250000000E+02  0.00000E+00  9.000E+00
      25     1     1     2     0     0 -2.017514129E+01 -1.102316154E+02  1.963705980E+02  2.583494864E+02  1.250000000E+02  0.00000E+00  9.000E+00
      21     1     1     2   502   512  5.388856004E+01  2.035842900E+01 -3.961230900E+02  4.002898262E+02  7.629394531E-06  0.00000E+00  9.000E+00
#rwgt            1           1   3.9523622431156528E-002           1      424132           0
</event>
<event>
      5   9999  3.79277E-02  7.73762E+00 -1.00000E+00  2.09582E-01
      21    -1     0     0   502   501  0.000000000E+00  0.000000000E+00  1.719265883E+02  1.719265883E+02  0.000000000E+00  0.00000E+00  9.000E+00
      21    -1     0     0   501   511  0.000000000E+00  0.000000000E+00 -3.951169307E+02  3.951169307E+02  0.000000000E+00  0.00000E+00  9.000E+00
      25     1     1     2     0     0 -8.196844150E+01 -7.166624730E+01  1.028976213E+02  1.951097047E+02  1.250000000E+02  0.00000E+00  9.000E+00
      25     1     1     2     0     0  8.968810646E+01  7.113945835E+01 -2.983438805E+02  3.431309517E+02  1.250000000E+02  0.00000E+00  9.000E+00
      21     1     1     2   502   511 -7.719664955E+00  5.267889473E-01 -2.774408328E+01  2.880286254E+01  3.371747881E-07  0.00000E+00  9.000E+00
#rwgt            1           1   4.2585405937541024E-002           1      424281           0
</event>
<event>
      5   9999  3.79277E-02  2.13834E+01 -1.00000E+00  1.64008E-01
      21    -1     0     0   502   512  0.000000000E+00  0.000000000E+00  5.747609279E+02  5.747609279E+02  0.000000000E+00  0.00000E+00  9.000E+00
      21    -1     0     0   501   502  0.000000000E+00  0.000000000E+00 -8.105493060E+01  8.105493060E+01  0.000000000E+00  0.00000E+00  9.000E+00
      25     1     1     2     0     0 -4.398797401E+01 -1.401514061E+02  2.514380442E+02  3.168965897E+02  1.250000000E+02  0.00000E+00  9.000E+00
      25     1     1     2     0     0  5.387443747E+01  1.591120371E+02  1.911857966E+02  2.835420677E+02  1.250000000E+02  0.00000E+00  9.000E+00
      21     1     1     2   501   512 -9.886463458E+00 -1.896063101E+01  5.108215648E+01  5.537720108E+01  1.168007728E-06  0.00000E+00  9.000E+00
#rwgt            1           1   3.7679457239934239E-002           1      424665           0
</event>
<event>
      5   9999  3.79277E-02  2.64955E+01 -1.00000E+00  1.56884E-01
      21    -1     0     0   502   511  0.000000000E+00  0.000000000E+00  4.813743069E+02  4.813743069E+02  0.000000000E+00  0.00000E+00  9.000E+00
      21    -1     0     0   501   502  0.000000000E+00  0.000000000E+00 -3.156939049E+02  3.156939049E+02  0.000000000E+00  0.00000E+00  9.000E+00
      25     1     1     2     0     0 -7.228768230E+01  1.266054844E+02 -2.535281822E+02  3.180503056E+02  1.250000000E+02  0.00000E+00  9.000E+00
      25     1     1     2     0     0  9.746300703E+01 -1.183463518E+02  3.189026921E+02  3.752716666E+02  1.250000000E+02  0.00000E+00  9.000E+00
      21     1     1     2   501   511 -2.517532473E+01 -8.259132692E+00  1.003058921E+02  1.037462397E+02  1.907348633E-06  0.00000E+00  9.000E+00
#rwgt            1           1   4.0708187585480934E-002           1      424865           0
</event>
<event>
      5   9999  3.79277E-02  9.66501E+00 -1.00000E+00  1.97483E-01
      21    -1     0     0   502   501  0.000000000E+00  0.000000000E+00  8.555912935E+01  8.555912935E+01  0.000000000E+00  0.00000E+00  9.000E+00
      21    -1     0     0   501   512  0.000000000E+00  0.000000000E+00 -6.246596927E+02  6.246596927E+02  0.000000000E+00  0.00000E+00  9.000E+00
      25     1     1     2     0     0  3.370380866E+01  1.798333583E+02 -2.201365960E+02  3.123477299E+02  1.250000000E+02  0.00000E+00  9.000E+00
      25     1     1     2     0     0 -2.955199409E+01 -1.885611735E+02 -3.068047312E+02  3.823385667E+02  1.250000000E+02  0.00000E+00  9.000E+00
      21     1     1     2   502   512 -4.151814574E+00  8.727815214E+00 -1.215923614E+01  1.553252543E+01  0.000000000E+00  0.00000E+00  9.000E+00
#rwgt            1           1   5.0872337332662373E-002           1      425011           0
</event>
<event>
      5   9999  3.79277E-02  1.60538E+01 -1.00000E+00  1.74650E-01
      21    -1     0     0   502   501  0.000000000E+00  0.000000000E+00  2.759040075E+02  2.759040075E+02  0.000000000E+00  0.00000E+00  9.000E+00
      21    -1     0     0   501   511  0.000000000E+00  0.000000000E+00 -2.396856764E+02  2.396856764E+02  0.000000000E+00  0.00000E+00  9.000E+00
      25     1     1     2     0     0  8.306423331E+01  1.889135319E+02 -2.054333601E+01  2.421466871E+02  1.250000000E+02  0.00000E+00  9.000E+00
      25     1     1     2     0     0 -9.901469694E+01 -1.907320103E+02  6.258120132E+01  2.563669572E+02  1.250000000E+02  0.00000E+00  9.000E+00
      21     1     1     2   502   511  1.595046363E+01  1.818478390E+00 -5.819534242E+00  1.707603972E+01  2.528810911E-07  0.00000E+00  9.000E+00
#rwgt            1           1   2.5223795624699886E-002           1      425238           0
</event>
<event>
      5   9999 -3.79277E-02  2.54907E+01 -1.00000E+00  1.58121E-01
      21    -1     0     0   502   501  0.000000000E+00  0.000000000E+00  1.206601779E+03  1.206601779E+03  0.000000000E+00  0.00000E+00  9.000E+00
      21    -1     0     0   501   512  0.000000000E+00  0.000000000E+00 -3.802165247E+01  3.802165247E+01  0.000000000E+00  0.00000E+00  9.000E+00
      25     1     1     2     0     0  7.191623690E+01  8.521919078E+01  2.975839725E+02  3.414900823E+02  1.250000000E+02  0.00000E+00  9.000E+00
      25     1     1     2     0     0 -4.743197198E+01 -9.231126100E+01  8.602707857E+02  8.754781469E+02  1.250000000E+02  0.00000E+00  9.000E+00
      21     1     1     2   502   512 -2.448426492E+01  7.092070227E+00  1.072536826E+01  2.765520228E+01  1.039242493E-06  0.00000E+00  9.000E+00
#rwgt            1           1  -5.4885939160426528E-002           1      425450           0
</event>
<event>
      5   9999  3.79277E-02  1.66555E+01 -1.00000E+00  1.73205E-01
      21    -1     0     0   511   501  0.000000000E+00  0.000000000E+00  2.880938808E+02  2.880938808E+02  0.000000000E+00  0.00000E+00  9.000E+00
      21    -1     0     0   501   502  0.000000000E+00  0.000000000E+00 -3.555019656E+02  3.555019656E+02  0.000000000E+00  0.00000E+00  9.000E+00
      25     1     1     2     0     0 -2.096696146E+01  3.402032511E+01  1.319795622E+02  1.861198561E+02  1.250000000E+02  0.00000E+00  9.000E+00
      25     1     1     2     0     0  2.148449850E+01 -1.737287930E+01 -3.153393889E+02  3.403341458E+02  1.250000000E+02  0.00000E+00  9.000E+00
      21     1     1     2   511   502 -5.175370398E-01 -1.664744581E+01  1.159517419E+02  1.171418445E+02  0.000000000E+00  0.00000E+00  9.000E+00
#rwgt            1           1   2.6392177166186963E-002           1      425576           0
</event>
<event>
      5   9999  3.79277E-02  3.89662E+01 -1.00000E+00  1.45549E-01
      21    -1     0     0   502   512  0.000000000E+00  0.000000000E+00  9.035328770E+01  9.035328770E+01  0.000000000E+00  0.00000E+00  9.000E+00
      21    -1     0     0   501   502  0.000000000E+00  0.000000000E+00 -6.816748618E+02  6.816748618E+02  0.000000000E+00  0.00000E+00  9.000E+00
      25     1     1     2     0     0  7.520010033E+01 -1.295753552E+02 -1.754952696E+02  2.624279281E+02  1.250000000E+02  0.00000E+00  9.000E+00
      25     1     1     2     0     0 -4.972354077E+01  1.000913433E+02 -4.349811284E+02  4.661805332E+02  1.250000000E+02  0.00000E+00  9.000E+00
      21     1     1     2   501   512 -2.547655956E+01  2.948401191E+01  1.915482390E+01  4.341968821E+01  1.369610464E-06  0.00000E+00  9.000E+00
#rwgt            1           1   4.3978188349990364E-002           1      425779           0
</event>
<event>
      5   9999  3.79277E-02  5.08883E+01 -1.00000E+00  1.38641E-01
      21    -1     0     0   511   501  0.000000000E+00  0.000000000E+00  1.036324514E+02  1.036324514E+02  0.000000000E+00  0.00000E+00  9.000E+00
      21    -1     0     0   501   502  0.000000000E+00  0.000000000E+00 -6.780771908E+02  6.780771908E+02  0.000000000E+00  0.00000E+00  9.000E+00
      25     1     1     2     0     0 -9.496232810E+01  1.942737532E+02 -3.250542414E+02  4.099334029E+02  1.250000000E+02  0.00000E+00  9.000E+00
      25     1     1     2     0     0  6.638118082E+01 -1.521699082E+02 -2.441501936E+02  3.206188690E+02  1.250000000E+02  0.00000E+00  9.000E+00
      21     1     1     2   511   502  2.858114727E+01 -4.210384498E+01 -5.240304440E+00  5.115737026E+01  7.515859731E-07  0.00000E+00  9.000E+00
#rwgt            1           1   3.8064292103198616E-002           1      425883           0
</event>
<event>
      5   9999 -3.79277E-02  1.42662E+02 -1.00000E+00  1.17263E-01
      21    -1     0     0   502   512  0.000000000E+00  0.000000000E+00  2.648986616E+02  2.648986616E+02  0.000000000E+00  0.00000E+00  9.000E+00
      21    -1     0     0   501   502  0.000000000E+00  0.000000000E+00 -4.276453576E+02  4.276453576E+02  0.000000000E+00  0.00000E+00  9.000E+00
      25     1     1     2     0     0 -1.466160610E+02  1.581191636E+02  4.751632555E+01  2.537336013E+02  1.250000000E+02  0.00000E+00  9.000E+00
      25     1     1     2     0     0  3.691363417E+01 -6.691711337E+01 -2.508373581E+02  2.904907859E+02  1.250000000E+02  0.00000E+00  9.000E+00
      21     1     1     2   501   512  1.097024269E+02 -9.120205021E+01  4.057433655E+01  1.483196319E+02  3.504023184E-06  0.00000E+00  9.000E+00
#rwgt            1           1  -4.6635650620055924E-002           1      425973           0
</event>
<event>
      5   9999 -4.97550E-02  2.30339E+01 -1.00000E+00  1.61462E-01
       2    -1     0     0   502     0  0.000000000E+00  0.000000000E+00  4.011660858E+03  4.011660858E+03  0.000000000E+00  0.00000E+00  9.000E+00
      21    -1     0     0   501   502  0.000000000E+00  0.000000000E+00 -4.168546207E+01  4.168546207E+01  0.000000000E+00  0.00000E+00  9.000E+00
      25     1     1     2     0     0 -1.703068886E+02  1.621451823E+02  5.659431212E+02  6.254695140E+02  1.250000000E+02  0.00000E+00  9.000E+00
      25     1     1     2     0     0  1.544898064E+02 -1.788897441E+02  1.496102244E+03  1.519807740E+03  1.250000000E+02  0.00000E+00  9.000E+00
       2     1     1     2   501     0  1.581708228E+01  1.674456180E+01  1.907930031E+03  1.908069066E+03  4.825252777E-05  0.00000E+00  9.000E+00
#rwgt            1           1 -0.64886351543898013                1      426035           0
</event>
<event>
      5   9999  3.79277E-02  3.48566E+01 -1.00000E+00  1.48647E-01
      21    -1     0     0   502   501  0.000000000E+00  0.000000000E+00  1.835694545E+02  1.835694545E+02  0.000000000E+00  0.00000E+00  9.000E+00
      21    -1     0     0   511   502  0.000000000E+00  0.000000000E+00 -1.010111841E+03  1.010111841E+03  0.000000000E+00  0.00000E+00  9.000E+00
      25     1     1     2     0     0  1.564679561E+01  5.957444534E+01  1.201670681E+02  1.840083178E+02  1.250000000E+02  0.00000E+00  9.000E+00
      25     1     1     2     0     0 -3.746518893E+01 -3.239096909E+01 -1.141231047E+02  1.763573029E+02  1.250000000E+02  0.00000E+00  9.000E+00
      21     1     1     2   511   501  2.181839332E+01 -2.718347625E+01 -8.325863501E+02  8.333156749E+02  1.078959322E-05  0.00000E+00  9.000E+00
#rwgt            1           1   3.6576453425827292E-002           1      426220           0
</event>
<event>
      5   9999  3.79277E-02  2.21166E+01 -1.00000E+00  1.62843E-01
      21    -1     0     0   502   501  0.000000000E+00  0.000000000E+00  2.600645518E+01  2.600645518E+01  0.000000000E+00  0.00000E+00  9.000E+00
       2    -1     0     0   501     0  0.000000000E+00  0.000000000E+00 -1.570405083E+03  1.570405083E+03  0.000000000E+00  0.00000E+00  9.000E+00
      25     1     1     2     0     0 -1.293363258E+02  7.067340681E+00 -7.464510641E+02  7.678489588E+02  1.250000000E+02  0.00000E+00  9.000E+00
      25     1     1     2     0     0  1.109048257E+02 -1.929118861E+01 -4.583151648E+02  4.882108362E+02  1.250000000E+02  0.00000E+00  9.000E+00
       2     1     1     2   502     0  1.843150012E+01  1.222384793E+01 -3.396323994E+02  3.403517436E+02  3.814697266E-06  0.00000E+00  9.000E+00
#rwgt            1           1   4.6316867767918525E-002           1      426346           0
</event>
<event>
      5   9999  3.79277E-02  4.61545E+01 -1.00000E+00  1.41088E-01
      21    -1     0     0   502   511  0.000000000E+00  0.000000000E+00  5.156786942E+02  5.156786942E+02  0.000000000E+00  0.00000E+00  9.000E+00
      21    -1     0     0   501   502  0.000000000E+00  0.000000000E+00 -7.508631886E+01  7.508631886E+01  0.000000000E+00  0.00000E+00  9.000E+00
      25     1     1     2     0     0  7.619768540E+01 -1.089102425E+00  7.908680942E+01  1.663941009E+02  1.250000000E+02  0.00000E+00  9.000E+00
      25     1     1     2     0     0 -1.205792078E+02 -1.158056700E+01  2.602851106E+02  3.131242464E+02  1.250000000E+02  0.00000E+00  9.000E+00
      21     1     1     2   501   511  4.438152241E+01  1.266966942E+01  1.012204554E+02  1.112466657E+02  1.348699152E-06  0.00000E+00  9.000E+00
#rwgt            1           1   4.7802597361909401E-002           1      426502           0
</event>
<event>
      5   9999  3.79277E-02  2.60372E+02 -1.00000E+00  1.07630E-01
      21    -1     0     0   502   501  0.000000000E+00  0.000000000E+00  4.533229470E+02  4.533229470E+02  0.000000000E+00  0.00000E+00  9.000E+00
      21    -1     0     0   512   502  0.000000000E+00  0.000000000E+00 -5.478268470E+02  5.478268470E+02  0.000000000E+00  0.00000E+00  9.000E+00
      25     1     1     2     0     0  2.006590748E+00 -4.057423613E+02  4.086704439E+01  4.265278485E+02  1.250000000E+02  0.00000E+00  9.000E+00
      25     1     1     2     0     0 -1.707658697E+02  2.074646156E+02 -9.451467470E+01  3.110636152E+02  1.250000000E+02  0.00000E+00  9.000E+00
      21     1     1     2   512   501  1.687592789E+02  1.982777458E+02 -4.085626966E+01  2.635583303E+02  4.720447033E-06  0.00000E+00  9.000E+00
#rwgt            1           1  0.13484342934199539                1      426639           0
</event>
<event>
      5   9999  3.79277E-02  1.94569E+01 -1.00000E+00  1.67362E-01
      21    -1     0     0   502   501  0.000000000E+00  0.000000000E+00  1.700884621E+01  1.700884621E+01  0.000000000E+00  0.00000E+00  9.000E+00
      21    -1     0     0   501   511  0.000000000E+00  0.000000000E+00 -2.134307824E+03  2.134307824E+03  0.000000000E+00  0.00000E+00  9.000E+00
      25     1     1     2     0     0  3.404812049E+01  1.309073429E+02 -1.039763972E+03  1.055949869E+03  1.250000000E+02  0.00000E+00  9.000E+00
      25     1     1     2     0     0 -2.665263946E+01 -1.129107215E+02 -8.461459173E+02  8.631611133E+02  1.250000000E+02  0.00000E+00  9.000E+00
      21     1     1     2   502   511 -7.395481034E+00 -1.799662138E+01 -2.313890880E+02  2.322056880E+02  2.697398305E-06  0.00000E+00  9.000E+00
#rwgt            1           1   8.1806700236455088E-002           1      426694           0
</event>
<event>
      5   9999  3.79277E-02  3.53446E+01 -1.00000E+00  1.48254E-01
      21    -1     0     0   502   501  0.000000000E+00  0.000000000E+00  9.328033017E+02  9.328033017E+02  0.000000000E+00  0.00000E+00  9.000E+00
      21    -1     0     0   512   502  0.000000000E+00  0.000000000E+00 -1.114602223E+02  1.114602223E+02  0.000000000E+00  0.00000E+00  9.000E+00
      25     1     1     2     0     0 -5.739652321E+01 -2.706663231E+02  3.577156971E+02  4.691909412E+02  1.250000000E+02  0.00000E+00  9.000E+00
      25     1     1     2     0     0  4.334632546E+01  2.382343450E+02  4.658051432E+02  5.396609477E+02  1.250000000E+02  0.00000E+00  9.000E+00
      21     1     1     2   512   501  1.405019775E+01  3.243197805E+01 -2.177760877E+00  3.541163508E+01  4.969040156E-07  0.00000E+00  9.000E+00
#rwgt            1           1   1.0937074497788623E-002           1      426916           0
</event>
<event>
      5   9999  3.79277E-02  1.00074E+02 -1.00000E+00  1.23814E-01
       1    -1     0     0   502     0  0.000000000E+00  0.000000000E+00  5.501645532E+02  5.501645532E+02  0.000000000E+00  0.00000E+00  9.000E+00
      21    -1     0     0   501   502  0.000000000E+00  0.000000000E+00 -1.072807543E+02  1.072807543E+02  0.000000000E+00  0.00000E+00  9.000E+00
      25     1     1     2     0     0 -9.982232816E+01  7.770827037E+01  2.193421093E+02  2.823810075E+02  1.250000000E+02  0.00000E+00  9.000E+00
      25     1     1     2     0     0  1.104359317E+02  2.180085740E+01  5.130464361E+01  1.758651155E+02  1.250000000E+02  0.00000E+00  9.000E+00
       1     1     1     2   501     0 -1.061360351E+01 -9.950912776E+01  1.722370460E+02  1.991991845E+02  0.000000000E+00  0.00000E+00  9.000E+00
#rwgt            1           1   5.5340961202435889E-002           1      427023           0
</event>
<event>
      5   9999  3.79277E-02  3.06022E+01 -1.00000E+00  1.52443E-01
      21    -1     0     0   502   511  0.000000000E+00  0.000000000E+00  1.653111992E+02  1.653111992E+02  0.000000000E+00  0.00000E+00  9.000E+00
      21    -1     0     0   501   502  0.000000000E+00  0.000000000E+00 -2.431818229E+02  2.431818229E+02  0.000000000E+00  0.00000E+00  9.000E+00
      25     1     1     2     0     0  8.511465474E+01  8.573294905E+01 -3.734275691E+00  1.738780832E+02  1.250000000E+02  0.00000E+00  9.000E+00
      25     1     1     2     0     0 -5.451357726E+01 -8.546886916E+01 -1.041910444E+02  1.917222768E+02  1.250000000E+02  0.00000E+00  9.000E+00
      21     1     1     2   501   511 -3.060107748E+01 -2.640798866E-01  3.005469643E+01  4.289266206E+01  0.000000000E+00  0.00000E+00  9.000E+00
#rwgt            1           1   4.1788876353698302E-002           1      427153           0
</event>
<event>
      5   9999  3.79277E-02  2.86274E+01 -1.00000E+00  1.54466E-01
      21    -1     0     0   502   501  0.000000000E+00  0.000000000E+00  1.511376070E+03  1.511376070E+03  0.000000000E+00  0.00000E+00  9.000E+00
      21    -1     0     0   512   502  0.000000000E+00  0.000000000E+00 -7.418182141E+01  7.418182141E+01  0.000000000E+00  0.00000E+00  9.000E+00
      25     1     1     2     0     0  1.376973118E+02  2.406570655E+02  8.359156249E+02  8.895258876E+02  1.250000000E+02  0.00000E+00  9.000E+00
      25     1     1     2     0     0 -1.658219590E+02 -2.459983757E+02  5.553688254E+02  6.419280763E+02  1.250000000E+02  0.00000E+00  9.000E+00
      21     1     1     2   512   501  2.812464727E+01  5.341310258E+00  4.590979794E+01  5.410392709E+01  0.000000000E+00  0.00000E+00  9.000E+00
#rwgt            1           1   3.6473790175251604E-002           1      427341           0
</event>
<event>
      5   9999  3.79277E-02  1.00794E+01 -1.00000E+00  1.95361E-01
      21    -1     0     0   511   501  0.000000000E+00  0.000000000E+00  3.359281557E+02  3.359281557E+02  0.000000000E+00  0.00000E+00  9.000E+00
      21    -1     0     0   501   502  0.000000000E+00  0.000000000E+00 -3.404456006E+02  3.404456006E+02  0.000000000E+00  0.00000E+00  9.000E+00
      25     1     1     2     0     0  2.087377077E+02  1.533832698E+02  1.690226379E+02  3.336038223E+02  1.250000000E+02  0.00000E+00  9.000E+00
      25     1     1     2     0     0 -1.997381262E+02 -1.579221266E+02 -1.738399475E+02  3.326861050E+02  1.250000000E+02  0.00000E+00  9.000E+00
      21     1     1     2   511   502 -8.999581507E+00  4.538856766E+00  2.998646111E-01  1.008382898E+01  1.165009720E-07  0.00000E+00  9.000E+00
#rwgt            1           1   3.3812857483627813E-002           1      427482           0
</event>
<event>
      5   9999  3.79277E-02  1.59803E+01 -1.00000E+00  1.74832E-01
      21    -1     0     0   502   512  0.000000000E+00  0.000000000E+00  2.090116459E+02  2.090116459E+02  0.000000000E+00  0.00000E+00  9.000E+00
      21    -1     0     0   501   502  0.000000000E+00  0.000000000E+00 -1.768164123E+02  1.768164123E+02  0.000000000E+00  0.00000E+00  9.000E+00
      25     1     1     2     0     0 -6.976585682E+01 -1.069700743E+02  1.408201098E+01  1.792572861E+02  1.250000000E+02  0.00000E+00  9.000E+00
      25     1     1     2     0     0  7.010257961E+01  9.099333500E+01 -1.437037063E+01  1.703692057E+02  1.250000000E+02  0.00000E+00  9.000E+00
      21     1     1     2   501   512 -3.367227899E-01  1.597673935E+01  3.248359331E+01  3.620156649E+01  4.768371582E-07  0.00000E+00  9.000E+00
#rwgt            1           1   3.7116735991290471E-002           1      427909           0
</event>
<event>
      5   9999  3.79277E-02  3.18469E+01 -1.00000E+00  1.51259E-01
      21    -1     0     0   502   501  0.000000000E+00  0.000000000E+00  1.797315781E+02  1.797315781E+02  0.000000000E+00  0.00000E+00  9.000E+00
       2    -1     0     0   501     0  0.000000000E+00  0.000000000E+00 -4.318555718E+02  4.318555718E+02  0.000000000E+00  0.00000E+00  9.000E+00
      25     1     1     2     0     0 -1.072478738E+02 -7.145002836E+01 -5.995199483E+01  1.892787750E+02  1.250000000E+02  0.00000E+00  9.000E+00
      25     1     1     2     0     0  1.234985855E+02  4.406140594E+01  4.201442965E+01  1.859664497E+02  1.250000000E+02  0.00000E+00  9.000E+00
       2     1     1     2   502     0 -1.625071174E+01  2.738862242E+01 -2.341864285E+02  2.363419252E+02  0.000000000E+00  0.00000E+00  9.000E+00
#rwgt            1           1   3.2678919880385231E-002           1      428139           0
</event>
<event>
      5   9999  3.79277E-02  2.94569E+02 -1.00000E+00  1.05850E-01
       1    -1     0     0   502     0  0.000000000E+00  0.000000000E+00  2.599165097E+03  2.599165097E+03  0.000000000E+00  0.00000E+00  9.000E+00
      21    -1     0     0   501   502  0.000000000E+00  0.000000000E+00 -3.061336290E+02  3.061336290E+02  0.000000000E+00  0.00000E+00  9.000E+00
      25     1     1     2     0     0  1.200946527E+01 -1.588743186E+02  6.932373149E+01  2.140468549E+02  1.250000000E+02  0.00000E+00  9.000E+00
      25     1     1     2     0     0 -1.397708818E+02 -1.065462887E+02 -1.730175254E+02  2.764924504E+02  1.250000000E+02  0.00000E+00  9.000E+00
       1     1     1     2   501     0  1.277614165E+02  2.654206073E+02  2.396725262E+03  2.414759421E+03  3.051757812E-05  0.00000E+00  9.000E+00
#rwgt            1           1   4.5553204745487047E-002           1      428278           0
</event>
<event>
      5   9999  3.79277E-02  2.54325E+01 -1.00000E+00  1.58195E-01
      21    -1     0     0   502   501  0.000000000E+00  0.000000000E+00  3.223333121E+02  3.223333121E+02  0.000000000E+00  0.00000E+00  9.000E+00
      21    -1     0     0   501   511  0.000000000E+00  0.000000000E+00 -1.052364009E+02  1.052364009E+02  0.000000000E+00  0.00000E+00  9.000E+00
      25     1     1     2     0     0 -5.848851678E+01  8.445624042E+01  1.085608902E+02  1.948441172E+02  1.250000000E+02  0.00000E+00  9.000E+00
      25     1     1     2     0     0  6.074323132E+01 -1.097885875E+02  1.076859785E+02  2.072789041E+02  1.250000000E+02  0.00000E+00  9.000E+00
      21     1     1     2   502   511 -2.254714541E+00  2.533234709E+01  8.500425810E-01  2.544669171E+01  4.942156062E-07  0.00000E+00  9.000E+00
#rwgt            1           1   3.5910756110559980E-002           1      428349           0
</event>
<event>
      5   9999  3.79277E-02  8.72970E+00 -1.00000E+00  2.02834E-01
      21    -1     0     0   502   501  0.000000000E+00  0.000000000E+00  3.873598954E+02  3.873598954E+02  0.000000000E+00  0.00000E+00  9.000E+00
      21    -1     0     0   501   512  0.000000000E+00  0.000000000E+00 -3.094825862E+02  3.094825862E+02  0.000000000E+00  0.00000E+00  9.000E+00
      25     1     1     2     0     0  1.458909564E+02 -2.282261601E+01  1.181683388E+02  2.267020054E+02  1.250000000E+02  0.00000E+00  9.000E+00
      25     1     1     2     0     0 -1.465213830E+02  3.152952653E+01  1.705123047E+02  2.591564639E+02  1.250000000E+02  0.00000E+00  9.000E+00
      21     1     1     2   502   512  6.304266208E-01 -8.706910524E+00 -2.108033343E+02  2.109840124E+02  2.697398305E-06  0.00000E+00  9.000E+00
#rwgt            1           1   3.2244105878759172E-002           1      428547           0
</event>
<event>
      5   9999  3.79277E-02  1.03924E+02 -1.00000E+00  1.23081E-01
      21    -1     0     0   502   501  0.000000000E+00  0.000000000E+00  1.421112152E+02  1.421112152E+02  0.000000000E+00  0.00000E+00  9.000E+00
      21    -1     0     0   501   511  0.000000000E+00  0.000000000E+00 -9.222456424E+02  9.222456424E+02  0.000000000E+00  0.00000E+00  9.000E+00
      25     1     1     2     0     0  1.817765725E+02  1.479362824E+01 -1.101865477E+02  2.470377482E+02  1.250000000E+02  0.00000E+00  9.000E+00
      25     1     1     2     0     0 -2.199204388E+02  8.187763894E+01 -1.913811502E+02  3.275983697E+02  1.250000000E+02  0.00000E+00  9.000E+00
      21     1     1     2   502   511  3.814386627E+01 -9.667126719E+01 -4.785667294E+02  4.897207397E+02  5.394796609E-06  0.00000E+00  9.000E+00
#rwgt            1           1   5.4745447713399883E-002           1      428905           0
</event>
<event>
      5   9999  3.79277E-02  5.43251E+01 -1.00000E+00  1.37050E-01
       2    -1     0     0   502     0  0.000000000E+00  0.000000000E+00  9.929553472E+02  9.929553472E+02  0.000000000E+00  0.00000E+00  9.000E+00
      21    -1     0     0   501   502  0.000000000E+00  0.000000000E+00 -3.192784762E+02  3.192784762E+02  0.000000000E+00  0.00000E+00  9.000E+00
      25     1     1     2     0     0 -1.158729619E+02 -9.364355034E+01 -1.950607471E+02  2.754439197E+02  1.250000000E+02  0.00000E+00  9.000E+00
      25     1     1     2     0     0  7.216403240E+01  6.138302300E+01 -9.254881993E+00  1.571183501E+02  1.250000000E+02  0.00000E+00  9.000E+00
       2     1     1     2   501     0  4.370892954E+01  3.226052734E+01  8.779925001E+02  8.796715537E+02  1.525878906E-05  0.00000E+00  9.000E+00
#rwgt            1           1   4.2188336465441262E-002           1      429037           0
</event>
<event>
      5   9999  3.79277E-02  1.02455E+02 -1.00000E+00  1.23356E-01
      21    -1     0     0   511   501  0.000000000E+00  0.000000000E+00  1.536730274E+03  1.536730274E+03  0.000000000E+00  0.00000E+00  9.000E+00
      21    -1     0     0   501   502  0.000000000E+00  0.000000000E+00 -4.519620816E+01  4.519620816E+01  0.000000000E+00  0.00000E+00  9.000E+00
      25     1     1     2     0     0  7.130692589E+00  1.500743414E+02  3.995034680E+02  4.447484409E+02  1.250000000E+02  0.00000E+00  9.000E+00
      25     1     1     2     0     0 -1.084577228E+02 -1.349140731E+02  7.840160402E+02  8.125706345E+02  1.250000000E+02  0.00000E+00  9.000E+00
      21     1     1     2   511   502  1.013270302E+02 -1.516026830E+01  3.080145574E+02  3.246074065E+02  3.814697266E-06  0.00000E+00  9.000E+00
#rwgt            1           1   3.7605789179682846E-002           1      429150           0
</event>
<event>
      5   9999  3.79277E-02  1.07635E+02 -1.00000E+00  1.22408E-01
      21    -1     0     0   502   512  0.000000000E+00  0.000000000E+00  1.228315394E+02  1.228315394E+02  0.000000000E+00  0.00000E+00  9.000E+00
      21    -1     0     0   501   502  0.000000000E+00  0.000000000E+00 -4.278372283E+02  4.278372283E+02  0.000000000E+00  0.00000E+00  9.000E+00
      25     1     1     2     0     0  6.715954817E+01 -1.659679273E+01 -1.639742635E+02  2.174819936E+02  1.250000000E+02  0.00000E+00  9.000E+00
      25     1     1     2     0     0 -1.256733250E+02 -7.374359046E+01 -7.057628923E+01  2.045431846E+02  1.250000000E+02  0.00000E+00  9.000E+00
      21     1     1     2   501   512  5.851377682E+01  9.034038319E+01 -7.045513619E+01  1.286435895E+02  9.536743164E-07  0.00000E+00  9.000E+00
#rwgt            1           1   3.4478306756788521E-002           1      429182           0
</event>
<event>
      5   9999  3.79277E-02  8.83542E+01 -1.00000E+00  1.26296E-01
      21    -1     0     0   502   501  0.000000000E+00  0.000000000E+00  2.797774388E+02  2.797774388E+02  0.000000000E+00  0.00000E+00  9.000E+00
      21    -1     0     0   511   502  0.000000000E+00  0.000000000E+00 -2.390585232E+02  2.390585232E+02  0.000000000E+00  0.00000E+00  9.000E+00
      25     1     1     2     0     0 -1.656712354E+02 -5.913726775E+01  1.065363037E+02  2.406639954E+02  1.250000000E+02  0.00000E+00  9.000E+00
      25     1     1     2     0     0  8.494531490E+01  9.505096470E+01 -2.307374316E+01  1.800216377E+02  1.250000000E+02  0.00000E+00  9.000E+00
      21     1     1     2   511   501  8.072592048E+01 -3.591369695E+01 -4.274364496E+01  9.815032884E+01  4.768371582E-07  0.00000E+00  9.000E+00
#rwgt            1           1  0.11222791460704441                1      429266           0
</event>
<event>
      5   9999  3.79277E-02  4.56919E+01 -1.00000E+00  1.41346E-01
       3    -1     0     0   502     0  0.000000000E+00  0.000000000E+00  1.185208291E+03  1.185208291E+03  0.000000000E+00  0.00000E+00  9.000E+00
      21    -1     0     0   501   502  0.000000000E+00  0.000000000E+00 -2.170350633E+02  2.170350633E+02  0.000000000E+00  0.00000E+00  9.000E+00
      25     1     1     2     0     0 -5.023368820E+01 -1.829974099E+01  4.103178255E+01  1.420102501E+02  1.250000000E+02  0.00000E+00  9.000E+00
      25     1     1     2     0     0  2.529507394E+01 -1.998627190E+01 -1.409692468E+02  1.911455476E+02  1.250000000E+02  0.00000E+00  9.000E+00
       3     1     1     2   501     0  2.493861426E+01  3.828601289E+01  1.068110692E+03  1.069087557E+03  0.000000000E+00  0.00000E+00  9.000E+00
#rwgt            1           1   4.5698919466190667E-002           1      429350           0
</event>
<event>
      5   9999  3.79277E-02  5.77948E+01 -1.00000E+00  1.35578E-01
      21    -1     0     0   511   501  0.000000000E+00  0.000000000E+00  3.600131786E+01  3.600131786E+01  0.000000000E+00  0.00000E+00  9.000E+00
      21    -1     0     0   501   502  0.000000000E+00  0.000000000E+00 -1.990838919E+03  1.990838919E+03  0.000000000E+00  0.00000E+00  9.000E+00
      25     1     1     2     0     0  8.152613795E+01  4.282302695E+01 -3.341583446E+02  3.684659035E+02  1.250000000E+02  0.00000E+00  9.000E+00
      25     1     1     2     0     0 -1.051311835E+02 -9.557756817E+01 -1.570425483E+03  1.581786595E+03  1.250000000E+02  0.00000E+00  9.000E+00
      21     1     1     2   511   502  2.360504557E+01  5.275454122E+01 -5.025377404E+01  7.658773792E+01  2.236564522E-06  0.00000E+00  9.000E+00
#rwgt            1           1   8.1771577148440050E-002           1      429471           0
</event>
<event>
      5   9999  3.79277E-02  4.72936E+01 -1.00000E+00  1.40469E-01
       2    -1     0     0   502     0  0.000000000E+00  0.000000000E+00  3.294845742E+03  3.294845742E+03  0.000000000E+00  0.00000E+00  9.000E+00
      21    -1     0     0   501   502  0.000000000E+00  0.000000000E+00 -2.117177055E+02  2.117177055E+02  0.000000000E+00  0.00000E+00  9.000E+00
      25     1     1     2     0     0 -2.246698361E+02 -1.604893361E+02  1.358268435E+02  3.321254186E+02  1.250000000E+02  0.00000E+00  9.000E+00
      25     1     1     2     0     0  2.700912569E+02  1.736641431E+02  1.484619530E+02  3.751992446E+02  1.250000000E+02  0.00000E+00  9.000E+00
       2     1     1     2   501     0 -4.542142087E+01 -1.317480697E+01  2.798839240E+03  2.799238785E+03  4.315837288E-05  0.00000E+00  9.000E+00
#rwgt            1           1   3.7548341901391509E-002           1      429556           0
</event>
<event>
      5   9999  3.79277E-02  6.51288E+01 -1.00000E+00  1.32827E-01
      21    -1     0     0   502   511  0.000000000E+00  0.000000000E+00  4.253125644E+01  4.253125644E+01  0.000000000E+00  0.00000E+00  9.000E+00
      21    -1     0     0   501   502  0.000000000E+00  0.000000000E+00 -9.567119497E+02  9.567119497E+02  0.000000000E+00  0.00000E+00  9.000E+00
      25     1     1     2     0     0  5.109464805E+01  3.823147025E+01 -3.854093652E+02  4.101678768E+02  1.250000000E+02  0.00000E+00  9.000E+00
      25     1     1     2     0     0 -5.785592637E+01  2.654546188E+01 -4.973684305E+02  5.167710570E+02  1.250000000E+02  0.00000E+00  9.000E+00
      21     1     1     2   501   511  6.761278314E+00 -6.477693213E+01 -3.140289766E+01  7.230427236E+01  0.000000000E+00  0.00000E+00  9.000E+00
#rwgt            1           1   3.4647000400703863E-002           1      429697           0
</event>
<event>
      5   9999  3.79277E-02  2.33000E+02 -1.00000E+00  1.09286E-01
      21    -1     0     0   502   501  0.000000000E+00  0.000000000E+00  1.362691237E+02  1.362691237E+02  0.000000000E+00  0.00000E+00  9.000E+00
       2    -1     0     0   501     0  0.000000000E+00  0.000000000E+00 -2.030232545E+03  2.030232545E+03  0.000000000E+00  0.00000E+00  9.000E+00
      25     1     1     2     0     0  3.382097375E+02  2.286394126E+01 -2.434858141E+02  4.356821411E+02  1.250000000E+02  0.00000E+00  9.000E+00
      25     1     1     2     0     0 -1.505417956E+02 -1.609563757E+02 -5.444616581E+02  6.005275050E+02  1.250000000E+02  0.00000E+00  9.000E+00
       2     1     1     2   502     0 -1.876679419E+02  1.380924345E+02 -1.106015950E+03  1.130292023E+03  0.000000000E+00  0.00000E+00  9.000E+00
#rwgt            1           1   1.6408849610544375E-002           1      429823           0
</event>
<event>
      5   9999  3.79277E-02  5.41400E+01 -1.00000E+00  1.37133E-01
      21    -1     0     0   502   501  0.000000000E+00  0.000000000E+00  7.243384542E+02  7.243384542E+02  0.000000000E+00  0.00000E+00  9.000E+00
      21    -1     0     0   501   511  0.000000000E+00  0.000000000E+00 -1.785649860E+02  1.785649860E+02  0.000000000E+00  0.00000E+00  9.000E+00
      25     1     1     2     0     0  2.238775405E+01 -4.574153271E+01  5.824266897E+02  5.978623155E+02  1.250000000E+02  0.00000E+00  9.000E+00
      25     1     1     2     0     0  2.723572850E+01  6.738992853E+01  8.790866380E+01  1.692221042E+02  1.250000000E+02  0.00000E+00  9.000E+00
      21     1     1     2   502   511 -4.962348256E+01 -2.164839582E+01 -1.245618853E+02  1.358190205E+02  2.697398305E-06  0.00000E+00  9.000E+00
#rwgt            1           1   4.1993776320085420E-002           1      429854           0
</event>
<event>
      5   9999  3.79277E-02  6.47149E+01 -1.00000E+00  1.32971E-01
      21    -1     0     0   512   501  0.000000000E+00  0.000000000E+00  4.403211247E+02  4.403211247E+02  0.000000000E+00  0.00000E+00  9.000E+00
      21    -1     0     0   501   502  0.000000000E+00  0.000000000E+00 -1.100420255E+03  1.100420255E+03  0.000000000E+00  0.00000E+00  9.000E+00
      25     1     1     2     0     0  4.417876263E+01 -2.049862402E+02 -6.136080822E+02  6.603870079E+02  1.250000000E+02  0.00000E+00  9.000E+00
      25     1     1     2     0     0  2.592590227E+00  1.602597514E+02 -4.383525188E+02  4.831850993E+02  1.250000000E+02  0.00000E+00  9.000E+00
      21     1     1     2   512   502 -4.677135285E+01  4.472648875E+01  3.918614710E+02  3.971692721E+02  0.000000000E+00  0.00000E+00  9.000E+00
#rwgt            1           1  0.13214629594880692                1      429996           0
</event>
<event>
      5   9999  3.79277E-02  3.00415E+01 -1.00000E+00  1.52998E-01
      21    -1     0     0   502   501  0.000000000E+00  0.000000000E+00  1.082572183E+02  1.082572183E+02  0.000000000E+00  0.00000E+00  9.000E+00
      21    -1     0     0   511   502  0.000000000E+00  0.000000000E+00 -5.120182466E+02  5.120182466E+02  0.000000000E+00  0.00000E+00  9.000E+00
      25     1     1     2     0     0  2.794558646E+00 -1.628309631E+02 -2.988175089E+02  3.625446672E+02  1.250000000E+02  0.00000E+00  9.000E+00
      25     1     1     2     0     0  2.433894894E+01  1.499366829E+02 -6.383878896E+01  2.068182397E+02  1.250000000E+02  0.00000E+00  9.000E+00
      21     1     1     2   511   501 -2.713350759E+01  1.289428020E+01 -4.110473036E+01  5.091255792E+01  9.536743164E-07  0.00000E+00  9.000E+00
#rwgt            1           1   4.3006435119910411E-002           1      430079           0
</event>
<event>
      5   9999  3.79277E-02  8.27175E+00 -1.00000E+00  2.05792E-01
      21    -1     0     0   502   512  0.000000000E+00  0.000000000E+00  1.547627848E+02  1.547627848E+02  0.000000000E+00  0.00000E+00  9.000E+00
      21    -1     0     0   501   502  0.000000000E+00  0.000000000E+00 -5.003214942E+02  5.003214942E+02  0.000000000E+00  0.00000E+00  9.000E+00
      25     1     1     2     0     0 -7.858480378E+01 -1.647810903E+02 -2.347879099E+02  3.226123707E+02  1.250000000E+02  0.00000E+00  9.000E+00
      25     1     1     2     0     0  8.135226708E+01  1.725761486E+02 -1.625181510E+02  2.800676130E+02  1.250000000E+02  0.00000E+00  9.000E+00
      21     1     1     2   501   512 -2.767463303E+00 -7.795058382E+00  5.174735146E+01  5.240429535E+01  9.536743164E-07  0.00000E+00  9.000E+00
#rwgt            1           1   3.4996550090806239E-002           1      430335           0
</event>
<event>
      5   9999  3.79277E-02  2.37333E+02 -1.00000E+00  1.09007E-01
      21    -1     0     0   511   501  0.000000000E+00  0.000000000E+00  9.852462447E+02  9.852462447E+02  0.000000000E+00  0.00000E+00  9.000E+00
      21    -1     0     0   501   502  0.000000000E+00  0.000000000E+00 -4.626024689E+02  4.626024689E+02  0.000000000E+00  0.00000E+00  9.000E+00
      25     1     1     2     0     0 -2.788286543E+02 -9.433414167E+01 -3.633342212E+02  4.840259343E+02  1.250000000E+02  0.00000E+00  9.000E+00
      25     1     1     2     0     0  6.489909919E+01 -8.433509608E+00  2.964479262E+02  3.283129454E+02  1.250000000E+02  0.00000E+00  9.000E+00
      21     1     1     2   511   502  2.139295551E+02  1.027676513E+02  5.895300708E+02  6.355098340E+02  0.000000000E+00  0.00000E+00  9.000E+00
#rwgt            1           1   5.4322667617746762E-002           1      430654           0
</event>
<event>
      5   9999  3.79277E-02  3.67826E+01 -1.00000E+00  1.47135E-01
      21    -1     0     0   502   512  0.000000000E+00  0.000000000E+00  8.729664004E+01  8.729664004E+01  0.000000000E+00  0.00000E+00  9.000E+00
      21    -1     0     0   501   502  0.000000000E+00  0.000000000E+00 -3.145883049E+02  3.145883049E+02  0.000000000E+00  0.00000E+00  9.000E+00
      25     1     1     2     0     0 -3.510370280E+01 -1.248516768E+01 -1.500654254E+02  1.988285223E+02  1.250000000E+02  0.00000E+00  9.000E+00
      25     1     1     2     0     0  4.446032679E+01  4.805786631E+01 -8.599030145E+01  1.652440956E+02  1.250000000E+02  0.00000E+00  9.000E+00
      21     1     1     2   501   512 -9.356623994E+00 -3.557269863E+01  8.764061991E+00  3.781232713E+01  6.419616708E-07  0.00000E+00  9.000E+00
#rwgt            1           1   2.8395586842399751E-002           1      430777           0
</event>
<event>
      5   9999  3.79277E-02  1.85055E+02 -1.00000E+00  1.12890E-01
      21    -1     0     0   502   511  0.000000000E+00  0.000000000E+00  3.624605677E+02  3.624605677E+02  0.000000000E+00  0.00000E+00  9.000E+00
      21    -1     0     0   501   502  0.000000000E+00  0.000000000E+00 -3.799564397E+02  3.799564397E+02  0.000000000E+00  0.00000E+00  9.000E+00
      25     1     1     2     0     0 -3.346722926E+00 -4.692598275E+01  1.039840869E+02  1.692658818E+02  1.250000000E+02  0.00000E+00  9.000E+00
      25     1     1     2     0     0  1.830404707E+02  2.705880349E+00 -2.602414161E+02  3.418504502E+02  1.250000000E+02  0.00000E+00  9.000E+00
      21     1     1     2   501   511 -1.796937477E+02  4.422010240E+01  1.387614572E+02  2.313006754E+02  3.814697266E-06  0.00000E+00  9.000E+00
#rwgt            1           1   4.1349793454187600E-002           1      430980           0
</event>
<event>
      5   9999  3.79277E-02  2.14344E+01 -1.00000E+00  1.63925E-01
      21    -1     0     0   502   512  0.000000000E+00  0.000000000E+00  1.004653196E+03  1.004653196E+03  0.000000000E+00  0.00000E+00  9.000E+00
      21    -1     0     0   501   502  0.000000000E+00  0.000000000E+00 -2.214674055E+02  2.214674055E+02  0.000000000E+00  0.00000E+00  9.000E+00
      25     1     1     2     0     0  7.054489838E+01  1.104558710E+01 -1.642880376E+02  2.184356816E+02  1.250000000E+02  0.00000E+00  9.000E+00
      25     1     1     2     0     0 -7.255662458E+01 -3.238535048E+01  1.530960475E+02  2.130180144E+02  1.250000000E+02  0.00000E+00  9.000E+00
      21     1     1     2   501   512  2.011726205E+00  2.133976338E+01  7.943777805E+02  7.946669055E+02  1.525878906E-05  0.00000E+00  9.000E+00
#rwgt            1           1   3.5093037251944945E-002           1      431048           0
</event>
<event>
      5   9999  3.79277E-02  4.90975E+01 -1.00000E+00  1.39528E-01
      21    -1     0     0   502   501  0.000000000E+00  0.000000000E+00  7.394148749E+02  7.394148749E+02  0.000000000E+00  0.00000E+00  9.000E+00
       2    -1     0     0   501     0  0.000000000E+00  0.000000000E+00 -1.510311639E+03  1.510311639E+03  0.000000000E+00  0.00000E+00  9.000E+00
      25     1     1     2     0     0  2.283591159E+02  2.003792231E+02  2.365805288E+02  4.048395552E+02  1.250000000E+02  0.00000E+00  9.000E+00
      25     1     1     2     0     0 -2.127384311E+02 -1.538328944E+02  3.677324970E+02  4.688010119E+02  1.250000000E+02  0.00000E+00  9.000E+00
       2     1     1     2   502     0 -1.562068480E+01 -4.654632867E+01 -1.375209789E+03  1.376085946E+03  0.000000000E+00  0.00000E+00  9.000E+00
#rwgt            1           1   3.1146486318004714E-002           1      431176           0
</event>
<event>
      5   9999  3.79277E-02  2.39143E+01 -1.00000E+00  1.60209E-01
      21    -1     0     0   511   501  0.000000000E+00  0.000000000E+00  7.633320649E+02  7.633320649E+02  0.000000000E+00  0.00000E+00  9.000E+00
      21    -1     0     0   501   502  0.000000000E+00  0.000000000E+00 -8.726598961E+01  8.726598961E+01  0.000000000E+00  0.00000E+00  9.000E+00
      25     1     1     2     0     0  9.374260548E+01  3.844171040E+01  3.723582715E+01  1.651573432E+02  1.250000000E+02  0.00000E+00  9.000E+00
      25     1     1     2     0     0 -1.174957734E+02 -4.121346294E+01  3.175556475E+02  3.632772984E+02  1.250000000E+02  0.00000E+00  9.000E+00
      21     1     1     2   511   502  2.375316792E+01  2.771752541E+00  3.212746006E+02  3.221634129E+02  5.394796609E-06  0.00000E+00  9.000E+00
#rwgt            1           1   3.9318106483789937E-002           1      431323           0
</event>
<event>
      5   9999  3.79277E-02  6.67352E+01 -1.00000E+00  1.32280E-01
      21    -1     0     0   502   501  0.000000000E+00  0.000000000E+00  5.072687698E+02  5.072687698E+02  0.000000000E+00  0.00000E+00  9.000E+00
      21    -1     0     0   501   512  0.000000000E+00  0.000000000E+00 -1.901134006E+02  1.901134006E+02  0.000000000E+00  0.00000E+00  9.000E+00
      25     1     1     2     0     0 -4.248285097E+01 -5.956745422E+01  1.083395280E+02  1.808743419E+02  1.250000000E+02  0.00000E+00  9.000E+00
      25     1     1     2     0     0 -1.108673771E+01  9.936547685E+01  3.363908965E+02  3.725322120E+02  1.250000000E+02  0.00000E+00  9.000E+00
      21     1     1     2   502   512  5.356958868E+01 -3.979802263E+01 -1.275750552E+02  1.439756165E+02  1.348699152E-06  0.00000E+00  9.000E+00
#rwgt            1           1   3.0431887911113113E-002           1      431524           0
</event>
<event>
      5   9999  3.79277E-02  5.73144E+01 -1.00000E+00  1.35775E-01
      21    -1     0     0   502   511  0.000000000E+00  0.000000000E+00  2.542036222E+02  2.542036222E+02  0.000000000E+00  0.00000E+00  9.000E+00
      21    -1     0     0   501   502  0.000000000E+00  0.000000000E+00 -2.322963966E+02  2.322963966E+02  0.000000000E+00  0.00000E+00  9.000E+00
      25     1     1     2     0     0 -6.464746260E+01  1.026762837E+02 -1.378359150E+02  2.221383648E+02  1.250000000E+02  0.00000E+00  9.000E+00
      25     1     1     2     0     0  9.259698390E+00 -8.794063487E+01  1.214202162E+02  1.954153683E+02  1.250000000E+02  0.00000E+00  9.000E+00
      21     1     1     2   501   511  5.538776421E+01 -1.473564884E+01  3.832292437E+01  6.894628564E+01  1.066240300E-06  0.00000E+00  9.000E+00
#rwgt            1           1   3.8613604660426314E-002           1      431637           0
</event>
<event>
      5   9999  3.79277E-02  1.64555E+01 -1.00000E+00  1.73677E-01
      21    -1     0     0   512   501  0.000000000E+00  0.000000000E+00  6.325414917E+02  6.325414917E+02  0.000000000E+00  0.00000E+00  9.000E+00
      21    -1     0     0   501   502  0.000000000E+00  0.000000000E+00 -8.552645303E+01  8.552645303E+01  0.000000000E+00  0.00000E+00  9.000E+00
      25     1     1     2     0     0  5.767250803E+01  1.496376454E+02  2.787206570E+02  3.450039822E+02  1.250000000E+02  0.00000E+00  9.000E+00
      25     1     1     2     0     0 -4.323091125E+01 -1.417495118E+02  1.291543406E+02  2.329542433E+02  1.250000000E+02  0.00000E+00  9.000E+00
      21     1     1     2   512   502 -1.444159678E+01 -7.888133553E+00  1.391400411E+02  1.401097192E+02  3.814697266E-06  0.00000E+00  9.000E+00
#rwgt            1           1   3.1235955993432225E-002           1      431818           0
</event>
<event>
      5   9999  3.79277E-02  5.50119E+01 -1.00000E+00  1.36749E-01
      21    -1     0     0   502   501  0.000000000E+00  0.000000000E+00  4.338096071E+02  4.338096071E+02  0.000000000E+00  0.00000E+00  9.000E+00
      21    -1     0     0   501   511  0.000000000E+00  0.000000000E+00 -1.849536762E+02  1.849536762E+02  0.000000000E+00  0.00000E+00  9.000E+00
      25     1     1     2     0     0  3.038252991E+01  9.622230052E+01  9.940819842E+01  1.889148463E+02  1.250000000E+02  0.00000E+00  9.000E+00
      25     1     1     2     0     0 -2.457190898E+01 -4.151816087E+01  2.677374158E+02  2.993924852E+02  1.250000000E+02  0.00000E+00  9.000E+00
      21     1     1     2   502   511 -5.810620924E+00 -5.470413965E+01 -1.182896832E+02  1.304559518E+02  1.348699152E-06  0.00000E+00  9.000E+00
#rwgt            1           1   4.2892508834155463E-002           1      431958           0
</event>
<event>
      5   9999  3.79277E-02  3.17360E+01 -1.00000E+00  1.51362E-01
      21    -1     0     0   502   501  0.000000000E+00  0.000000000E+00  6.004670567E+02  6.004670567E+02  0.000000000E+00  0.00000E+00  9.000E+00
      21    -1     0     0   512   502  0.000000000E+00  0.000000000E+00 -1.471268579E+02  1.471268579E+02  0.000000000E+00  0.00000E+00  9.000E+00
      25     1     1     2     0     0 -8.137826752E+01  3.381172739E+01  6.990244449E+00  1.530997023E+02  1.250000000E+02  0.00000E+00  9.000E+00
      25     1     1     2     0     0  6.723928073E+01 -5.399359757E+00  5.067413310E+02  5.262718409E+02  1.250000000E+02  0.00000E+00  9.000E+00
      21     1     1     2   512   501  1.413898679E+01 -2.841236763E+01 -6.039137667E+01  6.822237139E+01  9.536743164E-07  0.00000E+00  9.000E+00
#rwgt            1           1   5.0225862914026420E-002           1      432024           0
</event>
<event>
      5   9999  3.79277E-02  2.34610E+01 -1.00000E+00  1.60846E-01
      21    -1     0     0   502   501  0.000000000E+00  0.000000000E+00  3.543519561E+02  3.543519561E+02  0.000000000E+00  0.00000E+00  9.000E+00
      21    -1     0     0   511   502  0.000000000E+00  0.000000000E+00 -1.650648260E+02  1.650648260E+02  0.000000000E+00  0.00000E+00  9.000E+00
      25     1     1     2     0     0 -9.749144705E+01  6.550226134E+01  2.145396795E+02  2.746769057E+02  1.250000000E+02  0.00000E+00  9.000E+00
      25     1     1     2     0     0  1.000172166E+02 -8.882690427E+01  2.924948090E+01  1.854027903E+02  1.250000000E+02  0.00000E+00  9.000E+00
      21     1     1     2   511   501 -2.525769526E+00  2.332464292E+01 -5.450203023E+01  5.933708603E+01  1.348699152E-06  0.00000E+00  9.000E+00
#rwgt            1           1   4.3389081028888075E-002           1      432148           0
</event>
<event>
      5   9999  3.79277E-02  2.89192E+01 -1.00000E+00  1.54155E-01
      21    -1     0     0   502   512  0.000000000E+00  0.000000000E+00  1.783877393E+02  1.783877393E+02  0.000000000E+00  0.00000E+00  9.000E+00
      21    -1     0     0   501   502  0.000000000E+00  0.000000000E+00 -7.512127835E+02  7.512127835E+02  0.000000000E+00  0.00000E+00  9.000E+00
      25     1     1     2     0     0  1.861342299E+02 -4.724356751E+01 -4.241290454E+02  4.820667520E+02  1.250000000E+02  0.00000E+00  9.000E+00
      25     1     1     2     0     0 -1.919833508E+02  1.892202186E+01 -2.515091520E+02  3.407308372E+02  1.250000000E+02  0.00000E+00  9.000E+00
      21     1     1     2   501   512  5.849120945E+00  2.832154565E+01  1.028131532E+02  1.068029337E+02  3.015782986E-06  0.00000E+00  9.000E+00
#rwgt            1           1   4.3609800251696217E-002           1      432279           0
</event>
<event>
      5   9999  3.79277E-02  1.07050E+01 -1.00000E+00  1.92398E-01
      21    -1     0     0   502   511  0.000000000E+00  0.000000000E+00  4.643864693E+02  4.643864693E+02  0.000000000E+00  0.00000E+00  9.000E+00
      21    -1     0     0   501   502  0.000000000E+00  0.000000000E+00 -7.435467715E+01  7.435467715E+01  0.000000000E+00  0.00000E+00  9.000E+00
      25     1     1     2     0     0  9.306962235E+01 -9.121193502E+01  1.910584525E+02  2.628876261E+02  1.250000000E+02  0.00000E+00  9.000E+00
      25     1     1     2     0     0 -8.256708201E+01  8.913988561E+01  1.642320278E+02  2.395003157E+02  1.250000000E+02  0.00000E+00  9.000E+00
      21     1     1     2   501   511 -1.050254034E+01  2.072049409E+00  3.474131189E+01  3.635320473E+01  0.000000000E+00  0.00000E+00  9.000E+00
#rwgt            1           1   1.8284532485937376E-002           1      432523           0
</event>
<event>
      5   9999  3.79277E-02  3.04532E+01 -1.00000E+00  1.52589E-01
      21    -1     0     0   502   501  0.000000000E+00  0.000000000E+00  1.961297160E+02  1.961297160E+02  0.000000000E+00  0.00000E+00  9.000E+00
      21    -1     0     0   501   512  0.000000000E+00  0.000000000E+00 -2.320761001E+02  2.320761001E+02  0.000000000E+00  0.00000E+00  9.000E+00
      25     1     1     2     0     0 -3.313314555E+01 -6.094296779E+00 -1.587717401E+02  2.048619321E+02  1.250000000E+02  0.00000E+00  9.000E+00
      25     1     1     2     0     0  5.061795076E+00  1.790105730E+01  1.398201603E+02  1.884694852E+02  1.250000000E+02  0.00000E+00  9.000E+00
      21     1     1     2   502   512  2.807135048E+01 -1.180676052E+01 -1.699480431E+01  3.487439871E+01  2.384185791E-07  0.00000E+00  9.000E+00
#rwgt            1           1   4.2455949374414326E-002           1      432804           0
</event>
<event>
      5   9999  3.79277E-02  8.01385E+01 -1.00000E+00  1.28313E-01
      21    -1     0     0   502   511  0.000000000E+00  0.000000000E+00  7.559226708E+02  7.559226708E+02  0.000000000E+00  0.00000E+00  9.000E+00
      21    -1     0     0   501   502  0.000000000E+00  0.000000000E+00 -7.341859817E+02  7.341859817E+02  0.000000000E+00  0.00000E+00  9.000E+00
      25     1     1     2     0     0  3.355243560E+02  2.178175211E+01 -4.019324702E+02  5.387260424E+02  1.250000000E+02  0.00000E+00  9.000E+00
      25     1     1     2     0     0 -3.767643984E+02  4.693094587E+01 -1.077207061E+02  4.139839080E+02  1.250000000E+02  0.00000E+00  9.000E+00
      21     1     1     2   501   511  4.124004240E+01 -6.871269798E+01  5.313898654E+02  5.373987021E+02  7.629394531E-06  0.00000E+00  9.000E+00
#rwgt            1           1   3.9659013520402922E-002           1      432894           0
</event>
<event>
      5   9999  3.79277E-02  3.07345E+01 -1.00000E+00  1.52314E-01
      21    -1     0     0   512   501  0.000000000E+00  0.000000000E+00  7.000953480E+01  7.000953480E+01  0.000000000E+00  0.00000E+00  9.000E+00
      21    -1     0     0   501   502  0.000000000E+00  0.000000000E+00 -7.090494112E+02  7.090494112E+02  0.000000000E+00  0.00000E+00  9.000E+00
      25     1     1     2     0     0  4.813156137E+01  1.271919880E+02 -2.242188495E+02  2.905056651E+02  1.250000000E+02  0.00000E+00  9.000E+00
      25     1     1     2     0     0 -3.865372282E+01 -9.795538936E+01 -4.256616820E+02  4.559629767E+02  1.250000000E+02  0.00000E+00  9.000E+00
      21     1     1     2   512   502 -9.477838541E+00 -2.923659866E+01  1.084065505E+01  3.259030418E+01  8.344650269E-07  0.00000E+00  9.000E+00
#rwgt            1           1   3.5782667623526616E-002           1      433054           0
</event>
<event>
      5   9999  3.79277E-02  4.60880E+01 -1.00000E+00  1.41125E-01
      -2    -1     0     0     0   501  0.000000000E+00  0.000000000E+00  6.950755171E+02  6.950755171E+02  0.000000000E+00  0.00000E+00  9.000E+00
      21    -1     0     0   501   502  0.000000000E+00  0.000000000E+00 -7.860296254E+01  7.860296254E+01  0.000000000E+00  0.00000E+00  9.000E+00
      25     1     1     2     0     0  9.945741186E+01 -4.921124635E+01  1.084042110E+02  1.992234838E+02  1.250000000E+02  0.00000E+00  9.000E+00
      25     1     1     2     0     0 -1.234530949E+02  8.855983164E+01  2.827092208E+02  3.444314357E+02  1.250000000E+02  0.00000E+00  9.000E+00
      -2     1     1     2     0   502  2.399568301E+01 -3.934858529E+01  2.253591228E+02  2.300235601E+02  2.697398305E-06  0.00000E+00  9.000E+00
#rwgt            1           1   4.0094113964408575E-002           1      433195           0
</event>
<event>
      5   9999  3.79277E-02  3.21901E+02 -1.00000E+00  1.04607E-01
      21    -1     0     0   502   501  0.000000000E+00  0.000000000E+00  4.383182268E+02  4.383182268E+02  0.000000000E+00  0.00000E+00  9.000E+00
      21    -1     0     0   501   511  0.000000000E+00  0.000000000E+00 -5.592281070E+02  5.592281070E+02  0.000000000E+00  0.00000E+00  9.000E+00
      25     1     1     2     0     0 -1.961506872E+00 -2.499288149E+02 -1.975658673E+02  3.422360763E+02  1.250000000E+02  0.00000E+00  9.000E+00
      25     1     1     2     0     0 -2.517991762E+02  5.187344256E+01  1.533493129E+02  3.243989688E+02  1.250000000E+02  0.00000E+00  9.000E+00
      21     1     1     2   502   511  2.537606831E+02  1.980553723E+02 -7.669332576E+01  3.309112887E+02  3.015782986E-06  0.00000E+00  9.000E+00
#rwgt            1           1   3.4637533281693632E-002           1      433361           0
</event>
<event>
      5   9999  3.79277E-02  4.79792E+01 -1.00000E+00  1.40106E-01
      21    -1     0     0   502   501  0.000000000E+00  0.000000000E+00  2.637380146E+02  2.637380146E+02  0.000000000E+00  0.00000E+00  9.000E+00
      21    -1     0     0   501   512  0.000000000E+00  0.000000000E+00 -4.854512117E+02  4.854512117E+02  0.000000000E+00  0.00000E+00  9.000E+00
      25     1     1     2     0     0 -9.214388386E+01  4.127450230E+00 -3.681008684E+02  3.995382091E+02  1.250000000E+02  0.00000E+00  9.000E+00
      25     1     1     2     0     0  7.963848462E+01  4.219338987E+01  2.158589930E+02  2.652219358E+02  1.250000000E+02  0.00000E+00  9.000E+00
      21     1     1     2   502   512  1.250539924E+01 -4.632084010E+01 -6.947132174E+01  8.442908138E+01  9.536743164E-07  0.00000E+00  9.000E+00
#rwgt            1           1   4.1768283756271625E-002           1      433521           0
</event>
<event>
      5   9999  3.79277E-02  2.77227E+01 -1.00000E+00  1.55460E-01
      21    -1     0     0   511   501  0.000000000E+00  0.000000000E+00  1.163336303E+03  1.163336303E+03  0.000000000E+00  0.00000E+00  9.000E+00
      21    -1     0     0   501   502  0.000000000E+00  0.000000000E+00 -3.484175598E+01  3.484175598E+01  0.000000000E+00  0.00000E+00  9.000E+00
      25     1     1     2     0     0  6.076089293E+01 -3.126276815E+01  1.546155803E+02  2.102384943E+02  1.250000000E+02  0.00000E+00  9.000E+00
      25     1     1     2     0     0 -5.747763833E+01  3.735191537E+00  8.424560931E+02  8.536245658E+02  1.250000000E+02  0.00000E+00  9.000E+00
      21     1     1     2   511   502 -3.283254597E+00  2.752757661E+01  1.314228739E+02  1.343149993E+02  2.697398305E-06  0.00000E+00  9.000E+00
#rwgt            1           1   4.9158372328171017E-002           1      433660           0
</event>
<event>
      5   9999  3.79277E-02  1.12582E+01 -1.00000E+00  1.89989E-01
      21    -1     0     0   502   501  0.000000000E+00  0.000000000E+00  3.646954947E+02  3.646954947E+02  0.000000000E+00  0.00000E+00  9.000E+00
      21    -1     0     0   501   512  0.000000000E+00  0.000000000E+00 -1.765273386E+03  1.765273386E+03  0.000000000E+00  0.00000E+00  9.000E+00
      25     1     1     2     0     0  1.772525819E+02  7.139202481E+01  2.883206419E+01  2.301555711E+02  1.250000000E+02  0.00000E+00  9.000E+00
      25     1     1     2     0     0 -1.722679059E+02 -6.129741340E+01  1.830324150E+02  2.873316364E+02  1.250000000E+02  0.00000E+00  9.000E+00
      21     1     1     2   502   512 -4.984675943E+00 -1.009461141E+01 -1.612442371E+03  1.612481673E+03  2.157918644E-05  0.00000E+00  9.000E+00
#rwgt            1           1   3.3439647529039385E-002           1      433762           0
</event>
<event>
      5   9999  3.79277E-02  1.08323E+02 -1.00000E+00  1.22286E-01
      21    -1     0     0   502   501  0.000000000E+00  0.000000000E+00  2.085775127E+02  2.085775127E+02  0.000000000E+00  0.00000E+00  9.000E+00
       1    -1     0     0   501     0  0.000000000E+00  0.000000000E+00 -3.309350874E+03  3.309350874E+03  0.000000000E+00  0.00000E+00  9.000E+00
      25     1     1     2     0     0  7.171690194E+00  1.164539056E+02 -2.193090119E+02  2.780906111E+02  1.250000000E+02  0.00000E+00  9.000E+00
      25     1     1     2     0     0 -9.429172534E+01 -5.207945018E+01  1.400206762E+02  2.164116179E+02  1.250000000E+02  0.00000E+00  9.000E+00
       1     1     1     2   502     0  8.712003515E+01 -6.437445541E+01 -3.021485026E+03  3.023426158E+03  6.103515625E-05  0.00000E+00  9.000E+00
#rwgt            1           1   3.6113459743514466E-002           1      434101           0
</event>
<event>
      5   9999  3.79277E-02  3.05543E+01 -1.00000E+00  1.52490E-01
       1    -1     0     0   502     0  0.000000000E+00  0.000000000E+00  4.994222475E+02  4.994222475E+02  0.000000000E+00  0.00000E+00  9.000E+00
      21    -1     0     0   501   502  0.000000000E+00  0.000000000E+00 -1.807428271E+02  1.807428271E+02  0.000000000E+00  0.00000E+00  9.000E+00
      25     1     1     2     0     0 -3.917551088E+01  1.163730907E+02  1.556783377E+02  2.343889113E+02  1.250000000E+02  0.00000E+00  9.000E+00
      25     1     1     2     0     0  1.886900378E+01 -9.354304833E+01 -9.648248703E+01  1.844998957E+02  1.250000000E+02  0.00000E+00  9.000E+00
       1     1     1     2   501     0  2.030650710E+01 -2.283004234E+01  2.594835697E+02  2.612762676E+02  0.000000000E+00  0.00000E+00  9.000E+00
#rwgt            1           1   5.0115345273991432E-002           1      434163           0
</event>
<event>
      5   9999  3.79277E-02  6.39203E+01 -1.00000E+00  1.33251E-01
      21    -1     0     0   502   501  0.000000000E+00  0.000000000E+00  1.074390926E+02  1.074390926E+02  0.000000000E+00  0.00000E+00  9.000E+00
       2    -1     0     0   501     0  0.000000000E+00  0.000000000E+00 -7.669248099E+02  7.669248099E+02  0.000000000E+00  0.00000E+00  9.000E+00
      25     1     1     2     0     0  9.161018240E+01 -7.691808524E+01 -3.939460854E+02  4.302642625E+02  1.250000000E+02  0.00000E+00  9.000E+00
      25     1     1     2     0     0 -9.324763103E+01  1.408174170E+02 -4.553259805E+01  2.149950770E+02  1.250000000E+02  0.00000E+00  9.000E+00
       2     1     1     2   502     0  1.637448633E+00 -6.389933179E+01 -2.200070339E+02  2.291045630E+02  0.000000000E+00  0.00000E+00  9.000E+00
#rwgt            1           1   3.5590831379242481E-002           1      434286           0
</event>
<event>
      5   9999  3.79277E-02  1.22441E+02 -1.00000E+00  1.19998E-01
      21    -1     0     0   502   501  0.000000000E+00  0.000000000E+00  6.660335085E+02  6.660335085E+02  0.000000000E+00  0.00000E+00  9.000E+00
      21    -1     0     0   501   511  0.000000000E+00  0.000000000E+00 -1.457451943E+02  1.457451943E+02  0.000000000E+00  0.00000E+00  9.000E+00
      25     1     1     2     0     0 -9.501935810E+01  7.353460597E+01  2.899347316E+02  3.378212031E+02  1.250000000E+02  0.00000E+00  9.000E+00
      25     1     1     2     0     0  2.038876551E+02 -1.295649358E+02  2.222463833E+02  3.512487770E+02  1.250000000E+02  0.00000E+00  9.000E+00
      21     1     1     2   502   511 -1.088682970E+02  5.603032980E+01  8.107199284E+00  1.227087227E+02  1.984037993E-06  0.00000E+00  9.000E+00
#rwgt            1           1   4.6303216532416154E-002           1      434438           0
</event>
<event>
      5   9999  3.79277E-02  4.90969E+01 -1.00000E+00  1.39529E-01
      21    -1     0     0   502   501  0.000000000E+00  0.000000000E+00  6.194514844E+02  6.194514844E+02  0.000000000E+00  0.00000E+00  9.000E+00
      21    -1     0     0   512   502  0.000000000E+00  0.000000000E+00 -1.649506714E+02  1.649506714E+02  0.000000000E+00  0.00000E+00  9.000E+00
      25     1     1     2     0     0 -1.833552521E+02 -4.308626217E+01  4.468621333E+02  5.007857232E+02  1.250000000E+02  0.00000E+00  9.000E+00
      25     1     1     2     0     0  1.869896699E+02 -5.875968609E+00  3.453625830E+01  2.276343928E+02  1.250000000E+02  0.00000E+00  9.000E+00
      21     1     1     2   512   501 -3.634417832E+00  4.896223077E+01 -2.689757861E+01  5.598203971E+01  1.507891493E-06  0.00000E+00  9.000E+00
#rwgt            1           1   3.8319983748169591E-002           1      434725           0
</event>
<event>
      5   9999  3.79277E-02  4.06250E+01 -1.00000E+00  1.44424E-01
      21    -1     0     0   502   501  0.000000000E+00  0.000000000E+00  6.680192808E+02  6.680192808E+02  0.000000000E+00  0.00000E+00  9.000E+00
       1    -1     0     0   501     0  0.000000000E+00  0.000000000E+00 -8.981143096E+01  8.981143096E+01  0.000000000E+00  0.00000E+00  9.000E+00
      25     1     1     2     0     0  1.367604873E+02  4.782612950E+01  3.247914748E+02  3.769685287E+02  1.250000000E+02  0.00000E+00  9.000E+00
      25     1     1     2     0     0 -1.207937092E+02 -1.047039122E+01  2.818268353E+02  3.312885666E+02  1.250000000E+02  0.00000E+00  9.000E+00
       1     1     1     2   502     0 -1.596677808E+01 -3.735573828E+01 -2.841046030E+01  4.957361636E+01  1.545128989E-06  0.00000E+00  9.000E+00
#rwgt            1           1   3.0078972292620541E-002           1      434843           0
</event>
<event>
      5   9999  3.79277E-02  3.75301E+01 -1.00000E+00  1.46578E-01
      21    -1     0     0   502   511  0.000000000E+00  0.000000000E+00  1.108347588E+03  1.108347588E+03  0.000000000E+00  0.00000E+00  9.000E+00
      21    -1     0     0   501   502  0.000000000E+00  0.000000000E+00 -6.488802389E+01  6.488802389E+01  0.000000000E+00  0.00000E+00  9.000E+00
      25     1     1     2     0     0 -3.188988475E+01  2.124415747E+02  5.053642164E+02  5.631752646E+02  1.250000000E+02  0.00000E+00  9.000E+00
      25     1     1     2     0     0  7.988162160E-01 -1.914212562E+02  3.485767755E+02  4.168614924E+02  1.250000000E+02  0.00000E+00  9.000E+00
      21     1     1     2   501   511  3.109106853E+01 -2.102031851E+01  1.895185718E+02  1.931988545E+02  5.394796609E-06  0.00000E+00  9.000E+00
#rwgt            1           1   3.7045237940655625E-002           1      434935           0
</event>
<event>
      5   9999  3.79277E-02  3.20182E+01 -1.00000E+00  1.51102E-01
      21    -1     0     0   512   501  0.000000000E+00  0.000000000E+00  1.056823075E+02  1.056823075E+02  0.000000000E+00  0.00000E+00  9.000E+00
      21    -1     0     0   501   502  0.000000000E+00  0.000000000E+00 -1.066112815E+03  1.066112815E+03  0.000000000E+00  0.00000E+00  9.000E+00
      25     1     1     2     0     0  1.708580991E+02 -2.335928317E+02 -6.229223537E+02  6.981513874E+02  1.250000000E+02  0.00000E+00  9.000E+00
      25     1     1     2     0     0 -1.646518510E+02  2.021819000E+02 -3.334595162E+02  4.413705944E+02  1.250000000E+02  0.00000E+00  9.000E+00
      21     1     1     2   512   502 -6.206248169E+00  3.141093171E+01 -4.048637666E+00  3.227314076E+01  3.318646170E-07  0.00000E+00  9.000E+00
#rwgt            1           1   2.8687689283709739E-002           1      435191           0
</event>
<event>
      5   9999  3.79277E-02  2.52610E+01 -1.00000E+00  1.58414E-01
      21    -1     0     0   502   501  0.000000000E+00  0.000000000E+00  4.756851506E+02  4.756851506E+02  0.000000000E+00  0.00000E+00  9.000E+00
       2    -1     0     0   501     0  0.000000000E+00  0.000000000E+00 -1.778136307E+03  1.778136307E+03  0.000000000E+00  0.00000E+00  9.000E+00
      25     1     1     2     0     0 -9.142440385E+01  2.741062476E+02 -6.525291028E+01  3.215207596E+02  1.250000000E+02  0.00000E+00  9.000E+00
      25     1     1     2     0     0  1.118900459E+02 -2.592982336E+02  2.788166658E+02  4.160753411E+02  1.250000000E+02  0.00000E+00  9.000E+00
       2     1     1     2   502     0 -2.046564202E+01 -1.480801397E+01 -1.516014912E+03  1.516225357E+03  2.157918644E-05  0.00000E+00  9.000E+00
#rwgt            1           1   3.6772680330576700E-002           1      435309           0
</event>
<event>
      5   9999  3.79277E-02  5.21605E+01 -1.00000E+00  1.38035E-01
      21    -1     0     0   511   501  0.000000000E+00  0.000000000E+00  1.799787120E+02  1.799787120E+02  0.000000000E+00  0.00000E+00  9.000E+00
      21    -1     0     0   501   502  0.000000000E+00  0.000000000E+00 -6.158976607E+02  6.158976607E+02  0.000000000E+00  0.00000E+00  9.000E+00
      25     1     1     2     0     0 -5.786977775E+01 -6.309037364E+01 -2.875223084E+02  3.249975142E+02  1.250000000E+02  0.00000E+00  9.000E+00
      25     1     1     2     0     0  7.738560677E+01  1.114623907E+02 -2.765929889E+02  3.324771844E+02  1.250000000E+02  0.00000E+00  9.000E+00
      21     1     1     2   511   502 -1.951582901E+01 -4.837201701E+01  1.281963486E+02  1.384016741E+02  0.000000000E+00  0.00000E+00  9.000E+00
#rwgt            1           1   3.6981233935595950E-002           1      435478           0
</event>
<event>
      5   9999  3.79277E-02  1.61252E+02 -1.00000E+00  1.15162E-01
      21    -1     0     0   502   501  0.000000000E+00  0.000000000E+00  7.877106539E+02  7.877106539E+02  0.000000000E+00  0.00000E+00  9.000E+00
      21    -1     0     0   512   502  0.000000000E+00  0.000000000E+00 -2.417511461E+02  2.417511461E+02  0.000000000E+00  0.00000E+00  9.000E+00
      25     1     1     2     0     0 -1.227888958E+01  2.835569601E+02  5.351521223E+02  6.185209090E+02  1.250000000E+02  0.00000E+00  9.000E+00
      25     1     1     2     0     0  1.294020175E+02 -1.727213988E+02  1.183714217E+01  2.496851651E+02  1.250000000E+02  0.00000E+00  9.000E+00
      21     1     1     2   512   501 -1.171231280E+02 -1.108355613E+02 -1.029756745E+00  1.612557260E+02  3.468931438E-06  0.00000E+00  9.000E+00
#rwgt            1           1   3.5496674144797333E-002           1      435614           0
</event>
<event>
      5   9999  3.79277E-02  4.93800E+01 -1.00000E+00  1.39385E-01
      21    -1     0     0   502   511  0.000000000E+00  0.000000000E+00  1.177863266E+02  1.177863266E+02  0.000000000E+00  0.00000E+00  9.000E+00
      21    -1     0     0   501   502  0.000000000E+00  0.000000000E+00 -5.739119960E+02  5.739119960E+02  0.000000000E+00  0.00000E+00  9.000E+00
      25     1     1     2     0     0  7.503676560E+01  3.735558488E+01 -9.474897649E+01  1.778435393E+02  1.250000000E+02  0.00000E+00  9.000E+00
      25     1     1     2     0     0 -7.116031214E+01 -8.658317232E+01 -4.109277814E+02  4.438998505E+02  1.250000000E+02  0.00000E+00  9.000E+00
      21     1     1     2   501   511 -3.876453464E+00  4.922758744E+01  4.955108852E+01  6.995493285E+01  0.000000000E+00  0.00000E+00  9.000E+00
#rwgt            1           1   3.6564786261691525E-002           1      435865           0
</event>
<event>
      5   9999  3.79277E-02  3.86943E+01 -1.00000E+00  1.45740E-01
      21    -1     0     0   502   512  0.000000000E+00  0.000000000E+00  1.792449084E+02  1.792449084E+02  0.000000000E+00  0.00000E+00  9.000E+00
      21    -1     0     0   501   502  0.000000000E+00  0.000000000E+00 -3.068455987E+02  3.068455987E+02  0.000000000E+00  0.00000E+00  9.000E+00
      25     1     1     2     0     0 -1.357449966E+02  5.938439478E+01 -1.750131150E+02  2.611662323E+02  1.250000000E+02  0.00000E+00  9.000E+00
      25     1     1     2     0     0  1.030535817E+02 -8.008513715E+01  4.453146815E+01  1.861228668E+02  1.250000000E+02  0.00000E+00  9.000E+00
      21     1     1     2   501   512  3.269141494E+01  2.070074238E+01  2.880956601E+00  3.880140792E+01  4.933162140E-07  0.00000E+00  9.000E+00
#rwgt            1           1   2.5725550429888434E-002           1      436009           0
</event>
<event>
      5   9999  4.48571E-02  5.43532E+01 -1.00000E+00  1.37038E-01
      21    -1     0     0   502   511  0.000000000E+00  0.000000000E+00  1.335715369E+03  1.335715369E+03  0.000000000E+00  0.00000E+00  9.000E+00
      21    -1     0     0   501   502  0.000000000E+00  0.000000000E+00 -1.102180571E+03  1.102180571E+03  0.000000000E+00  0.00000E+00  9.000E+00
      25     1     1     2     0     0 -7.272690165E+01  4.160623961E+02 -2.382395904E+02  5.007796143E+02  1.250000000E+02  0.00000E+00  9.000E+00
      25     1     1     2     0     0  3.325975989E+01 -3.786910156E+02 -6.773387618E+02  7.867184345E+02  1.250000000E+02  0.00000E+00  9.000E+00
      21     1     1     2   501   511  3.946714176E+01 -3.737138053E+01  1.149113150E+03  1.150397891E+03  1.525878906E-05  0.00000E+00  9.000E+00
#rwgt            1           1  0.48596538364339548                1      436148           0
</event>
<event>
      5   9999  3.79277E-02  4.49429E+01 -1.00000E+00  1.41770E-01
      21    -1     0     0   502   501  0.000000000E+00  0.000000000E+00  1.314755354E+02  1.314755354E+02  0.000000000E+00  0.00000E+00  9.000E+00
      21    -1     0     0   501   512  0.000000000E+00  0.000000000E+00 -1.820023858E+03  1.820023858E+03  0.000000000E+00  0.00000E+00  9.000E+00
      25     1     1     2     0     0  3.658313300E+02 -1.346359781E+02 -4.661053307E+02  6.203535991E+02  1.250000000E+02  0.00000E+00  9.000E+00
      25     1     1     2     0     0 -3.870858166E+02  9.503656170E+01 -7.659997107E+02  8.724952345E+02  1.250000000E+02  0.00000E+00  9.000E+00
      21     1     1     2   502   512  2.125448657E+01  3.959941641E+01 -4.564432816E+02  4.586505601E+02  7.629394531E-06  0.00000E+00  9.000E+00
#rwgt            1           1   4.4627841010726768E-002           1      436282           0
</event>
<event>
      5   9999  3.79277E-02  2.20438E+01 -1.00000E+00  1.62956E-01
      21    -1     0     0   511   501  0.000000000E+00  0.000000000E+00  5.078708927E+02  5.078708927E+02  0.000000000E+00  0.00000E+00  9.000E+00
      21    -1     0     0   501   502  0.000000000E+00  0.000000000E+00 -1.262126903E+03  1.262126903E+03  0.000000000E+00  0.00000E+00  9.000E+00
      25     1     1     2     0     0 -2.067061056E+01 -2.163160602E+02 -6.228174973E+02  6.713766059E+02  1.250000000E+02  0.00000E+00  9.000E+00
      25     1     1     2     0     0  4.271420426E+01  2.162273146E+02 -5.886552128E+02  6.408733997E+02  1.250000000E+02  0.00000E+00  9.000E+00
      21     1     1     2   511   502 -2.204359370E+01  8.874559748E-02  4.572167003E+02  4.577477896E+02  5.394796609E-06  0.00000E+00  9.000E+00
#rwgt            1           1   3.5002641375131954E-002           1      436490           0
</event>
<event>
      5   9999  3.79277E-02  5.34706E+01 -1.00000E+00  1.37433E-01
      21    -1     0     0   502   501  0.000000000E+00  0.000000000E+00  4.386492551E+02  4.386492551E+02  0.000000000E+00  0.00000E+00  9.000E+00
      21    -1     0     0   501   512  0.000000000E+00  0.000000000E+00 -9.523312197E+01  9.523312197E+01  0.000000000E+00  0.00000E+00  9.000E+00
      25     1     1     2     0     0 -2.147373456E+01 -1.802247368E+00 -6.029965618E+00  1.269871248E+02  1.250000000E+02  0.00000E+00  9.000E+00
      25     1     1     2     0     0 -2.265593215E+01  3.199619856E+01  3.201697456E+02  3.459345516E+02  1.250000000E+02  0.00000E+00  9.000E+00
      21     1     1     2   502   512  4.412966672E+01 -3.019395119E+01  2.927635307E+01  6.096070064E+01  4.768371582E-07  0.00000E+00  9.000E+00
#rwgt            1           1   5.3855887662052800E-002           1      436662           0
</event>
<event>
      5   9999  3.79277E-02  9.29868E+00 -1.00000E+00  1.99480E-01
      21    -1     0     0   502   501  0.000000000E+00  0.000000000E+00  4.359168715E+02  4.359168715E+02  0.000000000E+00  0.00000E+00  9.000E+00
      21    -1     0     0   511   502  0.000000000E+00  0.000000000E+00 -1.224312314E+02  1.224312314E+02  0.000000000E+00  0.00000E+00  9.000E+00
      25     1     1     2     0     0 -9.732551384E+01  1.318970148E+02  6.845990205E+01  2.172115014E+02  1.250000000E+02  0.00000E+00  9.000E+00
      25     1     1     2     0     0  9.366000560E+01 -1.404427446E+02  2.530387836E+02  3.288616535E+02  1.250000000E+02  0.00000E+00  9.000E+00
      21     1     1     2   511   501  3.665508241E+00  8.545729769E+00 -8.013045610E+00  1.227494798E+01  0.000000000E+00  0.00000E+00  9.000E+00
#rwgt            1           1   3.1916139986164431E-002           1      436746           0
</event>
<event>
      5   9999  3.79277E-02  6.63692E+01 -1.00000E+00  1.32403E-01
      21    -1     0     0   502   501  0.000000000E+00  0.000000000E+00  1.993839903E+01  1.993839903E+01  0.000000000E+00  0.00000E+00  9.000E+00
       2    -1     0     0   501     0  0.000000000E+00  0.000000000E+00 -1.808266808E+03  1.808266808E+03  0.000000000E+00  0.00000E+00  9.000E+00
      25     1     1     2     0     0  1.323703937E+01 -3.152153154E+01 -3.221608920E+02  3.472484219E+02  1.250000000E+02  0.00000E+00  9.000E+00
      25     1     1     2     0     0 -4.032875378E+01 -2.906649359E+01 -1.153850004E+03  1.161665227E+03  1.250000000E+02  0.00000E+00  9.000E+00
       2     1     1     2   502     0  2.709171441E+01  6.058802513E+01 -3.123175135E+02  3.192915580E+02  5.394796609E-06  0.00000E+00  9.000E+00
#rwgt            1           1   3.8058896207654583E-002           1      437010           0
</event>
<event>
      5   9999  3.79277E-02  1.02127E+02 -1.00000E+00  1.23418E-01
       2    -1     0     0   502     0  0.000000000E+00  0.000000000E+00  2.008452547E+03  2.008452547E+03  0.000000000E+00  0.00000E+00  9.000E+00
      21    -1     0     0   501   502  0.000000000E+00  0.000000000E+00 -5.226562656E+02  5.226562656E+02  0.000000000E+00  0.00000E+00  9.000E+00
      25     1     1     2     0     0  3.225843954E-01 -8.446607204E+01  5.869555245E+01  1.618789340E+02  1.250000000E+02  0.00000E+00  9.000E+00
      25     1     1     2     0     0  1.016255600E+02  9.050374256E+01 -4.515036178E+02  4.878516155E+02  1.250000000E+02  0.00000E+00  9.000E+00
       2     1     1     2   501     0 -1.019481444E+02 -6.037670526E+00  1.878604347E+03  1.881378263E+03  2.157918644E-05  0.00000E+00  9.000E+00
#rwgt            1           1   3.8061597623474587E-002           1      437195           0
</event>
<event>
      5   9999  3.79277E-02  1.03382E+02 -1.00000E+00  1.23182E-01
      21    -1     0     0   511   501  0.000000000E+00  0.000000000E+00  1.444849048E+02  1.444849048E+02  0.000000000E+00  0.00000E+00  9.000E+00
      21    -1     0     0   501   502  0.000000000E+00  0.000000000E+00 -6.352866510E+02  6.352866510E+02  0.000000000E+00  0.00000E+00  9.000E+00
      25     1     1     2     0     0 -1.612827787E+02 -1.301743262E+02 -2.457684223E+02  3.449414549E+02  1.250000000E+02  0.00000E+00  9.000E+00
      25     1     1     2     0     0  2.181088730E+02  4.381043667E+01 -1.622988946E+02  3.024181972E+02  1.250000000E+02  0.00000E+00  9.000E+00
      21     1     1     2   511   502 -5.682609424E+01  8.636388957E+01 -8.273442939E+01  1.324119036E+02  1.348699152E-06  0.00000E+00  9.000E+00
#rwgt            1           1  0.18768068164730578                1      437259           0
</event>
<event>
      5   9999  3.79277E-02  4.12301E+01 -1.00000E+00  1.44029E-01
      21    -1     0     0   502   501  0.000000000E+00  0.000000000E+00  8.265154264E+02  8.265154264E+02  0.000000000E+00  0.00000E+00  9.000E+00
      21    -1     0     0   512   502  0.000000000E+00  0.000000000E+00 -1.046986417E+02  1.046986417E+02  0.000000000E+00  0.00000E+00  9.000E+00
      25     1     1     2     0     0  1.687141474E+01  1.520569192E+01  7.137023378E+02  7.249219852E+02  1.250000000E+02  0.00000E+00  9.000E+00
      25     1     1     2     0     0  8.681692524E+00  1.715103583E+01  6.003237517E+01  1.399943423E+02  1.250000000E+02  0.00000E+00  9.000E+00
      21     1     1     2   512   501 -2.555310727E+01 -3.235672775E+01 -5.191792833E+01  6.629774056E+01  1.348699152E-06  0.00000E+00  9.000E+00
#rwgt            1           1   4.5208663574566689E-002           1      437337           0
</event>
<event>
      5   9999  3.79277E-02  5.09396E+01 -1.00000E+00  1.38616E-01
      21    -1     0     0   502   501  0.000000000E+00  0.000000000E+00  1.984830415E+03  1.984830415E+03  0.000000000E+00  0.00000E+00  9.000E+00
      21    -1     0     0   511   502  0.000000000E+00  0.000000000E+00 -3.880138204E+01  3.880138204E+01  0.000000000E+00  0.00000E+00  9.000E+00
      25     1     1     2     0     0 -1.499502575E+00  1.468868236E+02  3.243017909E+02  3.773256406E+02  1.250000000E+02  0.00000E+00  9.000E+00
      25     1     1     2     0     0 -4.547414773E+01 -1.271809553E+02  1.532914218E+03  1.543921596E+03  1.250000000E+02  0.00000E+00  9.000E+00
      21     1     1     2   511   501  4.697365031E+01 -1.970586833E+01  8.881302402E+01  1.023845609E+02  1.348699152E-06  0.00000E+00  9.000E+00
#rwgt            1           1   3.8076813006307560E-002           1      437453           0
</event>
<event>
      5   9999  3.79277E-02  9.09842E+01 -1.00000E+00  1.25702E-01
      21    -1     0     0   502   512  0.000000000E+00  0.000000000E+00  1.647220411E+01  1.647220411E+01  0.000000000E+00  0.00000E+00  9.000E+00
      21    -1     0     0   501   502  0.000000000E+00  0.000000000E+00 -3.913176113E+03  3.913176113E+03  0.000000000E+00  0.00000E+00  9.000E+00
      25     1     1     2     0     0  8.448864439E+01  9.644787004E+00 -1.589123243E+03  1.596298542E+03  1.250000000E+02  0.00000E+00  9.000E+00
      25     1     1     2     0     0 -1.729422781E+02 -3.095372101E+01 -2.025837213E+03  2.037279700E+03  1.250000000E+02  0.00000E+00  9.000E+00
      21     1     1     2   501   512  8.845363371E+01  2.130893401E+01 -2.817434526E+02  2.960700746E+02  3.814697266E-06  0.00000E+00  9.000E+00
#rwgt            1           1   1.9756144093758983E-002           1      437610           0
</event>
<event>
      5   9999  3.79277E-02  2.52488E+01 -1.00000E+00  1.58429E-01
      21    -1     0     0   502   501  0.000000000E+00  0.000000000E+00  3.831619516E+02  3.831619516E+02  0.000000000E+00  0.00000E+00  9.000E+00
      21    -1     0     0   511   502  0.000000000E+00  0.000000000E+00 -1.612847034E+02  1.612847034E+02  0.000000000E+00  0.00000E+00  9.000E+00
      25     1     1     2     0     0  9.370028931E+01  8.930733044E+01  2.609706691E+02  3.169956366E+02  1.250000000E+02  0.00000E+00  9.000E+00
      25     1     1     2     0     0 -1.088452424E+02 -1.095096257E+02 -3.738724185E+01  2.021446283E+02  1.250000000E+02  0.00000E+00  9.000E+00
      21     1     1     2   511   501  1.514495304E+01  2.020229524E+01 -1.706179021E+00  2.530639015E+01  3.804905812E-07  0.00000E+00  9.000E+00
#rwgt            1           1   5.0970756071108146E-002           1      437701           0
</event>
<event>
      5   9999  3.79277E-02  5.19664E+01  7.55638E-03  1.38126E-01
       3    -1     0     0   501     0  0.000000000E+00  0.000000000E+00  1.198361895E+03  1.198361895E+03  0.000000000E+00  0.00000E+00  9.000E+00
      -3    -1     0     0     0   502  0.000000000E+00  0.000000000E+00 -4.091924007E+01  4.091924007E+01  0.000000000E+00  0.00000E+00  9.000E+00
      25     1     1     2     0     0 -9.659541790E+01 -6.344752806E+01  3.113909773E+02  3.548881575E+02  1.250000000E+02  0.00000E+00  9.000E+00
      25     1     1     2     0     0  4.797077145E+01  4.511307323E+01  2.588624925E+02  2.949087559E+02  1.250000000E+02  0.00000E+00  9.000E+00
      21     1     1     2   501   502  4.862464645E+01  1.833445482E+01  5.871891847E+02  5.894842213E+02  1.078959322E-05  0.00000E+00  9.000E+00
#rwgt            3           8   1.4771671316954886E-005           1      437823           0
</event>
<event>
      5   9999  3.79277E-02  2.45714E+01 -1.00000E+00  1.59315E-01
      21    -1     0     0   511   501  0.000000000E+00  0.000000000E+00  1.721473727E+02  1.721473727E+02  0.000000000E+00  0.00000E+00  9.000E+00
      21    -1     0     0   501   502  0.000000000E+00  0.000000000E+00 -3.490241738E+03  3.490241738E+03  0.000000000E+00  0.00000E+00  9.000E+00
      25     1     1     2     0     0  1.303270219E+02 -6.861930673E+01 -9.824754018E+02  1.001287500E+03  1.250000000E+02  0.00000E+00  9.000E+00
      25     1     1     2     0     0 -1.109212756E+02  5.354715364E+01 -2.494332136E+03  2.500497677E+03  1.250000000E+02  0.00000E+00  9.000E+00
      21     1     1     2   511   502 -1.940574630E+01  1.507215310E+01  1.587131721E+02  1.606039345E+02  6.325959759E-06  0.00000E+00  9.000E+00
#rwgt            1           1   1.6652716868038084E-002           1      437947           0
</event>
<event>
      5   9999  3.79277E-02  7.05391E+00 -1.00000E+00  2.15084E-01
      21    -1     0     0   502   512  0.000000000E+00  0.000000000E+00  3.940083752E+02  3.940083752E+02  0.000000000E+00  0.00000E+00  9.000E+00
      21    -1     0     0   501   502  0.000000000E+00  0.000000000E+00 -3.324252763E+02  3.324252763E+02  0.000000000E+00  0.00000E+00  9.000E+00
      25     1     1     2     0     0 -1.712019536E+00  1.988876752E+02 -2.538861079E+01  2.362812305E+02  1.250000000E+02  0.00000E+00  9.000E+00
      25     1     1     2     0     0  7.178228627E+00 -2.033461662E+02 -1.307928226E+02  2.722736725E+02  1.250000000E+02  0.00000E+00  9.000E+00
      21     1     1     2   501   512 -5.466209091E+00  4.458491077E+00  2.177645322E+02  2.178787485E+02  3.814697266E-06  0.00000E+00  9.000E+00
#rwgt            1           1   8.2707516185922175E-002           1      438117           0
</event>
<event>
      5   9999  3.79277E-02  5.16779E+01 -1.00000E+00  1.38263E-01
      21    -1     0     0   511   501  0.000000000E+00  0.000000000E+00  6.633814463E+01  6.633814463E+01  0.000000000E+00  0.00000E+00  9.000E+00
      21    -1     0     0   501   502  0.000000000E+00  0.000000000E+00 -1.558353801E+03  1.558353801E+03  0.000000000E+00  0.00000E+00  9.000E+00
      25     1     1     2     0     0 -1.222714531E+02 -1.300756480E+02 -2.331702596E+02  3.191603867E+02  1.250000000E+02  0.00000E+00  9.000E+00
      25     1     1     2     0     0  8.358727639E+01  1.643413413E+02 -1.221817875E+03  1.241957660E+03  1.250000000E+02  0.00000E+00  9.000E+00
      21     1     1     2   511   502  3.868417675E+01 -3.426569325E+01 -3.702752153E+01  6.357389885E+01  6.743495762E-07  0.00000E+00  9.000E+00
#rwgt            1           1   3.7002897615515118E-002           1      438424           0
</event>
<event>
      5   9999  3.79277E-02  3.13986E+01 -1.00000E+00  1.51678E-01
      21    -1     0     0   502   512  0.000000000E+00  0.000000000E+00  8.468974337E+01  8.468974337E+01  0.000000000E+00  0.00000E+00  9.000E+00
      21    -1     0     0   501   502  0.000000000E+00  0.000000000E+00 -5.383780574E+02  5.383780574E+02  0.000000000E+00  0.00000E+00  9.000E+00
      25     1     1     2     0     0 -2.010625898E+01  1.043998690E+02 -3.409488769E+02  3.783843693E+02  1.250000000E+02  0.00000E+00  9.000E+00
      25     1     1     2     0     0  1.445730866E+01 -1.352861329E+02 -8.767376400E+01  2.045068225E+02  1.250000000E+02  0.00000E+00  9.000E+00
      21     1     1     2   501   512  5.648950324E+00  3.088626397E+01 -2.506567315E+01  4.017660902E+01  3.371747881E-07  0.00000E+00  9.000E+00
#rwgt            1           1   4.2372629511086203E-002           1      438498           0
</event>
<event>
      5   9999  3.79277E-02  3.38878E+01 -1.00000E+00  1.49453E-01
      21    -1     0     0   502   511  0.000000000E+00  0.000000000E+00  1.775489291E+03  1.775489291E+03  0.000000000E+00  0.00000E+00  9.000E+00
      21    -1     0     0   501   502  0.000000000E+00  0.000000000E+00 -4.016619779E+01  4.016619779E+01  0.000000000E+00  0.00000E+00  9.000E+00
      25     1     1     2     0     0  2.864571346E+01  1.345821969E+02  2.328984255E+02  2.979926530E+02  1.250000000E+02  0.00000E+00  9.000E+00
      25     1     1     2     0     0  4.958209228E+00 -1.302049652E+02  1.250159001E+03  1.263131207E+03  1.250000000E+02  0.00000E+00  9.000E+00
      21     1     1     2   501   511 -3.360392269E+01 -4.377231679E+00  2.522656663E+02  2.545316290E+02  3.814697266E-06  0.00000E+00  9.000E+00
#rwgt            1           1   5.9697921119319555E-002           1      438660           0
</event>
<event>
      5   9999  3.79277E-02  1.28468E+01 -1.00000E+00  1.83967E-01
      21    -1     0     0   512   501  0.000000000E+00  0.000000000E+00  4.320524296E+02  4.320524296E+02  0.000000000E+00  0.00000E+00  9.000E+00
      21    -1     0     0   501   502  0.000000000E+00  0.000000000E+00 -1.211800861E+02  1.211800861E+02  0.000000000E+00  0.00000E+00  9.000E+00
      25     1     1     2     0     0  6.716453469E+01  2.538696944E+01 -5.560445138E+01  1.545070482E+02  1.250000000E+02  0.00000E+00  9.000E+00
      25     1     1     2     0     0 -5.526078978E+01 -2.055580456E+01  3.568288744E+02  3.826593023E+02  1.250000000E+02  0.00000E+00  9.000E+00
      21     1     1     2   512   502 -1.190374491E+01 -4.831164876E+00  9.647920362E+00  1.606616520E+01  2.384185791E-07  0.00000E+00  9.000E+00
#rwgt            1           1   3.9988212522228679E-002           1      438832           0
</event>
<event>
      5   9999  3.79277E-02  8.16406E+01 -1.00000E+00  1.27924E-01
      21    -1     0     0   502   501  0.000000000E+00  0.000000000E+00  1.418425044E+03  1.418425044E+03  0.000000000E+00  0.00000E+00  9.000E+00
      21    -1     0     0   511   502  0.000000000E+00  0.000000000E+00 -5.288582603E+01  5.288582603E+01  0.000000000E+00  0.00000E+00  9.000E+00
      25     1     1     2     0     0  5.343321492E+01 -9.843694350E+01  2.515624817E+02  3.024129999E+02  1.250000000E+02  0.00000E+00  9.000E+00
      25     1     1     2     0     0 -8.329772382E+01  1.744192088E+02  1.014116218E+03  1.039912147E+03  1.250000000E+02  0.00000E+00  9.000E+00
      21     1     1     2   511   501  2.986450889E+01 -7.598226526E+01  9.986051868E+01  1.289857229E+02  1.348699152E-06  0.00000E+00  9.000E+00
#rwgt            1           1   4.4626010565850263E-002           1      439045           0
</event>
<event>
      5   9999  3.79277E-02  3.39667E+01 -1.00000E+00  1.49386E-01
       1    -1     0     0   502     0  0.000000000E+00  0.000000000E+00  2.674120657E+03  2.674120657E+03  0.000000000E+00  0.00000E+00  9.000E+00
      21    -1     0     0   501   502  0.000000000E+00  0.000000000E+00 -2.655181713E+02  2.655181713E+02  0.000000000E+00  0.00000E+00  9.000E+00
      25     1     1     2     0     0  3.083748872E+01 -1.952626306E+02  4.310033357E+01  2.378257437E+02  1.250000000E+02  0.00000E+00  9.000E+00
      25     1     1     2     0     0 -9.743007542E+00  1.686401058E+02 -1.023402778E+02  2.337369118E+02  1.250000000E+02  0.00000E+00  9.000E+00
       1     1     1     2   501     0 -2.109448118E+01  2.662252474E+01  2.467842430E+03  2.468076173E+03  0.000000000E+00  0.00000E+00  9.000E+00
#rwgt            1           1   3.4191254775447592E-002           1      439170           0
</event>
<event>
      5   9999  3.79277E-02  9.65843E+00 -1.00000E+00  1.97518E-01
      21    -1     0     0   502   501  0.000000000E+00  0.000000000E+00  2.330151309E+02  2.330151309E+02  0.000000000E+00  0.00000E+00  9.000E+00
      21    -1     0     0   501   511  0.000000000E+00  0.000000000E+00 -1.110052424E+03  1.110052424E+03  0.000000000E+00  0.00000E+00  9.000E+00
      25     1     1     2     0     0 -2.226985358E+02  4.770317226E+01 -6.473257665E+00  2.598790749E+02  1.250000000E+02  0.00000E+00  9.000E+00
      25     1     1     2     0     0  2.196472312E+02 -3.853939379E+01 -4.744399529E+01  2.600117761E+02  1.250000000E+02  0.00000E+00  9.000E+00
      21     1     1     2   502   511  3.051304688E+00 -9.163778472E+00 -8.231200402E+02  8.231767039E+02  2.157918644E-05  0.00000E+00  9.000E+00
#rwgt            1           1   8.8379469682819525E-002           1      439399           0
</event>
<event>
      5   9999  3.79277E-02  2.65913E+01 -1.00000E+00  1.56769E-01
      21    -1     0     0   512   501  0.000000000E+00  0.000000000E+00  8.850777117E+02  8.850777117E+02  0.000000000E+00  0.00000E+00  9.000E+00
      21    -1     0     0   501   502  0.000000000E+00  0.000000000E+00 -1.060056824E+02  1.060056824E+02  0.000000000E+00  0.00000E+00  9.000E+00
      25     1     1     2     0     0 -5.303301792E+01 -2.328651119E+02  3.442535529E+02  4.372346853E+02  1.250000000E+02  0.00000E+00  9.000E+00
      25     1     1     2     0     0  5.585573409E+01  2.593061618E+02  3.119367100E+02  4.281227156E+02  1.250000000E+02  0.00000E+00  9.000E+00
      21     1     1     2   512   502 -2.822716174E+00 -2.644104990E+01  1.228817664E+02  1.257259932E+02  1.348699152E-06  0.00000E+00  9.000E+00
#rwgt            1           1   3.3450530633733246E-002           1      439613           0
</event>
<event>
      5   9999  3.79277E-02  6.32907E+01 -1.00000E+00  1.33476E-01
      21    -1     0     0   511   501  0.000000000E+00  0.000000000E+00  4.143701647E+01  4.143701647E+01  0.000000000E+00  0.00000E+00  9.000E+00
      21    -1     0     0   501   502  0.000000000E+00  0.000000000E+00 -1.077469661E+03  1.077469661E+03  0.000000000E+00  0.00000E+00  9.000E+00
      25     1     1     2     0     0 -7.802141805E+01 -2.974494787E+00 -5.575240068E+02  5.766751317E+02  1.250000000E+02  0.00000E+00  9.000E+00
      25     1     1     2     0     0  1.362901485E+02  2.768207561E+01 -3.987050273E+02  4.403771119E+02  1.250000000E+02  0.00000E+00  9.000E+00
      21     1     1     2   511   502 -5.826873043E+01 -2.470758082E+01 -7.980361091E+01  1.018544344E+02  2.132480600E-06  0.00000E+00  9.000E+00
#rwgt            1           1   3.6235500034981716E-002           1      439879           0
</event>
<event>
      5   9999  3.79277E-02  3.34483E+01 -1.00000E+00  1.49829E-01
      21    -1     0     0   502   512  0.000000000E+00  0.000000000E+00  5.162899931E+02  5.162899931E+02  0.000000000E+00  0.00000E+00  9.000E+00
      21    -1     0     0   501   502  0.000000000E+00  0.000000000E+00 -1.396198472E+02  1.396198472E+02  0.000000000E+00  0.00000E+00  9.000E+00
      25     1     1     2     0     0 -1.968641270E+02  5.280267204E+01  2.389266322E+02  3.380155947E+02  1.250000000E+02  0.00000E+00  9.000E+00
      25     1     1     2     0     0  1.905927025E+02 -8.565778507E+01  8.998260376E+01  2.595856378E+02  1.250000000E+02  0.00000E+00  9.000E+00
      21     1     1     2   501   512  6.271424527E+00  3.285511302E+01  4.776090995E+01  5.830860774E+01  6.743495762E-07  0.00000E+00  9.000E+00
#rwgt            1           1   4.3140011717591492E-002           1      439952           0
</event>
<event>
      5   9999  3.79277E-02  1.13739E+01 -1.00000E+00  1.89509E-01
      21    -1     0     0   511   501  0.000000000E+00  0.000000000E+00  3.389829968E+02  3.389829968E+02  0.000000000E+00  0.00000E+00  9.000E+00
      21    -1     0     0   501   502  0.000000000E+00  0.000000000E+00 -1.457006918E+03  1.457006918E+03  0.000000000E+00  0.00000E+00  9.000E+00
      25     1     1     2     0     0 -4.249320280E+02 -3.964721333E+01 -6.782063443E+02  8.110043005E+02  1.250000000E+02  0.00000E+00  9.000E+00
      25     1     1     2     0     0  4.284252947E+02  2.882307256E+01 -6.420395086E+02  7.824440768E+02  1.250000000E+02  0.00000E+00  9.000E+00
      21     1     1     2   511   502 -3.493266787E+00  1.082414077E+01  2.022219315E+02  2.025415378E+02  2.697398305E-06  0.00000E+00  9.000E+00
#rwgt            1           1   2.4128694653903032E-002           1      440115           0
</event>
<event>
      5   9999  3.79277E-02  5.71218E+01 -1.00000E+00  1.35854E-01
      21    -1     0     0   512   501  0.000000000E+00  0.000000000E+00  5.937682985E+02  5.937682985E+02  0.000000000E+00  0.00000E+00  9.000E+00
      21    -1     0     0   501   502  0.000000000E+00  0.000000000E+00 -2.995778449E+02  2.995778449E+02  0.000000000E+00  0.00000E+00  9.000E+00
      25     1     1     2     0     0 -1.568917435E+02 -8.699750161E+01  1.532286423E+02  2.669973806E+02  1.250000000E+02  0.00000E+00  9.000E+00
      25     1     1     2     0     0  2.102155633E+02  1.074784854E+02 -1.657330523E+02  3.143797902E+02  1.250000000E+02  0.00000E+00  9.000E+00
      21     1     1     2   512   502 -5.332381983E+01 -2.048098380E+01  3.066948636E+02  3.119689725E+02  5.394796609E-06  0.00000E+00  9.000E+00
#rwgt            1           1   4.2784171224537725E-002           1      440373           0
</event>
<event>
      5   9999  3.79277E-02  2.99951E+01 -1.00000E+00  1.53045E-01
      21    -1     0     0   502   501  0.000000000E+00  0.000000000E+00  2.530055665E+02  2.530055665E+02  0.000000000E+00  0.00000E+00  9.000E+00
      21    -1     0     0   501   511  0.000000000E+00  0.000000000E+00 -1.818276064E+02  1.818276064E+02  0.000000000E+00  0.00000E+00  9.000E+00
      25     1     1     2     0     0 -2.209853317E+01  1.585195826E+02 -1.367299879E+01  2.035405467E+02  1.250000000E+02  0.00000E+00  9.000E+00
      25     1     1     2     0     0  3.312267932E+01 -1.306237867E+02  8.165613020E+01  2.011278428E+02  1.250000000E+02  0.00000E+00  9.000E+00
      21     1     1     2   502   511 -1.102414615E+01 -2.789579592E+01  3.194828620E+00  3.016478341E+01  4.339283639E-07  0.00000E+00  9.000E+00
#rwgt            1           1   1.1044171877783376E-002           1      440529           0
</event>
<event>
      5   9999  3.79277E-02  2.04253E+01 -1.00000E+00  1.65619E-01
      21    -1     0     0   502   512  0.000000000E+00  0.000000000E+00  7.655636690E+01  7.655636690E+01  0.000000000E+00  0.00000E+00  9.000E+00
      21    -1     0     0   501   502  0.000000000E+00  0.000000000E+00 -1.052886574E+03  1.052886574E+03  0.000000000E+00  0.00000E+00  9.000E+00
      25     1     1     2     0     0 -2.140572832E+02 -6.816601584E+01 -5.995128642E+02  6.523095895E+02  1.250000000E+02  0.00000E+00  9.000E+00
      25     1     1     2     0     0  2.314798961E+02  5.750551513E+01 -3.648350174E+02  4.534527720E+02  1.250000000E+02  0.00000E+00  9.000E+00
      21     1     1     2   501   512 -1.742261286E+01  1.066050072E+01 -1.198232550E+01  2.368057936E+01  2.384185791E-07  0.00000E+00  9.000E+00
#rwgt            1           1   5.8747568392079896E-002           1      440659           0
</event>
<event>
      5   9999  3.79277E-02  3.94784E+01 -1.00000E+00  1.45195E-01
      21    -1     0     0   502   501  0.000000000E+00  0.000000000E+00  7.084552620E+02  7.084552620E+02  0.000000000E+00  0.00000E+00  9.000E+00
      21    -1     0     0   501   511  0.000000000E+00  0.000000000E+00 -1.702115894E+02  1.702115894E+02  0.000000000E+00  0.00000E+00  9.000E+00
      25     1     1     2     0     0  7.835858390E+01  3.175349471E+01  5.980640670E+02  6.168095170E+02  1.250000000E+02  0.00000E+00  9.000E+00
      25     1     1     2     0     0 -1.118739710E+02 -1.089051110E+01  2.342077005E+01  1.697289636E+02  1.250000000E+02  0.00000E+00  9.000E+00
      21     1     1     2   502   511  3.351538712E+01 -2.086298361E+01 -8.324116441E+01  9.212837083E+01  1.651812370E-06  0.00000E+00  9.000E+00
#rwgt            1           1   3.8696508184689143E-002           1      440817           0
</event>
<event>
      5   9999  3.79277E-02  3.82365E+01 -1.00000E+00  1.46065E-01
      21    -1     0     0   502   512  0.000000000E+00  0.000000000E+00  3.287521198E+02  3.287521198E+02  0.000000000E+00  0.00000E+00  9.000E+00
      21    -1     0     0   501   502  0.000000000E+00  0.000000000E+00 -3.367430087E+02  3.367430087E+02  0.000000000E+00  0.00000E+00  9.000E+00
      25     1     1     2     0     0  1.785336124E+02 -1.149012643E+02  1.154560847E+02  2.720875940E+02  1.250000000E+02  0.00000E+00  9.000E+00
      25     1     1     2     0     0 -2.167699738E+02  1.150137952E+02 -1.771731834E+02  3.274640920E+02  1.250000000E+02  0.00000E+00  9.000E+00
      21     1     1     2   501   512  3.823636141E+01 -1.125308217E-01  5.372620984E+01  6.594344259E+01  6.743495762E-07  0.00000E+00  9.000E+00
#rwgt            1           1   2.1044630638054458E-002           1      440970           0
</event>
<event>
      5   9999  3.79277E-02  5.18341E+01 -1.00000E+00  1.38189E-01
      21    -1     0     0   502   501  0.000000000E+00  0.000000000E+00  4.220398926E+02  4.220398926E+02  0.000000000E+00  0.00000E+00  9.000E+00
      21    -1     0     0   501   511  0.000000000E+00  0.000000000E+00 -1.851890163E+02  1.851890163E+02  0.000000000E+00  0.00000E+00  9.000E+00
      25     1     1     2     0     0 -1.252496580E+02 -5.757320924E+00  1.137782581E+01  1.774121712E+02  1.250000000E+02  0.00000E+00  9.000E+00
      25     1     1     2     0     0  1.442499360E+02 -4.246885451E+01  2.883056407E+02  3.483630148E+02  1.250000000E+02  0.00000E+00  9.000E+00
      21     1     1     2   502   511 -1.900027802E+01  4.822617543E+01 -6.283259030E+01  8.145372284E+01  1.651812370E-06  0.00000E+00  9.000E+00
#rwgt            1           1   2.8737804409506178E-002           1      441089           0
</event>
<event>
      5   9999 -3.79277E-02  2.21788E+02 -1.00000E+00  1.10037E-01
      21    -1     0     0   502   501  0.000000000E+00  0.000000000E+00  8.915669928E+02  8.915669928E+02  0.000000000E+00  0.00000E+00  9.000E+00
      21    -1     0     0   512   502  0.000000000E+00  0.000000000E+00 -1.783716481E+02  1.783716481E+02  0.000000000E+00  0.00000E+00  9.000E+00
      25     1     1     2     0     0  2.580727614E+02  1.400462603E+02  1.786613404E+02  3.657312945E+02  1.250000000E+02  0.00000E+00  9.000E+00
      25     1     1     2     0     0 -1.517350828E+02  5.458714087E+01  3.880280042E+02  4.383993879E+02  1.250000000E+02  0.00000E+00  9.000E+00
      21     1     1     2   512   501 -1.063376786E+02 -1.946334012E+02  1.465060000E+02  2.658079585E+02  5.394796609E-06  0.00000E+00  9.000E+00
#rwgt            1           1  -3.3463626548701469E-002           1      441184           0
</event>
<event>
      5   9999  3.79277E-02  1.17900E+01 -1.00000E+00  1.87838E-01
       1    -1     0     0   502     0  0.000000000E+00  0.000000000E+00  1.845118775E+03  1.845118775E+03  0.000000000E+00  0.00000E+00  9.000E+00
      21    -1     0     0   501   502  0.000000000E+00  0.000000000E+00 -2.232639046E+02  2.232639046E+02  0.000000000E+00  0.00000E+00  9.000E+00
      25     1     1     2     0     0  2.348855984E+01 -3.707997236E+02  1.287717146E+02  4.126151984E+02  1.250000000E+02  0.00000E+00  9.000E+00
      25     1     1     2     0     0 -3.459808993E+01  3.668522107E+02  3.841947597E+02  5.468164095E+02  1.250000000E+02  0.00000E+00  9.000E+00
       1     1     1     2   501     0  1.110953009E+01  3.947512867E+00  1.108888396E+03  1.108951072E+03  1.525878906E-05  0.00000E+00  9.000E+00
#rwgt            1           1   4.3066056339187093E-002           1      441349           0
</event>
<event>
      5   9999  3.79277E-02  8.66888E+01 -1.00000E+00  1.26684E-01
      21    -1     0     0   502   511  0.000000000E+00  0.000000000E+00  1.074624869E+03  1.074624869E+03  0.000000000E+00  0.00000E+00  9.000E+00
      21    -1     0     0   501   502  0.000000000E+00  0.000000000E+00 -9.533161917E+01  9.533161917E+01  0.000000000E+00  0.00000E+00  9.000E+00
      25     1     1     2     0     0  1.967562156E+02 -4.439621870E+01  1.590366116E+02  2.856600714E+02  1.250000000E+02  0.00000E+00  9.000E+00
      25     1     1     2     0     0 -1.575680894E+02 -3.292932460E+01  3.410041797E+02  3.972667791E+02  1.250000000E+02  0.00000E+00  9.000E+00
      21     1     1     2   501   511 -3.918812617E+01  7.732554330E+01  4.792524583E+02  4.870296374E+02  1.078959322E-05  0.00000E+00  9.000E+00
#rwgt            1           1   3.6120093276008715E-002           1      441587           0
</event>
<event>
      5   9999  3.79277E-02  1.82512E+01 -1.00000E+00  1.69716E-01
      21    -1     0     0   502   501  0.000000000E+00  0.000000000E+00  9.962795781E+02  9.962795781E+02  0.000000000E+00  0.00000E+00  9.000E+00
       5    -1     0     0   501     0  0.000000000E+00  0.000000000E+00 -4.688883963E+01  4.688883963E+01  0.000000000E+00  0.00000E+00  9.000E+00
      25     1     1     2     0     0  1.192765429E+02 -8.384608892E+01  5.469716031E+02  5.797068181E+02  1.250000000E+02  0.00000E+00  9.000E+00
      25     1     1     2     0     0 -1.375132472E+02  8.311934867E+01  3.937334063E+02  4.432490435E+02  1.250000000E+02  0.00000E+00  9.000E+00
       5     1     1     2   502     0  1.823670434E+01  7.267402456E-01  8.685728946E+00  2.021255610E+01  3.953724850E-07  0.00000E+00  9.000E+00
#rwgt            1           1   4.6863270680797653E-002           1      441631           0
</event>
<event>
      5   9999  3.79277E-02  6.01125E+01 -1.00000E+00  1.34660E-01
      21    -1     0     0   502   501  0.000000000E+00  0.000000000E+00  3.683414834E+02  3.683414834E+02  0.000000000E+00  0.00000E+00  9.000E+00
      21    -1     0     0   501   511  0.000000000E+00  0.000000000E+00 -1.380586358E+02  1.380586358E+02  0.000000000E+00  0.00000E+00  9.000E+00
      25     1     1     2     0     0 -1.019771743E+02  6.041428310E+01  1.640136638E+02  2.378543916E+02  1.250000000E+02  0.00000E+00  9.000E+00
      25     1     1     2     0     0  1.419214853E+02 -1.549258432E+01  8.152726641E+01  2.065270523E+02  1.250000000E+02  0.00000E+00  9.000E+00
      21     1     1     2   502   511 -3.994431100E+01 -4.492169878E+01 -1.525808266E+01  6.201867532E+01  8.429369702E-07  0.00000E+00  9.000E+00
#rwgt            1           1   1.6708587286380965E-002           1      441797           0
</event>
<event>
      5   9999  3.79277E-02  2.21160E+01 -1.00000E+00  1.62844E-01
      21    -1     0     0   502   512  0.000000000E+00  0.000000000E+00  2.833516470E+02  2.833516470E+02  0.000000000E+00  0.00000E+00  9.000E+00
      21    -1     0     0   501   502  0.000000000E+00  0.000000000E+00 -2.817178504E+02  2.817178504E+02  0.000000000E+00  0.00000E+00  9.000E+00
      25     1     1     2     0     0 -3.230080991E+00 -2.247630219E+02  9.824948101E+01  2.753303651E+02  1.250000000E+02  0.00000E+00  9.000E+00
      25     1     1     2     0     0  1.539172900E+01  2.062910905E+02 -1.081556272E+02  2.647934271E+02  1.250000000E+02  0.00000E+00  9.000E+00
      21     1     1     2   501   512 -1.216164801E+01  1.847193135E+01  1.153994275E+01  2.494570522E+01  1.685873940E-07  0.00000E+00  9.000E+00
#rwgt            1           1   3.2628673070153880E-002           1      441917           0
</event>
<event>
      5   9999  3.79277E-02  4.68407E+01 -1.00000E+00  1.40712E-01
      21    -1     0     0   502   511  0.000000000E+00  0.000000000E+00  3.650769563E+03  3.650769563E+03  0.000000000E+00  0.00000E+00  9.000E+00
      21    -1     0     0   501   502  0.000000000E+00  0.000000000E+00 -3.427472791E+01  3.427472791E+01  0.000000000E+00  0.00000E+00  9.000E+00
      25     1     1     2     0     0  1.388455998E+02  2.171052987E+02  2.576749864E+03  2.592619848E+03  1.250000000E+02  0.00000E+00  9.000E+00
      25     1     1     2     0     0 -1.473792305E+02 -1.710484803E+02  6.419879789E+02  6.919189152E+02  1.250000000E+02  0.00000E+00  9.000E+00
      21     1     1     2   501   511  8.533630736E+00 -4.605681848E+01  3.977569915E+02  4.005055276E+02  7.629394531E-06  0.00000E+00  9.000E+00
#rwgt            1           1  0.17043276775441327                1      442170           0
</event>
<event>
      5   9999  3.79277E-02  4.09316E+01 -1.00000E+00  1.44223E-01
       1    -1     0     0   502     0  0.000000000E+00  0.000000000E+00  1.537324870E+03  1.537324870E+03  0.000000000E+00  0.00000E+00  9.000E+00
      21    -1     0     0   501   502  0.000000000E+00  0.000000000E+00 -5.868583012E+01  5.868583012E+01  0.000000000E+00  0.00000E+00  9.000E+00
      25     1     1     2     0     0  1.073283249E+02 -1.019984239E+02  3.371088176E+02  3.888321009E+02  1.250000000E+02  0.00000E+00  9.000E+00
      25     1     1     2     0     0 -9.377034141E+01  6.337753483E+01  1.871151375E+02  2.518862115E+02  1.250000000E+02  0.00000E+00  9.000E+00
       1     1     1     2   501     0 -1.355798349E+01  3.862088905E+01  9.544150852E+02  9.552923882E+02  1.525878906E-05  0.00000E+00  9.000E+00
#rwgt            1           1   2.2719661728837173E-002           1      442255           0
</event>
<event>
      5   9999 -3.79277E-02  3.42011E+01 -1.00000E+00  1.49189E-01
      21    -1     0     0   502   501  0.000000000E+00  0.000000000E+00  1.515259983E+03  1.515259983E+03  0.000000000E+00  0.00000E+00  9.000E+00
      21    -1     0     0   501   511  0.000000000E+00  0.000000000E+00 -3.196516078E+01  3.196516078E+01  0.000000000E+00  0.00000E+00  9.000E+00
      25     1     1     2     0     0 -1.236704270E+02  9.707696532E+01  1.004517056E+03  1.024401204E+03  1.250000000E+02  0.00000E+00  9.000E+00
      25     1     1     2     0     0  9.461253400E+01 -7.903947536E+01  3.904676117E+02  4.281223260E+02  1.250000000E+02  0.00000E+00  9.000E+00
      21     1     1     2   502   511  2.905789302E+01 -1.803748997E+01  8.831015474E+01  9.470161362E+01  1.348699152E-06  0.00000E+00  9.000E+00
#rwgt            1           1  -5.1731498328681513E-002           1      442379           0
</event>
<event>
      5   9999  3.79277E-02  7.91438E+01 -1.00000E+00  1.28576E-01
      21    -1     0     0   502   501  0.000000000E+00  0.000000000E+00  1.264308312E+02  1.264308312E+02  0.000000000E+00  0.00000E+00  9.000E+00
       2    -1     0     0   501     0  0.000000000E+00  0.000000000E+00 -3.015766668E+03  3.015766668E+03  0.000000000E+00  0.00000E+00  9.000E+00
      25     1     1     2     0     0 -8.639176626E+00  2.183353410E+02 -2.359495353E+02  3.450248392E+02  1.250000000E+02  0.00000E+00  9.000E+00
      25     1     1     2     0     0 -3.956491759E+01 -2.811055689E+02 -2.664042059E+02  4.088788629E+02  1.250000000E+02  0.00000E+00  9.000E+00
       2     1     1     2   502     0  4.820409422E+01  6.277022793E+01 -2.386982096E+03  2.388293797E+03  3.051757812E-05  0.00000E+00  9.000E+00
#rwgt            2          13   8.2104339765620531E-004           1      442483           0
</event>
<event>
      5   9999  3.79277E-02  2.36628E+01 -1.00000E+00  1.60560E-01
      21    -1     0     0   502   511  0.000000000E+00  0.000000000E+00  5.982243639E+02  5.982243639E+02  0.000000000E+00  0.00000E+00  9.000E+00
      21    -1     0     0   501   502  0.000000000E+00  0.000000000E+00 -4.685723401E+01  4.685723401E+01  0.000000000E+00  0.00000E+00  9.000E+00
      25     1     1     2     0     0  2.174552037E+01  5.583655766E+01  3.332116276E+02  3.608955218E+02  1.250000000E+02  0.00000E+00  9.000E+00
      25     1     1     2     0     0 -4.505781379E+01 -5.989410674E+01  1.383848096E+02  2.009797655E+02  1.250000000E+02  0.00000E+00  9.000E+00
      21     1     1     2   501   511  2.331229343E+01  4.057549076E+00  7.977069267E+01  8.320631068E+01  1.348699152E-06  0.00000E+00  9.000E+00
#rwgt            1           1   2.4376791958343653E-002           1      442532           0
</event>
<event>
      5   9999  3.79277E-02  6.05244E+01 -1.00000E+00  1.34502E-01
       2    -1     0     0   502     0  0.000000000E+00  0.000000000E+00  3.393301494E+03  3.393301494E+03  0.000000000E+00  0.00000E+00  9.000E+00
      21    -1     0     0   501   502  0.000000000E+00  0.000000000E+00 -1.819055492E+01  1.819055492E+01  0.000000000E+00  0.00000E+00  9.000E+00
      25     1     1     2     0     0 -2.752072520E+01  3.448100824E+01  2.034968737E+03  2.039281513E+03  1.250000000E+02  0.00000E+00  9.000E+00
      25     1     1     2     0     0 -3.299296932E+01 -3.562116740E+01  2.811768047E+02  3.115169323E+02  1.250000000E+02  0.00000E+00  9.000E+00
       2     1     1     2   501     0  6.051369452E+01  1.140159166E+00  1.058965397E+03  1.060693603E+03  1.525878906E-05  0.00000E+00  9.000E+00
#rwgt            2          18   5.4775357612414101E-004           1      442808           0
</event>
<event>
      5   9999  3.79277E-02  2.12133E+01 -1.00000E+00  1.64286E-01
      21    -1     0     0   502   511  0.000000000E+00  0.000000000E+00  9.775589877E+02  9.775589877E+02  0.000000000E+00  0.00000E+00  9.000E+00
      21    -1     0     0   501   502  0.000000000E+00  0.000000000E+00 -5.286220726E+01  5.286220726E+01  0.000000000E+00  0.00000E+00  9.000E+00
      25     1     1     2     0     0  3.495830080E+01 -5.190099281E+01  2.619287837E+02  2.968964189E+02  1.250000000E+02  0.00000E+00  9.000E+00
      25     1     1     2     0     0 -2.029697778E+01  6.723238437E+01  1.109334095E+02  1.812826030E+02  1.250000000E+02  0.00000E+00  9.000E+00
      21     1     1     2   501   511 -1.466132302E+01 -1.533139156E+01  5.518345873E+02  5.522421730E+02  7.629394531E-06  0.00000E+00  9.000E+00
#rwgt            1           1   9.7960812663317964E-002           1      442887           0
</event>
<event>
      5   9999  3.79277E-02  1.27497E+01 -1.00000E+00  1.84303E-01
      21    -1     0     0   502   512  0.000000000E+00  0.000000000E+00  2.348601008E+02  2.348601008E+02  0.000000000E+00  0.00000E+00  9.000E+00
      21    -1     0     0   501   502  0.000000000E+00  0.000000000E+00 -1.856787444E+02  1.856787444E+02  0.000000000E+00  0.00000E+00  9.000E+00
      25     1     1     2     0     0  8.876125574E+01  2.608437333E+01  1.413600512E+02  2.101585571E+02  1.250000000E+02  0.00000E+00  9.000E+00
      25     1     1     2     0     0 -9.970555943E+01 -3.262469509E+01 -1.035722048E+02  1.932815845E+02  1.250000000E+02  0.00000E+00  9.000E+00
      21     1     1     2   501   512  1.094430369E+01  6.540321760E+00  1.139351010E+01  1.709870359E+01  1.685873940E-07  0.00000E+00  9.000E+00
#rwgt            1           1   4.2908603749941980E-002           1      443061           0
</event>
<event>
      5   9999  3.79277E-02  2.45008E+01 -1.00000E+00  1.59410E-01
      -1    -1     0     0     0   501  0.000000000E+00  0.000000000E+00  4.298709753E+02  4.298709753E+02  0.000000000E+00  0.00000E+00  9.000E+00
      21    -1     0     0   501   502  0.000000000E+00  0.000000000E+00 -4.250534493E+02  4.250534493E+02  0.000000000E+00  0.00000E+00  9.000E+00
      25     1     1     2     0     0  1.315138702E+02  8.848004598E+01 -3.116328554E+02  3.713012970E+02  1.250000000E+02  0.00000E+00  9.000E+00
      25     1     1     2     0     0 -1.452658484E+02 -6.820266703E+01  4.153087559E+01  2.076140268E+02  1.250000000E+02  0.00000E+00  9.000E+00
      -1     1     1     2     0   502  1.375197819E+01 -2.027737895E+01  2.749195059E+02  2.760091008E+02  5.394796609E-06  0.00000E+00  9.000E+00
#rwgt            1           1   9.9644121039977399E-002           1      443295           0
</event>
<event>
      5   9999  3.79277E-02  2.72162E+01 -1.00000E+00  1.56037E-01
      21    -1     0     0   511   501  0.000000000E+00  0.000000000E+00  1.062154456E+03  1.062154456E+03  0.000000000E+00  0.00000E+00  9.000E+00
      21    -1     0     0   501   502  0.000000000E+00  0.000000000E+00 -9.980722233E+01  9.980722233E+01  0.000000000E+00  0.00000E+00  9.000E+00
      25     1     1     2     0     0  1.179759865E+02 -8.126227782E+01  6.655462238E+02  6.921695365E+02  1.250000000E+02  0.00000E+00  9.000E+00
      25     1     1     2     0     0 -1.206556530E+02  5.417826876E+01  1.059165539E+01  1.822916745E+02  1.250000000E+02  0.00000E+00  9.000E+00
      21     1     1     2   511   502  2.679666542E+00  2.708400906E+01  2.862093545E+02  2.875004675E+02  3.814697266E-06  0.00000E+00  9.000E+00
#rwgt            1           1   2.3563032256182573E-002           1      443460           0
</event>
<event>
      5   9999  3.79277E-02  1.29279E+02 -1.00000E+00  1.19011E-01
      21    -1     0     0   502   501  0.000000000E+00  0.000000000E+00  2.469393049E+02  2.469393049E+02  0.000000000E+00  0.00000E+00  9.000E+00
       2    -1     0     0   501     0  0.000000000E+00  0.000000000E+00 -1.874478016E+03  1.874478016E+03  0.000000000E+00  0.00000E+00  9.000E+00
      25     1     1     2     0     0  5.781017480E+02 -2.384931818E+02 -6.369186821E+02  9.013162799E+02  1.250000000E+02  0.00000E+00  9.000E+00
      25     1     1     2     0     0 -4.590843478E+02  2.889689255E+02 -6.501303149E+02  8.558947976E+02  1.250000000E+02  0.00000E+00  9.000E+00
       2     1     1     2   502     0 -1.190174002E+02 -5.047574372E+01 -3.404897146E+02  3.642062438E+02  0.000000000E+00  0.00000E+00  9.000E+00
#rwgt            1           1   4.9924774716954938E-002           1      443718           0
</event>
<event>
      5   9999  3.79277E-02  2.99193E+01 -1.00000E+00  1.53121E-01
      21    -1     0     0   511   501  0.000000000E+00  0.000000000E+00  6.097686071E+01  6.097686071E+01  0.000000000E+00  0.00000E+00  9.000E+00
      21    -1     0     0   501   502  0.000000000E+00  0.000000000E+00 -1.067617420E+03  1.067617420E+03  0.000000000E+00  0.00000E+00  9.000E+00
      25     1     1     2     0     0 -1.126255704E+02  3.046963726E+01 -2.225520499E+02  2.806551849E+02  1.250000000E+02  0.00000E+00  9.000E+00
      25     1     1     2     0     0  1.201737488E+02 -1.518098622E+00 -7.967861662E+02  8.154368333E+02  1.250000000E+02  0.00000E+00  9.000E+00
      21     1     1     2   511   502 -7.548178369E+00 -2.895153864E+01  1.269765669E+01  3.250226256E+01  1.118282261E-06  0.00000E+00  9.000E+00
#rwgt            1           1   3.5178641218444884E-002           1      443827           0
</event>
<event>
      5   9999  3.79277E-02  4.74684E+01 -1.00000E+00  1.40375E-01
      21    -1     0     0   502   501  0.000000000E+00  0.000000000E+00  8.826209239E+01  8.826209239E+01  0.000000000E+00  0.00000E+00  9.000E+00
      21    -1     0     0   501   512  0.000000000E+00  0.000000000E+00 -5.238476603E+02  5.238476603E+02  0.000000000E+00  0.00000E+00  9.000E+00
      25     1     1     2     0     0  3.933291000E+01 -1.622050910E+02 -1.996524458E+02  2.886930350E+02  1.250000000E+02  0.00000E+00  9.000E+00
      25     1     1     2     0     0 -3.722872161E+01  1.147833672E+02 -1.852538010E+02  2.539786800E+02  1.250000000E+02  0.00000E+00  9.000E+00
      21     1     1     2   502   512 -2.104188391E+00  4.742172375E+01 -5.067932111E+01  6.943803770E+01  6.743495762E-07  0.00000E+00  9.000E+00
#rwgt            1           1   4.4408580858806099E-002           1      444129           0
</event>
<event>
      5   9999  3.79277E-02  5.09598E+01 -1.00000E+00  1.38606E-01
      21    -1     0     0   502   501  0.000000000E+00  0.000000000E+00  4.098991937E+02  4.098991937E+02  0.000000000E+00  0.00000E+00  9.000E+00
      21    -1     0     0   501   511  0.000000000E+00  0.000000000E+00 -1.974001743E+02  1.974001743E+02  0.000000000E+00  0.00000E+00  9.000E+00
      25     1     1     2     0     0  1.611661027E+02  6.807029212E+01 -2.909787252E+01  2.169787167E+02  1.250000000E+02  0.00000E+00  9.000E+00
      25     1     1     2     0     0 -1.116822313E+02 -8.024598954E+01  2.731553539E+02  3.303803671E+02  1.250000000E+02  0.00000E+00  9.000E+00
      21     1     1     2   502   511 -4.948387137E+01  1.217569742E+01 -3.155846203E+01  5.994028411E+01  9.536743164E-07  0.00000E+00  9.000E+00
#rwgt            1           1   5.0915883245247061E-002           1      444371           0
</event>
<event>
      5   9999 -3.79277E-02  1.84865E+02 -1.00000E+00  1.12907E-01
       2    -1     0     0   502     0  0.000000000E+00  0.000000000E+00  2.170847508E+03  2.170847508E+03  0.000000000E+00  0.00000E+00  9.000E+00
      21    -1     0     0   501   502  0.000000000E+00  0.000000000E+00 -9.988820805E+01  9.988820805E+01  0.000000000E+00  0.00000E+00  9.000E+00
      25     1     1     2     0     0 -2.372239835E+02  7.534165135E+01  4.165734567E+02  5.011087982E+02  1.250000000E+02  0.00000E+00  9.000E+00
      25     1     1     2     0     0  1.031429935E+02 -2.026098728E+02  2.756248961E+02  3.785278338E+02  1.250000000E+02  0.00000E+00  9.000E+00
       2     1     1     2   501     0  1.340809900E+02  1.272682214E+02  1.378760947E+03  1.391099084E+03  0.000000000E+00  0.00000E+00  9.000E+00
#rwgt            1           1  -7.1127281992951472E-002           1      444466           0
</event>
<event>
      5   9999  3.79277E-02  5.16577E+01 -1.00000E+00  1.38272E-01
      21    -1     0     0   502   501  0.000000000E+00  0.000000000E+00  7.979625026E+02  7.979625026E+02  0.000000000E+00  0.00000E+00  9.000E+00
      21    -1     0     0   511   502  0.000000000E+00  0.000000000E+00 -7.330073485E+01  7.330073485E+01  0.000000000E+00  0.00000E+00  9.000E+00
      25     1     1     2     0     0 -5.146788955E+01 -6.466534638E+01  6.356961828E+02  6.531195813E+02  1.250000000E+02  0.00000E+00  9.000E+00
      25     1     1     2     0     0  7.447464033E+01  1.841381073E+01  7.448458832E+01  1.644946637E+02  1.250000000E+02  0.00000E+00  9.000E+00
      21     1     1     2   511   501 -2.300675078E+01  4.625153565E+01  1.448099667E+01  5.364899250E+01  1.410503336E-06  0.00000E+00  9.000E+00
#rwgt            1           1   4.4991333675199252E-002           1      444538           0
</event>
<event>
      5   9999 -3.79277E-02  5.00446E+01 -1.00000E+00  1.39053E-01
       2    -1     0     0   502     0  0.000000000E+00  0.000000000E+00  2.026861804E+03  2.026861804E+03  0.000000000E+00  0.00000E+00  9.000E+00
      21    -1     0     0   501   502  0.000000000E+00  0.000000000E+00 -3.710804559E+01  3.710804559E+01  0.000000000E+00  0.00000E+00  9.000E+00
      25     1     1     2     0     0 -1.581270562E+02 -3.533055765E+01  3.312014567E+02  3.893222561E+02  1.250000000E+02  0.00000E+00  9.000E+00
      25     1     1     2     0     0  1.161620976E+02  8.065039637E+00  1.026584363E+03  1.040701270E+03  1.250000000E+02  0.00000E+00  9.000E+00
       2     1     1     2   501     0  4.196495852E+01  2.726551802E+01  6.319679386E+02  6.339463240E+02  7.629394531E-06  0.00000E+00  9.000E+00
#rwgt            1           1 -0.22022242382257987                1      444738           0
</event>
<event>
      5   9999  3.79277E-02  4.84065E+01 -1.00000E+00  1.39883E-01
      21    -1     0     0   502   501  0.000000000E+00  0.000000000E+00  2.508750204E+03  2.508750204E+03  0.000000000E+00  0.00000E+00  9.000E+00
      21    -1     0     0   511   502  0.000000000E+00  0.000000000E+00 -1.331927724E+01  1.331927724E+01  0.000000000E+00  0.00000E+00  9.000E+00
      25     1     1     2     0     0  1.645128049E+01  5.919627341E+01  1.508667148E+03  1.515082970E+03  1.250000000E+02  0.00000E+00  9.000E+00
      25     1     1     2     0     0 -6.462622561E+01 -5.446706418E+01  7.961142901E+02  8.102877100E+02  1.250000000E+02  0.00000E+00  9.000E+00
      21     1     1     2   511   501  4.817494512E+01 -4.729209229E+00  1.906494884E+02  1.966988007E+02  0.000000000E+00  0.00000E+00  9.000E+00
#rwgt            1           1   5.4023412474887178E-002           1      444874           0
</event>
<event>
      5   9999  3.79277E-02  5.74505E+01 -1.00000E+00  1.35719E-01
      21    -1     0     0   502   512  0.000000000E+00  0.000000000E+00  3.419650941E+02  3.419650941E+02  0.000000000E+00  0.00000E+00  9.000E+00
      21    -1     0     0   501   502  0.000000000E+00  0.000000000E+00 -1.978577128E+02  1.978577128E+02  0.000000000E+00  0.00000E+00  9.000E+00
      25     1     1     2     0     0  1.295908207E+02  9.432539822E+01  1.222706120E+02  2.372048991E+02  1.250000000E+02  0.00000E+00  9.000E+00
      25     1     1     2     0     0 -1.118814210E+02 -3.967254892E+01 -7.660445527E+01  1.886388244E+02  1.250000000E+02  0.00000E+00  9.000E+00
      21     1     1     2   501   512 -1.770939972E+01 -5.465284929E+01  9.844122447E+01  1.139790834E+02  0.000000000E+00  0.00000E+00  9.000E+00
#rwgt            1           1   4.0910805302490381E-002           1      444989           0
</event>
<event>
      5   9999 -3.79277E-02  3.64941E+01 -1.00000E+00  1.47355E-01
      21    -1     0     0   511   501  0.000000000E+00  0.000000000E+00  8.169308903E+02  8.169308903E+02  0.000000000E+00  0.00000E+00  9.000E+00
      21    -1     0     0   501   502  0.000000000E+00  0.000000000E+00 -7.531903495E+02  7.531903495E+02  0.000000000E+00  0.00000E+00  9.000E+00
      25     1     1     2     0     0 -4.883926330E+01  1.022456052E+01 -6.879779409E+01  1.511553894E+02  1.250000000E+02  0.00000E+00  9.000E+00
      25     1     1     2     0     0  7.060396105E+01 -3.951815729E+01 -6.341564024E+02  6.514030602E+02  1.250000000E+02  0.00000E+00  9.000E+00
      21     1     1     2   511   502 -2.176469775E+01  2.929359677E+01  7.666947372E+02  7.675627902E+02  1.078959322E-05  0.00000E+00  9.000E+00
#rwgt            1           1  -1.1355843904160676E-002           1      445204           0
</event>
<event>
      5   9999  3.79277E-02  6.66207E+01 -1.00000E+00  1.32318E-01
      21    -1     0     0   502   501  0.000000000E+00  0.000000000E+00  8.816162985E+02  8.816162985E+02  0.000000000E+00  0.00000E+00  9.000E+00
      21    -1     0     0   501   512  0.000000000E+00  0.000000000E+00 -3.360758989E+02  3.360758989E+02  0.000000000E+00  0.00000E+00  9.000E+00
      25     1     1     2     0     0  2.733777216E+02  6.008963818E+01 -1.101229961E+02  3.257272134E+02  1.250000000E+02  0.00000E+00  9.000E+00
      25     1     1     2     0     0 -2.117849154E+02 -8.547941763E+01  7.400144621E+02  7.844781612E+02  1.250000000E+02  0.00000E+00  9.000E+00
      21     1     1     2   502   512 -6.159280626E+01  2.538977945E+01 -8.435106643E+01  1.074868229E+02  1.348699152E-06  0.00000E+00  9.000E+00
#rwgt            1           1  0.13834436941416711                1      445312           0
</event>
<event>
      5   9999  3.79277E-02  1.13752E+01 -1.00000E+00  1.89503E-01
      21    -1     0     0   502   511  0.000000000E+00  0.000000000E+00  2.581597386E+02  2.581597386E+02  0.000000000E+00  0.00000E+00  9.000E+00
      21    -1     0     0   501   502  0.000000000E+00  0.000000000E+00 -2.739486274E+02  2.739486274E+02  0.000000000E+00  0.00000E+00  9.000E+00
      25     1     1     2     0     0  3.457509742E+01 -1.041443384E+02 -1.804201313E+02  2.453933665E+02  1.250000000E+02  0.00000E+00  9.000E+00
      25     1     1     2     0     0 -4.570779558E+01  1.064807438E+02  5.884571007E+01  1.803196300E+02  1.250000000E+02  0.00000E+00  9.000E+00
      21     1     1     2   501   511  1.113269816E+01 -2.336405430E+00  1.057855324E+02  1.063953694E+02  1.907348633E-06  0.00000E+00  9.000E+00
#rwgt            1           1   4.4533280827244622E-002           1      445427           0
</event>
<event>
      5   9999  3.79277E-02  1.59035E+01 -1.00000E+00  1.75024E-01
      21    -1     0     0   512   501  0.000000000E+00  0.000000000E+00  2.136951945E+02  2.136951945E+02  0.000000000E+00  0.00000E+00  9.000E+00
      21    -1     0     0   501   502  0.000000000E+00  0.000000000E+00 -2.165222083E+02  2.165222083E+02  0.000000000E+00  0.00000E+00  9.000E+00
      25     1     1     2     0     0  1.171410521E+02 -1.072698629E+02 -6.970156854E+00  2.022434984E+02  1.250000000E+02  0.00000E+00  9.000E+00
      25     1     1     2     0     0 -1.327406836E+02  1.041760086E+02 -4.154981715E+00  2.100356963E+02  1.250000000E+02  0.00000E+00  9.000E+00
      21     1     1     2   512   502  1.559963150E+01  3.093854245E+00  8.298124786E+00  1.793820816E+01  2.384185791E-07  0.00000E+00  9.000E+00
#rwgt            1           1   3.3173142511079667E-002           1      445729           0
</event>
<event>
      5   9999  3.79277E-02  1.47113E+01 -1.00000E+00  1.78183E-01
      21    -1     0     0   502   511  0.000000000E+00  0.000000000E+00  4.022269261E+02  4.022269261E+02  0.000000000E+00  0.00000E+00  9.000E+00
      21    -1     0     0   501   502  0.000000000E+00  0.000000000E+00 -8.816502936E+01  8.816502936E+01  0.000000000E+00  0.00000E+00  9.000E+00
      25     1     1     2     0     0 -4.612481285E+00 -5.669351338E+01 -3.322032866E+00  1.373734521E+02  1.250000000E+02  0.00000E+00  9.000E+00
      25     1     1     2     0     0 -9.545789305E+00  5.269796289E+01  3.044059702E+02  3.334009479E+02  1.250000000E+02  0.00000E+00  9.000E+00
      21     1     1     2   501   511  1.415827059E+01  3.995550483E+00  1.297795935E+01  1.961755537E+01  3.769728732E-07  0.00000E+00  9.000E+00
#rwgt            1           1   4.6398978663929856E-002           1      446228           0
</event>
<event>
      5   9999  3.79277E-02  2.53027E+01 -1.00000E+00  1.58360E-01
      21    -1     0     0   502   501  0.000000000E+00  0.000000000E+00  4.751416742E+02  4.751416742E+02  0.000000000E+00  0.00000E+00  9.000E+00
      21    -1     0     0   501   512  0.000000000E+00  0.000000000E+00 -1.262786041E+02  1.262786041E+02  0.000000000E+00  0.00000E+00  9.000E+00
      25     1     1     2     0     0  1.933166362E+01  1.695417544E+02  2.813685425E+02  3.520104777E+02  1.250000000E+02  0.00000E+00  9.000E+00
      25     1     1     2     0     0 -1.753420838E+01 -1.443029536E+02  9.334686919E+01  2.132356182E+02  1.250000000E+02  0.00000E+00  9.000E+00
      21     1     1     2   502   512 -1.797455237E+00 -2.523880080E+01 -2.585234156E+01  3.617418244E+01  0.000000000E+00  0.00000E+00  9.000E+00
#rwgt            1           1   3.3367351725968837E-002           1      446470           0
</event>
<event>
      5   9999  3.79277E-02  4.59908E+01 -1.00000E+00  1.41179E-01
      21    -1     0     0   502   511  0.000000000E+00  0.000000000E+00  4.154155850E+02  4.154155850E+02  0.000000000E+00  0.00000E+00  9.000E+00
      21    -1     0     0   501   502  0.000000000E+00  0.000000000E+00 -1.494404402E+02  1.494404402E+02  0.000000000E+00  0.00000E+00  9.000E+00
      25     1     1     2     0     0 -8.383531469E+01 -1.472679210E+02  7.525932964E+01  2.236183518E+02  1.250000000E+02  0.00000E+00  9.000E+00
      25     1     1     2     0     0  1.298256883E+02  1.470743303E+02  1.348536089E+02  2.688792736E+02  1.250000000E+02  0.00000E+00  9.000E+00
      21     1     1     2   501   511 -4.599037358E+01  1.935907552E-01  5.586220627E+01  7.235839985E+01  0.000000000E+00  0.00000E+00  9.000E+00
#rwgt            1           1   4.4500056014874105E-002           1      446681           0
</event>
<event>
      5   9999  3.79277E-02  4.65556E+01 -1.00000E+00  1.40868E-01
      21    -1     0     0   502   501  0.000000000E+00  0.000000000E+00  5.786092017E+02  5.786092017E+02  0.000000000E+00  0.00000E+00  9.000E+00
      21    -1     0     0   512   502  0.000000000E+00  0.000000000E+00 -9.908320909E+01  9.908320909E+01  0.000000000E+00  0.00000E+00  9.000E+00
      25     1     1     2     0     0  1.620633506E+02 -3.084938372E+01  3.271370381E+02  3.871173670E+02  1.250000000E+02  0.00000E+00  9.000E+00
      25     1     1     2     0     0 -1.395916408E+02  7.162247840E+01  1.184437861E+02  2.329582282E+02  1.250000000E+02  0.00000E+00  9.000E+00
      21     1     1     2   512   501 -2.247170981E+01 -4.077309467E+01  3.394516843E+01  5.761681570E+01  8.259061849E-07  0.00000E+00  9.000E+00
#rwgt            1           1   3.6012314297248015E-002           1      446798           0
</event>
<event>
      5   9999  3.79277E-02  1.21803E+02 -1.00000E+00  1.20094E-01
      21    -1     0     0   502   501  0.000000000E+00  0.000000000E+00  1.136530344E+03  1.136530344E+03  0.000000000E+00  0.00000E+00  9.000E+00
      21    -1     0     0   511   502  0.000000000E+00  0.000000000E+00 -1.728135337E+02  1.728135337E+02  0.000000000E+00  0.00000E+00  9.000E+00
      25     1     1     2     0     0 -1.604755946E+02  3.217285907E+02  2.237727042E+02  4.415437982E+02  1.250000000E+02  0.00000E+00  9.000E+00
      25     1     1     2     0     0  4.796171112E+01 -2.750758433E+02  6.432107541E+02  7.122584640E+02  1.250000000E+02  0.00000E+00  9.000E+00
      21     1     1     2   511   501  1.125138835E+02 -4.665274740E+01  9.673335237E+01  1.555416159E+02  2.697398305E-06  0.00000E+00  9.000E+00
#rwgt            1           1   2.7475719319549896E-002           1      446911           0
</event>
<event>
      5   9999  3.79277E-02  9.60614E+00 -1.00000E+00  1.97796E-01
      21    -1     0     0   512   501  0.000000000E+00  0.000000000E+00  7.825624535E+01  7.825624535E+01  0.000000000E+00  0.00000E+00  9.000E+00
      21    -1     0     0   501   502  0.000000000E+00  0.000000000E+00 -5.583299225E+02  5.583299225E+02  0.000000000E+00  0.00000E+00  9.000E+00
      25     1     1     2     0     0 -1.047351554E+02  1.113385846E+02 -1.535175570E+02  2.501167197E+02  1.250000000E+02  0.00000E+00  9.000E+00
      25     1     1     2     0     0  9.600694744E+01 -1.073265568E+02 -3.248958276E+02  3.767208815E+02  1.250000000E+02  0.00000E+00  9.000E+00
      21     1     1     2   512   502  8.728207918E+00 -4.012027845E+00 -1.660292660E+00  9.748566695E+00  2.043144286E-07  0.00000E+00  9.000E+00
#rwgt            1           1   3.7240864600453519E-002           1      447058           0
</event>
<event>
      5   9999  3.79277E-02  1.83282E+01 -1.00000E+00  1.69559E-01
      21    -1     0     0   511   501  0.000000000E+00  0.000000000E+00  3.159053720E+02  3.159053720E+02  0.000000000E+00  0.00000E+00  9.000E+00
      21    -1     0     0   501   502  0.000000000E+00  0.000000000E+00 -1.353947498E+02  1.353947498E+02  0.000000000E+00  0.00000E+00  9.000E+00
      25     1     1     2     0     0  6.375761420E+01 -1.443972082E+02  7.472661832E+01  2.147665118E+02  1.250000000E+02  0.00000E+00  9.000E+00
      25     1     1     2     0     0 -7.114869529E+01  1.276253434E+02  8.984386873E+01  2.122434590E+02  1.250000000E+02  0.00000E+00  9.000E+00
      21     1     1     2   511   502  7.391081094E+00  1.677186480E+01  1.594013510E+01  2.429015100E+01  3.371747881E-07  0.00000E+00  9.000E+00
#rwgt            1           1   2.8048599470595001E-002           1      447400           0
</event>
<event>
      5   9999  3.79277E-02  1.31272E+01 -1.00000E+00  1.83020E-01
      21    -1     0     0   502   512  0.000000000E+00  0.000000000E+00  9.795839503E+02  9.795839503E+02  0.000000000E+00  0.00000E+00  9.000E+00
      21    -1     0     0   501   502  0.000000000E+00  0.000000000E+00 -4.304117813E+01  4.304117813E+01  0.000000000E+00  0.00000E+00  9.000E+00
      25     1     1     2     0     0  8.104079624E+01 -1.227522979E+02  4.586385939E+02  4.976043580E+02  1.250000000E+02  0.00000E+00  9.000E+00
      25     1     1     2     0     0 -8.231554809E+01  1.358174097E+02  4.264464475E+02  4.719150250E+02  1.250000000E+02  0.00000E+00  9.000E+00
      21     1     1     2   501   512  1.274751846E+00 -1.306511188E+01  5.145773076E+01  5.310574541E+01  0.000000000E+00  0.00000E+00  9.000E+00
#rwgt            1           1   3.2733941721103006E-002           1      447581           0
</event>
<event>
      5   9999 -3.79277E-02  1.96886E+01 -1.00000E+00  1.66933E-01
      21    -1     0     0   502   501  0.000000000E+00  0.000000000E+00  3.820205058E+01  3.820205058E+01  0.000000000E+00  0.00000E+00  9.000E+00
       2    -1     0     0   501     0  0.000000000E+00  0.000000000E+00 -1.742852451E+03  1.742852451E+03  0.000000000E+00  0.00000E+00  9.000E+00
      25     1     1     2     0     0  1.031461122E+02  1.339174952E+02 -8.725572751E+02  8.975267206E+02  1.250000000E+02  0.00000E+00  9.000E+00
      25     1     1     2     0     0 -9.531255681E+01 -1.519806616E+02 -4.438250452E+02  4.947608268E+02  1.250000000E+02  0.00000E+00  9.000E+00
       2     1     1     2   502     0 -7.833555386E+00  1.806316643E+01 -3.882680802E+02  3.887669542E+02  5.394796609E-06  0.00000E+00  9.000E+00
#rwgt            1           1 -0.28146273815178580                1      447853           0
</event>
<event>
      5   9999  3.79277E-02  2.96147E+01 -1.00000E+00  1.53431E-01
      21    -1     0     0   511   501  0.000000000E+00  0.000000000E+00  7.057652022E+02  7.057652022E+02  0.000000000E+00  0.00000E+00  9.000E+00
      21    -1     0     0   501   502  0.000000000E+00  0.000000000E+00 -1.717250135E+02  1.717250135E+02  0.000000000E+00  0.00000E+00  9.000E+00
      25     1     1     2     0     0 -1.293129985E+02  1.199092996E+02 -6.494886637E+01  2.257065505E+02  1.250000000E+02  0.00000E+00  9.000E+00
      25     1     1     2     0     0  1.049614318E+02 -1.367625633E+02  4.257835215E+02  4.760646049E+02  1.250000000E+02  0.00000E+00  9.000E+00
      21     1     1     2   511   502  2.435156666E+01  1.685326368E+01  1.732055335E+02  1.757190603E+02  0.000000000E+00  0.00000E+00  9.000E+00
#rwgt            1           1   3.0957966808088190E-002           1      448058           0
</event>
<event>
      5   9999  3.79277E-02  8.17909E+01 -1.00000E+00  1.27886E-01
      -1    -1     0     0     0   501  0.000000000E+00  0.000000000E+00  9.452561793E+02  9.452561793E+02  0.000000000E+00  0.00000E+00  9.000E+00
      21    -1     0     0   501   502  0.000000000E+00  0.000000000E+00 -3.357142349E+02  3.357142349E+02  0.000000000E+00  0.00000E+00  9.000E+00
      25     1     1     2     0     0 -1.995379490E+02  1.680847952E+02 -6.207960968E+01  2.958830333E+02  1.250000000E+02  0.00000E+00  9.000E+00
      25     1     1     2     0     0  2.309873599E+02 -9.258190430E+01 -2.874561427E+01  2.799604968E+02  1.250000000E+02  0.00000E+00  9.000E+00
      -1     1     1     2     0   502 -3.144941087E+01 -7.550289091E+01  7.003671684E+02  7.051268840E+02  7.629394531E-06  0.00000E+00  9.000E+00
#rwgt            1           1   3.5738038047851139E-002           1      448254           0
</event>
<event>
      5   9999  3.79277E-02  4.66984E+01 -1.00000E+00  1.40790E-01
      21    -1     0     0   502   511  0.000000000E+00  0.000000000E+00  1.335360943E+03  1.335360943E+03  0.000000000E+00  0.00000E+00  9.000E+00
      21    -1     0     0   501   502  0.000000000E+00  0.000000000E+00 -6.323374676E+01  6.323374676E+01  0.000000000E+00  0.00000E+00  9.000E+00
      25     1     1     2     0     0  1.853027418E+02  1.393214832E+02  4.329016124E+02  5.067310804E+02  1.250000000E+02  0.00000E+00  9.000E+00
      25     1     1     2     0     0 -1.404112290E+02 -1.264572213E+02  4.937993151E+02  5.432950447E+02  1.250000000E+02  0.00000E+00  9.000E+00
      21     1     1     2   501   511 -4.489151276E+01 -1.286426189E+01  3.454262691E+02  3.485685651E+02  0.000000000E+00  0.00000E+00  9.000E+00
#rwgt            1           1   4.0617186925520604E-002           1      448515           0
</event>
<event>
      5   9999  3.79277E-02  9.18474E+01 -1.00000E+00  1.25512E-01
      21    -1     0     0   502   512  0.000000000E+00  0.000000000E+00  6.432624832E+01  6.432624832E+01  0.000000000E+00  0.00000E+00  9.000E+00
      21    -1     0     0   501   502  0.000000000E+00  0.000000000E+00 -6.992909897E+02  6.992909897E+02  0.000000000E+00  0.00000E+00  9.000E+00
      25     1     1     2     0     0  5.632050683E+01 -6.022966953E+01 -1.020883281E+02  1.812364183E+02  1.250000000E+02  0.00000E+00  9.000E+00
      25     1     1     2     0     0  2.796857928E+01  2.374285068E+01 -4.013199893E+02  4.219344714E+02  1.250000000E+02  0.00000E+00  9.000E+00
      21     1     1     2   501   512 -8.428908610E+01  3.648681885E+01 -1.315564239E+02  1.604463482E+02  1.907348633E-06  0.00000E+00  9.000E+00
#rwgt            1           1   5.5786164471829366E-002           1      448673           0
</event>
<event>
      5   9999  3.79277E-02  1.92291E+01 -1.00000E+00  1.67790E-01
      21    -1     0     0   502   501  0.000000000E+00  0.000000000E+00  1.498448094E+02  1.498448094E+02  0.000000000E+00  0.00000E+00  9.000E+00
      21    -1     0     0   511   502  0.000000000E+00  0.000000000E+00 -3.257684018E+02  3.257684018E+02  0.000000000E+00  0.00000E+00  9.000E+00
      25     1     1     2     0     0  7.597594173E+01  7.279107297E+01  6.611358827E+01  1.762580227E+02  1.250000000E+02  0.00000E+00  9.000E+00
      25     1     1     2     0     0 -5.746690847E+01 -6.757835636E+01 -1.915345334E+02  2.453156279E+02  1.250000000E+02  0.00000E+00  9.000E+00
      21     1     1     2   511   501 -1.850903325E+01 -5.212716612E+00 -5.050264717E+01  5.403956049E+01  6.743495762E-07  0.00000E+00  9.000E+00
#rwgt            1           1   4.1317891267821642E-002           1      448777           0
</event>
<event>
      5   9999  3.79277E-02  2.16324E+01 -1.00000E+00  1.63606E-01
      21    -1     0     0   502   501  0.000000000E+00  0.000000000E+00  2.020515831E+02  2.020515831E+02  0.000000000E+00  0.00000E+00  9.000E+00
       2    -1     0     0   501     0  0.000000000E+00  0.000000000E+00 -4.474987326E+03  4.474987326E+03  0.000000000E+00  0.00000E+00  9.000E+00
      25     1     1     2     0     0  6.455275887E+01  1.134509972E+02  3.364471647E+01  1.838345843E+02  1.250000000E+02  0.00000E+00  9.000E+00
      25     1     1     2     0     0 -8.356070629E+01 -1.031235026E+02  4.197797511E+00  1.823717904E+02  1.250000000E+02  0.00000E+00  9.000E+00
       2     1     1     2   502     0  1.900794742E+01 -1.032749458E+01 -4.310778257E+03  4.310832534E+03  6.103515625E-05  0.00000E+00  9.000E+00
#rwgt            2          13   2.0749018787419582E-003           1      449074           0
</event>
<event>
      5   9999  3.79277E-02  2.09027E+01 -1.00000E+00  1.64803E-01
      21    -1     0     0   511   501  0.000000000E+00  0.000000000E+00  2.528941439E+02  2.528941439E+02  0.000000000E+00  0.00000E+00  9.000E+00
      21    -1     0     0   501   502  0.000000000E+00  0.000000000E+00 -1.963702390E+02  1.963702390E+02  0.000000000E+00  0.00000E+00  9.000E+00
      25     1     1     2     0     0  2.207227026E+01  1.505293130E+02 -6.253959316E+01  2.065973376E+02  1.250000000E+02  0.00000E+00  9.000E+00
      25     1     1     2     0     0 -3.783712955E+01 -1.368036657E+02  9.809629112E+01  2.130604930E+02  1.250000000E+02  0.00000E+00  9.000E+00
      21     1     1     2   511   502  1.576485929E+01 -1.372564724E+01  2.096720690E+01  2.960655242E+01  4.129530925E-07  0.00000E+00  9.000E+00
#rwgt            1           1   4.1645313528243182E-002           1      449093           0
</event>
<event>
      5   9999  3.79277E-02  2.73688E+01 -1.00000E+00  1.55861E-01
      21    -1     0     0   502   501  0.000000000E+00  0.000000000E+00  2.129805315E+02  2.129805315E+02  0.000000000E+00  0.00000E+00  9.000E+00
      21    -1     0     0   501   512  0.000000000E+00  0.000000000E+00 -2.291294228E+02  2.291294228E+02  0.000000000E+00  0.00000E+00  9.000E+00
      25     1     1     2     0     0 -1.463990288E+02  1.399956753E+01  3.181321832E+01  1.956163193E+02  1.250000000E+02  0.00000E+00  9.000E+00
      25     1     1     2     0     0  1.474469373E+02  1.334914023E+01 -2.915022661E+00  1.937841486E+02  1.250000000E+02  0.00000E+00  9.000E+00
      21     1     1     2   502   512 -1.047908590E+00 -2.734870776E+01 -4.504708694E+01  5.270948653E+01  0.000000000E+00  0.00000E+00  9.000E+00
#rwgt            1           1   4.0514662151033456E-002           1      449303           0
</event>
<event>
      5   9999  3.79277E-02  3.98837E+01 -1.00000E+00  1.44919E-01
      21    -1     0     0   502   511  0.000000000E+00  0.000000000E+00  8.629927695E+02  8.629927695E+02  0.000000000E+00  0.00000E+00  9.000E+00
      21    -1     0     0   501   502  0.000000000E+00  0.000000000E+00 -3.865335757E+02  3.865335757E+02  0.000000000E+00  0.00000E+00  9.000E+00
      25     1     1     2     0     0  1.036165631E+02  1.577882593E+02 -1.011802770E+02  2.479838208E+02  1.250000000E+02  0.00000E+00  9.000E+00
      25     1     1     2     0     0 -7.133041710E+01 -1.812044246E+02 -1.480796145E+02  2.747283097E+02  1.250000000E+02  0.00000E+00  9.000E+00
      21     1     1     2   501   511 -3.228614601E+01  2.341616532E+01  7.257190853E+02  7.268142147E+02  0.000000000E+00  0.00000E+00  9.000E+00
#rwgt            1           1   3.9699963251514793E-002           1      449448           0
</event>
<event>
      5   9999  3.79277E-02  4.10623E+01 -1.00000E+00  1.44138E-01
      21    -1     0     0   502   512  0.000000000E+00  0.000000000E+00  2.413916666E+03  2.413916666E+03  0.000000000E+00  0.00000E+00  9.000E+00
      21    -1     0     0   501   502  0.000000000E+00  0.000000000E+00 -8.743978504E+01  8.743978504E+01  0.000000000E+00  0.00000E+00  9.000E+00
      25     1     1     2     0     0  7.788493509E+01  8.193601390E+01  4.794479105E+02  5.082075091E+02  1.250000000E+02  0.00000E+00  9.000E+00
      25     1     1     2     0     0 -8.057783874E+01 -1.229098894E+02  5.496350437E+01  2.006130998E+02  1.250000000E+02  0.00000E+00  9.000E+00
      21     1     1     2   501   512  2.692903647E+00  4.097387553E+01  1.792065466E+03  1.792535842E+03  0.000000000E+00  0.00000E+00  9.000E+00
#rwgt            1           1   2.6553582161272859E-002           1      449552           0
</event>
<event>
      5   9999  3.79277E-02  2.19075E+01 -1.00000E+00  1.63170E-01
      21    -1     0     0   502   511  0.000000000E+00  0.000000000E+00  1.818715827E+01  1.818715827E+01  0.000000000E+00  0.00000E+00  9.000E+00
      21    -1     0     0   501   502  0.000000000E+00  0.000000000E+00 -1.931619209E+03  1.931619209E+03  0.000000000E+00  0.00000E+00  9.000E+00
      25     1     1     2     0     0 -1.152676021E+01  9.503484809E+01 -1.119621781E+03  1.130638060E+03  1.250000000E+02  0.00000E+00  9.000E+00
      25     1     1     2     0     0  5.525335859E+00 -1.161042408E+02 -7.596189295E+02  7.785606220E+02  1.250000000E+02  0.00000E+00  9.000E+00
      21     1     1     2   501   511  6.001424350E+00  2.106939274E+01 -3.419133930E+01  4.060768508E+01  4.768371582E-07  0.00000E+00  9.000E+00
#rwgt            1           1  0.16346041445257897                1      449670           0
</event>
<event>
      5   9999 -3.79277E-02  1.02384E+02 -1.00000E+00  1.23370E-01
      21    -1     0     0   502   501  0.000000000E+00  0.000000000E+00  5.149785149E+02  5.149785149E+02  0.000000000E+00  0.00000E+00  9.000E+00
      21    -1     0     0   512   502  0.000000000E+00  0.000000000E+00 -2.143502074E+02  2.143502074E+02  0.000000000E+00  0.00000E+00  9.000E+00
      25     1     1     2     0     0 -8.179727970E+01  5.819813851E+01  3.618768958E+02  3.958000834E+02  1.250000000E+02  0.00000E+00  9.000E+00
      25     1     1     2     0     0  1.686026810E+02 -3.909839969E+00 -8.813625768E+01  2.276733423E+02  1.250000000E+02  0.00000E+00  9.000E+00
      21     1     1     2   512   501 -8.680540126E+01 -5.428829854E+01  2.688766931E+01  1.058552966E+02  1.168007728E-06  0.00000E+00  9.000E+00
#rwgt            1           1  -4.6500472705656624E-002           1      449880           0
</event>
<event>
      5   9999  3.79277E-02  1.22950E+02 -1.00000E+00  1.19922E-01
      21    -1     0     0   502   511  0.000000000E+00  0.000000000E+00  1.027457232E+03  1.027457232E+03  0.000000000E+00  0.00000E+00  9.000E+00
      21    -1     0     0   501   502  0.000000000E+00  0.000000000E+00 -6.906942708E+01  6.906942708E+01  0.000000000E+00  0.00000E+00  9.000E+00
      25     1     1     2     0     0 -1.264474057E+01 -1.677022189E+01  4.851950103E+01  1.357213019E+02  1.250000000E+02  0.00000E+00  9.000E+00
      25     1     1     2     0     0 -5.236347281E+01  1.211288680E+02  4.651268968E+02  4.993817839E+02  1.250000000E+02  0.00000E+00  9.000E+00
      21     1     1     2   501   511  6.500821338E+01 -1.043586461E+02  4.447414068E+02  4.614235730E+02  7.629394531E-06  0.00000E+00  9.000E+00
#rwgt            1           1   3.3689322960151834E-002           1      449960           0
</event>
<event>
      5   9999  3.79277E-02  7.21699E+01 -1.00000E+00  1.30553E-01
      21    -1     0     0   502   501  0.000000000E+00  0.000000000E+00  4.416133694E+01  4.416133694E+01  0.000000000E+00  0.00000E+00  9.000E+00
       2    -1     0     0   501     0  0.000000000E+00  0.000000000E+00 -1.425101044E+03  1.425101044E+03  0.000000000E+00  0.00000E+00  9.000E+00
      25     1     1     2     0     0 -1.252465576E+02  1.617939623E+01 -3.656886908E+02  4.065731073E+02  1.250000000E+02  0.00000E+00  9.000E+00
      25     1     1     2     0     0  1.184917007E+02 -8.803251651E+01 -9.348368727E+02  9.546386675E+02  1.250000000E+02  0.00000E+00  9.000E+00
       2     1     1     2   502     0  6.754856897E+00  7.185312027E+01 -8.041414377E+01  1.080506062E+02  1.348699152E-06  0.00000E+00  9.000E+00
#rwgt            1           1   5.9772093794678370E-002           1      450034           0
</event>
<event>
      5   9999  3.79277E-02  6.33765E+00 -1.00000E+00  2.21841E-01
       2    -1     0     0   502     0  0.000000000E+00  0.000000000E+00  2.755476111E+02  2.755476111E+02  0.000000000E+00  0.00000E+00  9.000E+00
      21    -1     0     0   501   502  0.000000000E+00  0.000000000E+00 -2.140747704E+02  2.140747704E+02  0.000000000E+00  0.00000E+00  9.000E+00
      25     1     1     2     0     0  1.309203138E+02  1.124284957E+02  3.102498791E+01  2.153319416E+02  1.250000000E+02  0.00000E+00  9.000E+00
      25     1     1     2     0     0 -1.330425037E+02 -1.064567209E+02 -3.005924728E+01  2.134523356E+02  1.250000000E+02  0.00000E+00  9.000E+00
       2     1     1     2   501     0  2.122189943E+00 -5.971774837E+00  6.050710009E+01  6.083810439E+01  0.000000000E+00  0.00000E+00  9.000E+00
#rwgt            1           1   4.0847968322904403E-002           1      450204           0
</event>
<event>
      5   9999  3.79277E-02  9.11768E+01 -1.00000E+00  1.25659E-01
      -1    -1     0     0     0   501  0.000000000E+00  0.000000000E+00  8.857406823E+02  8.857406823E+02  0.000000000E+00  0.00000E+00  9.000E+00
      21    -1     0     0   501   502  0.000000000E+00  0.000000000E+00 -1.319262074E+02  1.319262074E+02  0.000000000E+00  0.00000E+00  9.000E+00
      25     1     1     2     0     0  7.611425398E+01  4.316401417E+01 -1.152474783E+01  1.530174225E+02  1.250000000E+02  0.00000E+00  9.000E+00
      25     1     1     2     0     0 -1.468183097E+02  1.440461279E+01  1.557699327E+02  2.482989748E+02  1.250000000E+02  0.00000E+00  9.000E+00
      -1     1     1     2     0   502  7.070405572E+01 -5.756862696E+01  6.095692899E+02  6.163504925E+02  1.321449896E-05  0.00000E+00  9.000E+00
#rwgt            1           1   4.6304130346416478E-002           1      450690           0
</event>
<event>
      5   9999  3.79277E-02  4.45657E+01 -1.00000E+00  1.41988E-01
      21    -1     0     0   502   501  0.000000000E+00  0.000000000E+00  9.966950253E+02  9.966950253E+02  0.000000000E+00  0.00000E+00  9.000E+00
      21    -1     0     0   501   511  0.000000000E+00  0.000000000E+00 -1.328074673E+02  1.328074673E+02  0.000000000E+00  0.00000E+00  9.000E+00
      25     1     1     2     0     0  6.759826458E+00 -2.189152014E+02  1.428566871E+02  2.898320095E+02  1.250000000E+02  0.00000E+00  9.000E+00
      25     1     1     2     0     0 -4.346752311E+01  1.936438134E+02  7.504640984E+02  7.862624976E+02  1.250000000E+02  0.00000E+00  9.000E+00
      21     1     1     2   502   511  3.670769666E+01  2.527138804E+01 -2.943322751E+01  5.340798563E+01  1.430511475E-06  0.00000E+00  9.000E+00
#rwgt            1           1   2.1737983218045317E-002           1      450805           0
</event>
<event>
      5   9999  3.79277E-02  5.70232E+01 -1.00000E+00  1.35895E-01
      21    -1     0     0   502   512  0.000000000E+00  0.000000000E+00  2.047303410E+02  2.047303410E+02  0.000000000E+00  0.00000E+00  9.000E+00
      21    -1     0     0   501   502  0.000000000E+00  0.000000000E+00 -8.111569465E+02  8.111569465E+02  0.000000000E+00  0.00000E+00  9.000E+00
      25     1     1     2     0     0  2.651909945E+02 -1.414834039E+02 -4.443620502E+02  5.508415823E+02  1.250000000E+02  0.00000E+00  9.000E+00
      25     1     1     2     0     0 -2.872621423E+02  1.940620270E+02 -1.728028847E+02  4.070202031E+02  1.250000000E+02  0.00000E+00  9.000E+00
      21     1     1     2   501   512  2.207114783E+01 -5.257862311E+01  1.073832939E+01  5.802550209E+01  6.637292341E-07  0.00000E+00  9.000E+00
#rwgt            1           1   3.5113118309620453E-002           1      450933           0
</event>
<event>
      5   9999  3.79277E-02  6.00675E+01 -1.00000E+00  1.34677E-01
      21    -1     0     0   511   501  0.000000000E+00  0.000000000E+00  2.411124730E+02  2.411124730E+02  0.000000000E+00  0.00000E+00  9.000E+00
      21    -1     0     0   501   502  0.000000000E+00  0.000000000E+00 -4.534126429E+02  4.534126429E+02  0.000000000E+00  0.00000E+00  9.000E+00
      25     1     1     2     0     0  1.281313331E+01 -2.521382528E+02 -1.678779404E+02  3.279418817E+02  1.250000000E+02  0.00000E+00  9.000E+00
      25     1     1     2     0     0  4.598112768E+01  2.398362315E+02 -9.264061871E+01  2.895564992E+02  1.250000000E+02  0.00000E+00  9.000E+00
      21     1     1     2   511   502 -5.879426099E+01  1.230202132E+01  4.821838918E+01  7.702673502E+01  1.507891493E-06  0.00000E+00  9.000E+00
#rwgt            1           1   3.6055157016539795E-002           1      451151           0
</event>
<event>
      5   9999  3.79277E-02  1.79536E+01 -1.00000E+00  1.70332E-01
      21    -1     0     0   512   501  0.000000000E+00  0.000000000E+00  2.005017133E+02  2.005017133E+02  0.000000000E+00  0.00000E+00  9.000E+00
      21    -1     0     0   501   502  0.000000000E+00  0.000000000E+00 -1.551370606E+02  1.551370606E+02  0.000000000E+00  0.00000E+00  9.000E+00
      25     1     1     2     0     0 -4.702411546E+01 -9.783017951E+01  2.720875869E+00  1.655729888E+02  1.250000000E+02  0.00000E+00  9.000E+00
      25     1     1     2     0     0  6.358315689E+01  9.089266550E+01  3.624361783E+01  1.710055388E+02  1.250000000E+02  0.00000E+00  9.000E+00
      21     1     1     2   512   502 -1.655904143E+01  6.937514017E+00  6.400158956E+00  1.906024629E+01  1.685873940E-07  0.00000E+00  9.000E+00
#rwgt            1           1   3.3424958777160979E-002           1      451262           0
</event>
<event>
      5   9999  3.79277E-02  1.81548E+02 -1.00000E+00  1.13200E-01
      21    -1     0     0   502   501  0.000000000E+00  0.000000000E+00  4.063862285E+02  4.063862285E+02  0.000000000E+00  0.00000E+00  9.000E+00
      21    -1     0     0   501   511  0.000000000E+00  0.000000000E+00 -2.779948433E+02  2.779948433E+02  0.000000000E+00  0.00000E+00  9.000E+00
      25     1     1     2     0     0  1.516246857E+02  5.321789715E+01  1.863761449E+02  2.760131470E+02  1.250000000E+02  0.00000E+00  9.000E+00
      25     1     1     2     0     0 -8.279979485E+01  1.147788015E+02  5.231658441E+01  1.959387769E+02  1.250000000E+02  0.00000E+00  9.000E+00
      21     1     1     2   502   511 -6.882489089E+01 -1.679966987E+02 -1.103013441E+02  2.124291479E+02  1.907348633E-06  0.00000E+00  9.000E+00
#rwgt            1           1   4.0811672597929033E-002           1      451406           0
</event>
<event>
      5   9999  3.79277E-02  6.41397E+01 -1.00000E+00  1.33173E-01
      21    -1     0     0   502   501  0.000000000E+00  0.000000000E+00  5.592466248E+02  5.592466248E+02  0.000000000E+00  0.00000E+00  9.000E+00
      21    -1     0     0   512   502  0.000000000E+00  0.000000000E+00 -1.468214408E+02  1.468214408E+02  0.000000000E+00  0.00000E+00  9.000E+00
      25     1     1     2     0     0 -3.857690586E+01 -4.193385556E+01  7.447366725E+01  1.562624492E+02  1.250000000E+02  0.00000E+00  9.000E+00
      25     1     1     2     0     0 -1.501679981E+01  7.717050783E+01  4.202650880E+02  4.454531802E+02  1.250000000E+02  0.00000E+00  9.000E+00
      21     1     1     2   512   501  5.359370567E+01 -3.523665227E+01 -8.231357126E+01  1.043524363E+02  1.651812370E-06  0.00000E+00  9.000E+00
#rwgt            1           1   2.6768988859637639E-002           1      451468           0
</event>
<event>
      5   9999  3.79277E-02  5.57642E+01 -1.00000E+00  1.36425E-01
      21    -1     0     0   511   501  0.000000000E+00  0.000000000E+00  1.399679134E+03  1.399679134E+03  0.000000000E+00  0.00000E+00  9.000E+00
      21    -1     0     0   501   502  0.000000000E+00  0.000000000E+00 -1.569272367E+02  1.569272367E+02  0.000000000E+00  0.00000E+00  9.000E+00
      25     1     1     2     0     0 -2.233887644E+01  1.483147191E+02  1.879351704E+02  2.709998332E+02  1.250000000E+02  0.00000E+00  9.000E+00
      25     1     1     2     0     0  1.866338417E+01 -9.267176413E+01 -6.116417225E+01  1.682332718E+02  1.250000000E+02  0.00000E+00  9.000E+00
      21     1     1     2   511   502  3.675492275E+00 -5.564295501E+01  1.115980899E+03  1.117373266E+03  2.157918644E-05  0.00000E+00  9.000E+00
#rwgt            1           1   2.8256245169457683E-002           1      451516           0
</event>
<event>
      5   9999  3.79277E-02  4.80932E+01 -1.00000E+00  1.40046E-01
      21    -1     0     0   502   501  0.000000000E+00  0.000000000E+00  1.326385330E+03  1.326385330E+03  0.000000000E+00  0.00000E+00  9.000E+00
      21    -1     0     0   512   502  0.000000000E+00  0.000000000E+00 -1.521868236E+02  1.521868236E+02  0.000000000E+00  0.00000E+00  9.000E+00
      25     1     1     2     0     0 -2.476474767E+01  1.618748226E+02  1.061456408E+03  1.081263824E+03  1.250000000E+02  0.00000E+00  9.000E+00
      25     1     1     2     0     0  6.905943187E+01 -1.431414211E+02  2.083205227E+02  2.903120936E+02  1.250000000E+02  0.00000E+00  9.000E+00
      21     1     1     2   512   501 -4.429468420E+01 -1.873340158E+01 -9.557842414E+01  1.069962361E+02  4.473129043E-06  0.00000E+00  9.000E+00
#rwgt            1           1   3.6240240494136058E-002           1      451576           0
</event>
<event>
      5   9999  3.79277E-02  1.48629E+02 -1.00000E+00  1.16552E-01
       3    -1     0     0   502     0  0.000000000E+00  0.000000000E+00  3.239519687E+03  3.239519687E+03  0.000000000E+00  0.00000E+00  9.000E+00
      21    -1     0     0   501   502  0.000000000E+00  0.000000000E+00 -1.236945620E+02  1.236945620E+02  0.000000000E+00  0.00000E+00  9.000E+00
      25     1     1     2     0     0 -3.031940152E+01 -9.186713969E+00  3.958557359E+02  4.163297077E+02  1.250000000E+02  0.00000E+00  9.000E+00
      25     1     1     2     0     0  7.385777094E+00  1.560353228E+02 -2.165448079E+01  2.012349080E+02  1.250000000E+02  0.00000E+00  9.000E+00
       3     1     1     2   501     0  2.293362443E+01 -1.468486088E+02  2.741623870E+03  2.745649633E+03  3.051757812E-05  0.00000E+00  9.000E+00
#rwgt            1           1   4.1994899464259695E-002           1      451761           0
</event>
<event>
      5   9999  3.79277E-02  1.26419E+01 -1.00000E+00  1.84680E-01
      21    -1     0     0   502   501  0.000000000E+00  0.000000000E+00  1.518955093E+02  1.518955093E+02  0.000000000E+00  0.00000E+00  9.000E+00
       1    -1     0     0   501     0  0.000000000E+00  0.000000000E+00 -5.288614625E+02  5.288614625E+02  0.000000000E+00  0.00000E+00  9.000E+00
      25     1     1     2     0     0  4.351545889E+01  6.134443633E+01 -1.672045882E+02  2.218988719E+02  1.250000000E+02  0.00000E+00  9.000E+00
      25     1     1     2     0     0 -3.953660679E+01 -7.334382099E+01  7.906116939E+01  1.697590288E+02  1.250000000E+02  0.00000E+00  9.000E+00
       1     1     1     2   502     0 -3.978852100E+00  1.199938466E+01 -2.888225344E+02  2.890990711E+02  0.000000000E+00  0.00000E+00  9.000E+00
#rwgt            1           1   3.9012163368638497E-002           1      451822           0
</event>
<event>
      5   9999  3.79277E-02  7.73200E+01 -1.00000E+00  1.29070E-01
      21    -1     0     0   502   501  0.000000000E+00  0.000000000E+00  2.017455680E+01  2.017455680E+01  0.000000000E+00  0.00000E+00  9.000E+00
      21    -1     0     0   511   502  0.000000000E+00  0.000000000E+00 -2.364410867E+03  2.364410867E+03  0.000000000E+00  0.00000E+00  9.000E+00
      25     1     1     2     0     0 -1.070899606E+01  1.050479711E+02 -7.817855429E+02  7.987261069E+02  1.250000000E+02  0.00000E+00  9.000E+00
      25     1     1     2     0     0  7.664832324E+01 -6.466984279E+01 -6.247630537E+02  6.449891684E+02  1.250000000E+02  0.00000E+00  9.000E+00
      21     1     1     2   511   501 -6.593932718E+01 -4.037812831E+01 -9.376877133E+02  9.408701482E+02  1.078959322E-05  0.00000E+00  9.000E+00
#rwgt            1           1   5.1791847811130096E-002           1      452025           0
</event>
<event>
      5   9999  3.79277E-02  1.03328E+02 -1.00000E+00  1.23192E-01
      21    -1     0     0   502   512  0.000000000E+00  0.000000000E+00  5.538210657E+02  5.538210657E+02  0.000000000E+00  0.00000E+00  9.000E+00
      21    -1     0     0   501   502  0.000000000E+00  0.000000000E+00 -1.272579335E+02  1.272579335E+02  0.000000000E+00  0.00000E+00  9.000E+00
      25     1     1     2     0     0  1.161204386E+02  8.390251392E+01  2.053353302E+02  2.798413585E+02  1.250000000E+02  0.00000E+00  9.000E+00
      25     1     1     2     0     0 -1.876705181E+02 -9.355435542E+00  1.159574936E+02  2.537299507E+02  1.250000000E+02  0.00000E+00  9.000E+00
      21     1     1     2   501   512  7.155007956E+01 -7.454707837E+01  1.052703083E+02  1.475076899E+02  1.907348633E-06  0.00000E+00  9.000E+00
#rwgt            2          11   2.8058189704860148E-003           1      452138           0
</event>
<event>
      5   9999  3.79277E-02  1.80318E+01 -1.00000E+00  1.70169E-01
      21    -1     0     0   502   501  0.000000000E+00  0.000000000E+00  2.738439850E+01  2.738439850E+01  0.000000000E+00  0.00000E+00  9.000E+00
      21    -1     0     0   501   511  0.000000000E+00  0.000000000E+00 -1.253169418E+03  1.253169418E+03  0.000000000E+00  0.00000E+00  9.000E+00
      25     1     1     2     0     0 -1.012423210E+02  5.046549446E+01 -7.882182447E+02  8.060457648E+02  1.250000000E+02  0.00000E+00  9.000E+00
      25     1     1     2     0     0  8.648439082E+01 -6.082652082E+01 -3.705352656E+02  4.050935676E+02  1.250000000E+02  0.00000E+00  9.000E+00
      21     1     1     2   502   511  1.475793014E+01  1.036102635E+01 -6.703150882E+01  6.941448367E+01  9.536743164E-07  0.00000E+00  9.000E+00
#rwgt            1           1   3.2608972736497953E-002           1      452188           0
</event>
<event>
      5   9999  3.79277E-02  2.19156E+01 -1.00000E+00  1.63157E-01
      21    -1     0     0   512   501  0.000000000E+00  0.000000000E+00  3.860457211E+02  3.860457211E+02  0.000000000E+00  0.00000E+00  9.000E+00
      21    -1     0     0   501   502  0.000000000E+00  0.000000000E+00 -1.091793468E+02  1.091793468E+02  0.000000000E+00  0.00000E+00  9.000E+00
      25     1     1     2     0     0 -1.326664873E+02  5.975205646E+01  6.879105234E+01  2.037839885E+02  1.250000000E+02  0.00000E+00  9.000E+00
      25     1     1     2     0     0  1.117678015E+02 -6.635033254E+01  1.718480576E+02  2.491007085E+02  1.250000000E+02  0.00000E+00  9.000E+00
      21     1     1     2   512   502  2.089868580E+01  6.598276084E+00  3.622726445E+01  4.234037087E+01  4.768371582E-07  0.00000E+00  9.000E+00
#rwgt            1           1   4.4521459394003239E-002           1      452363           0
</event>
<event>
      5   9999  3.79277E-02  4.09674E+01 -1.00000E+00  1.44199E-01
      21    -1     0     0   511   501  0.000000000E+00  0.000000000E+00  2.321074786E+02  2.321074786E+02  0.000000000E+00  0.00000E+00  9.000E+00
      21    -1     0     0   501   502  0.000000000E+00  0.000000000E+00 -2.560710785E+02  2.560710785E+02  0.000000000E+00  0.00000E+00  9.000E+00
      25     1     1     2     0     0 -1.101509653E+02  2.351790510E+01 -7.464616938E+01  1.840743807E+02  1.250000000E+02  0.00000E+00  9.000E+00
      25     1     1     2     0     0  1.486363722E+02 -3.756075195E+01 -4.249114117E+01  2.023217198E+02  1.250000000E+02  0.00000E+00  9.000E+00
      21     1     1     2   511   502 -3.848540694E+01  1.404284685E+01  9.317371069E+01  1.017824565E+02  1.348699152E-06  0.00000E+00  9.000E+00
#rwgt            1           1   4.2403935370716336E-002           1      452491           0
</event>
<event>
      5   9999  3.79277E-02  1.61935E+02 -1.00000E+00  1.15091E-01
      21    -1     0     0   512   501  0.000000000E+00  0.000000000E+00  3.396421304E+02  3.396421304E+02  0.000000000E+00  0.00000E+00  9.000E+00
      21    -1     0     0   501   502  0.000000000E+00  0.000000000E+00 -3.154604474E+02  3.154604474E+02  0.000000000E+00  0.00000E+00  9.000E+00
      25     1     1     2     0     0 -6.780164488E+01 -1.570286834E+02 -1.741742153E+02  2.742566822E+02  1.250000000E+02  0.00000E+00  9.000E+00
      25     1     1     2     0     0  8.608637440E+01 -3.870812097E+00  1.460596843E+02  2.106757661E+02  1.250000000E+02  0.00000E+00  9.000E+00
      21     1     1     2   512   502 -1.828472952E+01  1.608994955E+02  5.229621392E+01  1.701701295E+02  6.743495762E-07  0.00000E+00  9.000E+00
#rwgt            1           1   4.8775937986392501E-002           1      452749           0
</event>
<event>
      5   9999  3.79277E-02  1.52752E+01 -1.00000E+00  1.76643E-01
      21    -1     0     0   502   501  0.000000000E+00  0.000000000E+00  1.266894508E+03  1.266894508E+03  0.000000000E+00  0.00000E+00  9.000E+00
      21    -1     0     0   501   511  0.000000000E+00  0.000000000E+00 -5.041180879E+01  5.041180879E+01  0.000000000E+00  0.00000E+00  9.000E+00
      25     1     1     2     0     0  1.389078678E+02  2.954009107E+01  1.005222267E+03  1.022870871E+03  1.250000000E+02  0.00000E+00  9.000E+00
      25     1     1     2     0     0 -1.311087157E+02 -4.267417610E+01  2.074437448E+02  2.786906670E+02  1.250000000E+02  0.00000E+00  9.000E+00
      21     1     1     2   502   511 -7.799152099E+00  1.313408503E+01  3.816687793E+00  1.574477909E+01  3.291774099E-07  0.00000E+00  9.000E+00
#rwgt            1           1   4.9260336102712431E-002           1      452887           0
</event>
<event>
      5   9999  3.79277E-02  1.55618E+01 -1.00000E+00  1.75892E-01
      21    -1     0     0   512   501  0.000000000E+00  0.000000000E+00  6.586460073E+01  6.586460073E+01  0.000000000E+00  0.00000E+00  9.000E+00
      21    -1     0     0   501   502  0.000000000E+00  0.000000000E+00 -5.519413986E+02  5.519413986E+02  0.000000000E+00  0.00000E+00  9.000E+00
      25     1     1     2     0     0 -5.388048678E+01 -3.228613988E+01 -3.993828657E+01  1.454839112E+02  1.250000000E+02  0.00000E+00  9.000E+00
      25     1     1     2     0     0  4.332681386E+01  2.084985090E+01 -4.277816314E+02  4.482566823E+02  1.250000000E+02  0.00000E+00  9.000E+00
      21     1     1     2   512   502  1.055367292E+01  1.143628898E+01 -1.835687996E+01  2.406540587E+01  2.384185791E-07  0.00000E+00  9.000E+00
#rwgt            1           1   3.6203654534000700E-002           1      453112           0
</event>
<event>
      5   9999 -4.88767E-02  2.48573E+01 -1.00000E+00  1.58937E-01
      21    -1     0     0   502   511  0.000000000E+00  0.000000000E+00  4.045383884E+02  4.045383884E+02  0.000000000E+00  0.00000E+00  9.000E+00
      21    -1     0     0   501   502  0.000000000E+00  0.000000000E+00 -5.621204371E+02  5.621204371E+02  0.000000000E+00  0.00000E+00  9.000E+00
      25     1     1     2     0     0  8.244584458E+01  1.803702847E+02 -2.405021477E+02  3.358527058E+02  1.250000000E+02  0.00000E+00  9.000E+00
      25     1     1     2     0     0 -1.072910678E+02 -1.811458184E+02 -2.186188235E+02  3.282443766E+02  1.250000000E+02  0.00000E+00  9.000E+00
      21     1     1     2   501   511  2.484522325E+01  7.755337123E-01  3.015389226E+02  3.025617431E+02  3.814697266E-06  0.00000E+00  9.000E+00
#rwgt            1           1 -0.69120169751782357                1      453313           0
</event>
<event>
      5   9999  3.79277E-02  7.14078E+01 -1.00000E+00  1.30784E-01
      21    -1     0     0   512   501  0.000000000E+00  0.000000000E+00  9.340382511E+02  9.340382511E+02  0.000000000E+00  0.00000E+00  9.000E+00
      21    -1     0     0   501   502  0.000000000E+00  0.000000000E+00 -4.854223243E+02  4.854223243E+02  0.000000000E+00  0.00000E+00  9.000E+00
      25     1     1     2     0     0  1.986079746E+02  1.683888725E+02 -2.120968349E+02  3.583434210E+02  1.250000000E+02  0.00000E+00  9.000E+00
      25     1     1     2     0     0 -2.691021429E+02 -1.797751854E+02 -4.674517032E+01  3.500645534E+02  1.250000000E+02  0.00000E+00  9.000E+00
      21     1     1     2   512   502  7.049416831E+01  1.138631285E+01  7.074579320E+02  7.110526011E+02  0.000000000E+00  0.00000E+00  9.000E+00
#rwgt            1           1   1.2767580976895390E-002           1      453441           0
</event>
<event>
      5   9999  3.79277E-02  3.28707E+01 -1.00000E+00  1.50333E-01
      21    -1     0     0   502   501  0.000000000E+00  0.000000000E+00  7.351206204E+01  7.351206204E+01  0.000000000E+00  0.00000E+00  9.000E+00
      21    -1     0     0   501   511  0.000000000E+00  0.000000000E+00 -1.671862801E+03  1.671862801E+03  0.000000000E+00  0.00000E+00  9.000E+00
      25     1     1     2     0     0 -2.524819840E+02  7.540056838E+01 -1.008377312E+03  1.049705769E+03  1.250000000E+02  0.00000E+00  9.000E+00
      25     1     1     2     0     0  2.502875264E+02 -1.081979004E+02 -3.849057477E+02  4.879836740E+02  1.250000000E+02  0.00000E+00  9.000E+00
      21     1     1     2   502   511  2.194457581E+00  3.279733204E+01 -2.050676796E+02  2.076854204E+02  2.697398305E-06  0.00000E+00  9.000E+00
#rwgt            1           1   3.7045492953649714E-002           1      453730           0
</event>
<event>
      5   9999  3.79277E-02  2.59087E+01 -1.00000E+00  1.57598E-01
       2    -1     0     0   502     0  0.000000000E+00  0.000000000E+00  1.538918280E+03  1.538918280E+03  0.000000000E+00  0.00000E+00  9.000E+00
      21    -1     0     0   501   502  0.000000000E+00  0.000000000E+00 -7.590275836E+01  7.590275836E+01  0.000000000E+00  0.00000E+00  9.000E+00
      25     1     1     2     0     0  1.180772780E+02 -1.323171826E+02  5.330980147E+02  5.755593572E+02  1.250000000E+02  0.00000E+00  9.000E+00
      25     1     1     2     0     0 -9.267949753E+01  1.374371691E+02  1.434132090E+02  2.523307616E+02  1.250000000E+02  0.00000E+00  9.000E+00
       2     1     1     2   501     0 -2.539778052E+01 -5.119986520E+00  7.865042977E+02  7.869309194E+02  1.868812365E-05  0.00000E+00  9.000E+00
#rwgt            1           1   4.1716287512865505E-002           1      453841           0
</event>
<event>
      5   9999  3.79277E-02  7.18307E+01 -1.00000E+00  1.30655E-01
      21    -1     0     0   502   501  0.000000000E+00  0.000000000E+00  7.487964943E+01  7.487964943E+01  0.000000000E+00  0.00000E+00  9.000E+00
      21    -1     0     0   501   511  0.000000000E+00  0.000000000E+00 -1.730053714E+03  1.730053714E+03  0.000000000E+00  0.00000E+00  9.000E+00
      25     1     1     2     0     0 -1.229370129E+02 -1.491045309E+02 -2.608463404E+02  3.478670487E+02  1.250000000E+02  0.00000E+00  9.000E+00
      25     1     1     2     0     0  1.722743364E+02  2.013105799E+02 -6.972601756E+02  7.563075757E+02  1.250000000E+02  0.00000E+00  9.000E+00
      21     1     1     2   502   511 -4.933732342E+01 -5.220604901E+01 -6.970675484E+02  7.007587388E+02  7.629394531E-06  0.00000E+00  9.000E+00
#rwgt            1           1   2.7935462615956284E-002           1      454016           0
</event>
<event>
      5   9999  3.79277E-02  6.21313E+01 -1.00000E+00  1.33898E-01
      21    -1     0     0   512   501  0.000000000E+00  0.000000000E+00  2.781487983E+01  2.781487983E+01  0.000000000E+00  0.00000E+00  9.000E+00
      21    -1     0     0   501   502  0.000000000E+00  0.000000000E+00 -1.573999541E+03  1.573999541E+03  0.000000000E+00  0.00000E+00  9.000E+00
      25     1     1     2     0     0  5.800736238E+00 -1.222596818E+02 -5.684658141E+02  5.947768154E+02  1.250000000E+02  0.00000E+00  9.000E+00
      25     1     1     2     0     0 -6.511056493E+01  1.037491975E+02 -7.952996703E+02  8.143278500E+02  1.250000000E+02  0.00000E+00  9.000E+00
      21     1     1     2   512   502  5.930982869E+01  1.851048423E+01 -1.824191769E+02  1.927097556E+02  4.672030912E-06  0.00000E+00  9.000E+00
#rwgt            1           1   5.4475608031475102E-002           1      454253           0
</event>
<event>
      5   9999  3.79277E-02  1.35895E+01 -1.00000E+00  1.81521E-01
      21    -1     0     0   502   511  0.000000000E+00  0.000000000E+00  5.800283172E+01  5.800283172E+01  0.000000000E+00  0.00000E+00  9.000E+00
      21    -1     0     0   501   502  0.000000000E+00  0.000000000E+00 -7.939614069E+02  7.939614069E+02  0.000000000E+00  0.00000E+00  9.000E+00
      25     1     1     2     0     0  6.410329071E+01 -1.562432764E+02 -3.705542707E+02  4.259773008E+02  1.250000000E+02  0.00000E+00  9.000E+00
      25     1     1     2     0     0 -6.858654249E+01  1.434145489E+02 -3.561017600E+02  4.095183880E+02  1.250000000E+02  0.00000E+00  9.000E+00
      21     1     1     2   501   511  4.483251782E+00  1.282872758E+01 -9.302544557E+00  1.646854982E+01  3.576278687E-07  0.00000E+00  9.000E+00
#rwgt            1           1  0.24052987771803946                1      454409           0
</event>
<event>
      5   9999  3.79277E-02  1.17325E+01 -1.00000E+00  1.88063E-01
      21    -1     0     0   502   501  0.000000000E+00  0.000000000E+00  8.225498838E+02  8.225498838E+02  0.000000000E+00  0.00000E+00  9.000E+00
      21    -1     0     0   501   512  0.000000000E+00  0.000000000E+00 -9.080599887E+01  9.080599887E+01  0.000000000E+00  0.00000E+00  9.000E+00
      25     1     1     2     0     0 -1.094399980E+02  1.332403930E+02  5.091873738E+02  5.519301560E+02  1.250000000E+02  0.00000E+00  9.000E+00
      25     1     1     2     0     0  1.144146025E+02 -1.438660446E+02  2.482208698E+02  3.332067530E+02  1.250000000E+02  0.00000E+00  9.000E+00
      21     1     1     2   502   512 -4.974604520E+00  1.062565166E+01 -2.566435870E+01  2.821897359E+01  8.259061849E-07  0.00000E+00  9.000E+00
#rwgt            1           1   4.6048763906623984E-002           1      454648           0
</event>
<event>
      5   9999 -3.79277E-02  8.41499E+01 -1.00000E+00  1.27295E-01
      21    -1     0     0   502   501  0.000000000E+00  0.000000000E+00  1.504258006E+03  1.504258006E+03  0.000000000E+00  0.00000E+00  9.000E+00
      21    -1     0     0   501   511  0.000000000E+00  0.000000000E+00 -7.534542394E+01  7.534542394E+01  0.000000000E+00  0.00000E+00  9.000E+00
      25     1     1     2     0     0  1.837953374E+02 -6.018947061E+01  7.279369755E+02  7.634924615E+02  1.250000000E+02  0.00000E+00  9.000E+00
      25     1     1     2     0     0 -1.637915836E+02  1.419272269E+02  6.865717965E+02  7.307371979E+02  1.250000000E+02  0.00000E+00  9.000E+00
      21     1     1     2   502   511 -2.000375376E+01 -8.173775629E+01  1.440381010E+01  8.537377064E+01  2.071636581E-06  0.00000E+00  9.000E+00
#rwgt            1           1  -5.9997938181622218E-002           1      455012           0
</event>
<event>
      5   9999  3.79277E-02  9.50511E+01 -1.00000E+00  1.24828E-01
      21    -1     0     0   502   501  0.000000000E+00  0.000000000E+00  1.668585829E+03  1.668585829E+03  0.000000000E+00  0.00000E+00  9.000E+00
       2    -1     0     0   501     0  0.000000000E+00  0.000000000E+00 -1.545011684E+02  1.545011684E+02  0.000000000E+00  0.00000E+00  9.000E+00
      25     1     1     2     0     0 -1.980379577E+02 -3.729734287E+01  1.390845566E+03  1.410916905E+03  1.250000000E+02  0.00000E+00  9.000E+00
      25     1     1     2     0     0  1.217694989E+02  9.402336508E+01  2.061849343E+02  2.860164876E+02  1.250000000E+02  0.00000E+00  9.000E+00
       2     1     1     2   502     0  7.626845885E+01 -5.672602221E+01 -8.294584030E+01  1.261536041E+02  2.132480600E-06  0.00000E+00  9.000E+00
#rwgt            2          13   2.2720069545921839E-004           1      455116           0
</event>
<event>
      5   9999  3.79277E-02  1.29559E+01 -1.00000E+00  1.83595E-01
      21    -1     0     0   502   501  0.000000000E+00  0.000000000E+00  7.618077926E+01  7.618077926E+01  0.000000000E+00  0.00000E+00  9.000E+00
      21    -1     0     0   511   502  0.000000000E+00  0.000000000E+00 -1.169507198E+03  1.169507198E+03  0.000000000E+00  0.00000E+00  9.000E+00
      25     1     1     2     0     0 -4.546382835E+01  1.424755943E+02 -1.242884513E+02  2.311684965E+02  1.250000000E+02  0.00000E+00  9.000E+00
      25     1     1     2     0     0  5.825420488E+01 -1.404110191E+02 -4.045492031E+02  4.498820561E+02  1.250000000E+02  0.00000E+00  9.000E+00
      21     1     1     2   511   501 -1.279037652E+01 -2.064575249E+00 -5.644887646E+02  5.646374249E+02  7.629394531E-06  0.00000E+00  9.000E+00
#rwgt            1           1   4.0003632800089332E-002           1      455150           0
</event>
<event>
      5   9999  3.79277E-02  8.96453E+01 -1.00000E+00  1.26001E-01
      21    -1     0     0   512   501  0.000000000E+00  0.000000000E+00  1.226746075E+02  1.226746075E+02  0.000000000E+00  0.00000E+00  9.000E+00
      21    -1     0     0   501   502  0.000000000E+00  0.000000000E+00 -2.399354375E+03  2.399354375E+03  0.000000000E+00  0.00000E+00  9.000E+00
      25     1     1     2     0     0  2.764547095E+02  1.521116303E+02 -1.948956652E+03  1.978287690E+03  1.250000000E+02  0.00000E+00  9.000E+00
      25     1     1     2     0     0 -2.314867195E+02 -7.456061490E+01 -3.567718188E+02  4.495069713E+02  1.250000000E+02  0.00000E+00  9.000E+00
      21     1     1     2   512   502 -4.496799001E+01 -7.755101543E+01  2.904870303E+01  9.423432107E+01  3.631483605E-06  0.00000E+00  9.000E+00
#rwgt            1           1   7.9527647318957687E-002           1      455345           0
</event>
<event>
      5   9999  3.79277E-02  1.14208E+01 -1.00000E+00  1.89316E-01
      21    -1     0     0   502   511  0.000000000E+00  0.000000000E+00  4.054914722E+02  4.054914722E+02  0.000000000E+00  0.00000E+00  9.000E+00
      21    -1     0     0   501   502  0.000000000E+00  0.000000000E+00 -8.337450412E+02  8.337450412E+02  0.000000000E+00  0.00000E+00  9.000E+00
      25     1     1     2     0     0  2.255749708E+02 -1.498795138E+02 -6.124210716E+02  6.811993137E+02  1.250000000E+02  0.00000E+00  9.000E+00
      25     1     1     2     0     0 -2.365463837E+02  1.467072676E+02 -6.220280815E+01  3.114023175E+02  1.250000000E+02  0.00000E+00  9.000E+00
      21     1     1     2   501   511  1.097141288E+01  3.172246173E+00  2.463703108E+02  2.466348821E+02  5.394796609E-06  0.00000E+00  9.000E+00
#rwgt            1           1   4.8343934434273622E-002           1      455490           0
</event>
<event>
      5   9999  3.79277E-02  4.28053E+01 -1.00000E+00  1.43038E-01
      -3    -1     0     0     0   501  0.000000000E+00  0.000000000E+00  1.434725048E+02  1.434725048E+02  0.000000000E+00  0.00000E+00  9.000E+00
      21    -1     0     0   501   502  0.000000000E+00  0.000000000E+00 -5.715492026E+02  5.715492026E+02  0.000000000E+00  0.00000E+00  9.000E+00
      25     1     1     2     0     0  7.182755680E+01  6.400969751E+01 -8.938747432E+01  1.813051567E+02  1.250000000E+02  0.00000E+00  9.000E+00
      25     1     1     2     0     0 -4.827502481E+01 -9.975283279E+01 -4.143662359E+02  4.467722945E+02  1.250000000E+02  0.00000E+00  9.000E+00
      -3     1     1     2     0   502 -2.355253199E+01  3.574313528E+01  7.567701238E+01  8.694425620E+01  9.536743164E-07  0.00000E+00  9.000E+00
#rwgt            1           1   2.2031673891239483E-002           1      455899           0
</event>
<event>
      5   9999  3.79277E-02  2.76698E+01 -1.00000E+00  1.55520E-01
      21    -1     0     0   502   511  0.000000000E+00  0.000000000E+00  7.316285090E+01  7.316285090E+01  0.000000000E+00  0.00000E+00  9.000E+00
      21    -1     0     0   501   502  0.000000000E+00  0.000000000E+00 -8.457464742E+02  8.457464742E+02  0.000000000E+00  0.00000E+00  9.000E+00
      25     1     1     2     0     0  1.943646309E+02 -3.628477454E+01 -2.960385822E+02  3.773036400E+02  1.250000000E+02  0.00000E+00  9.000E+00
      25     1     1     2     0     0 -1.837394457E+02  1.073633977E+01 -4.551878905E+02  5.066522166E+02  1.250000000E+02  0.00000E+00  9.000E+00
      21     1     1     2   501   511 -1.062518521E+01  2.554843478E+01 -2.135715057E+01  3.495346851E+01  4.129530925E-07  0.00000E+00  9.000E+00
#rwgt            1           1   3.8240424267876348E-002           1      456036           0
</event>
<event>
      5   9999  3.79277E-02  3.43699E+01 -1.00000E+00  1.49048E-01
      21    -1     0     0   512   501  0.000000000E+00  0.000000000E+00  5.770998338E+02  5.770998338E+02  0.000000000E+00  0.00000E+00  9.000E+00
      21    -1     0     0   501   502  0.000000000E+00  0.000000000E+00 -1.538805442E+02  1.538805442E+02  0.000000000E+00  0.00000E+00  9.000E+00
      25     1     1     2     0     0  9.778470603E+01 -9.039543688E+01  9.296823320E+01  2.049421287E+02  1.250000000E+02  0.00000E+00  9.000E+00
      25     1     1     2     0     0 -6.444033405E+01  8.206220022E+01 -2.879502141E+01  1.653508833E+02  1.250000000E+02  0.00000E+00  9.000E+00
      21     1     1     2   512   502 -3.334437198E+01  8.333236658E+00  3.590460778E+02  3.606873660E+02  0.000000000E+00  0.00000E+00  9.000E+00
#rwgt            1           1   3.6121621450172572E-002           1      456165           0
</event>
<event>
      5   9999  3.79277E-02  1.94659E+01 -1.00000E+00  1.67345E-01
      21    -1     0     0   502   511  0.000000000E+00  0.000000000E+00  1.744630929E+03  1.744630929E+03  0.000000000E+00  0.00000E+00  9.000E+00
      21    -1     0     0   501   502  0.000000000E+00  0.000000000E+00 -1.815581578E+02  1.815581578E+02  0.000000000E+00  0.00000E+00  9.000E+00
      25     1     1     2     0     0 -2.481792588E+02  4.096376015E+02  3.515106813E+02  6.071084484E+02  1.250000000E+02  0.00000E+00  9.000E+00
      25     1     1     2     0     0  2.347285456E+02 -4.237087932E+02  1.183944882E+03  1.285292619E+03  1.250000000E+02  0.00000E+00  9.000E+00
      21     1     1     2   501   511  1.345071318E+01  1.407119173E+01  2.761720760E+01  3.378801974E+01  3.371747881E-07  0.00000E+00  9.000E+00
#rwgt            2          11   1.8302612846104783E-002           1      456377           0
</event>
<event>
      5   9999  3.79277E-02  1.07971E+02 -1.00000E+00  1.22348E-01
      21    -1     0     0   502   512  0.000000000E+00  0.000000000E+00  2.632013106E+02  2.632013106E+02  0.000000000E+00  0.00000E+00  9.000E+00
      21    -1     0     0   501   502  0.000000000E+00  0.000000000E+00 -2.007836247E+02  2.007836247E+02  0.000000000E+00  0.00000E+00  9.000E+00
      25     1     1     2     0     0  4.162559802E+01  3.946828515E+01 -7.958356760E+01  1.588992768E+02  1.250000000E+02  0.00000E+00  9.000E+00
      25     1     1     2     0     0 -6.133937573E+01  6.668816603E+01  4.730288349E+01  1.614694810E+02  1.250000000E+02  0.00000E+00  9.000E+00
      21     1     1     2   501   512  1.971377771E+01 -1.061564512E+02  9.469837006E+01  1.436161775E+02  1.907348633E-06  0.00000E+00  9.000E+00
#rwgt            1           1   5.1066715717025819E-002           1      456412           0
</event>
<event>
      5   9999  3.79277E-02  4.70025E+01 -1.00000E+00  1.40625E-01
      21    -1     0     0   502   511  0.000000000E+00  0.000000000E+00  2.357619878E+02  2.357619878E+02  0.000000000E+00  0.00000E+00  9.000E+00
      21    -1     0     0   501   502  0.000000000E+00  0.000000000E+00 -1.193129300E+03  1.193129300E+03  0.000000000E+00  0.00000E+00  9.000E+00
      25     1     1     2     0     0 -1.667462170E+02 -1.519752139E+02 -6.874384617E+00  2.580174872E+02  1.250000000E+02  0.00000E+00  9.000E+00
      25     1     1     2     0     0  1.779115447E+02  1.063181596E+02 -1.041066110E+03  1.068831003E+03  1.250000000E+02  0.00000E+00  9.000E+00
      21     1     1     2   501   511 -1.116532768E+01  4.565705425E+01  9.057318214E+01  1.020427972E+02  1.907348633E-06  0.00000E+00  9.000E+00
#rwgt            1           1   4.2315833787822853E-002           1      456471           0
</event>
<event>
      5   9999  3.79277E-02  2.49433E+01 -1.00000E+00  1.58825E-01
      21    -1     0     0   512   501  0.000000000E+00  0.000000000E+00  3.643027948E+02  3.643027948E+02  0.000000000E+00  0.00000E+00  9.000E+00
      21    -1     0     0   501   502  0.000000000E+00  0.000000000E+00 -1.035364440E+03  1.035364440E+03  0.000000000E+00  0.00000E+00  9.000E+00
      25     1     1     2     0     0  5.244485490E+02  2.839784962E+02 -3.198724147E+02  6.882103084E+02  1.250000000E+02  0.00000E+00  9.000E+00
      25     1     1     2     0     0 -5.002043880E+02 -2.781141767E+02 -3.567629004E+02  6.858984561E+02  1.250000000E+02  0.00000E+00  9.000E+00
      21     1     1     2   512   502 -2.424416103E+01 -5.864319574E+00  5.573670142E+00  2.555846997E+01  6.078504936E-07  0.00000E+00  9.000E+00
#rwgt            1           1   5.3300750009700804E-002           1      456630           0
</event>
<event>
      5   9999  3.79277E-02  9.01516E+00 -1.00000E+00  2.01110E-01
      21    -1     0     0   502   511  0.000000000E+00  0.000000000E+00  1.254257862E+02  1.254257862E+02  0.000000000E+00  0.00000E+00  9.000E+00
      21    -1     0     0   501   502  0.000000000E+00  0.000000000E+00 -3.095404071E+02  3.095404071E+02  0.000000000E+00  0.00000E+00  9.000E+00
      25     1     1     2     0     0  4.394658508E+01 -3.015366347E+01 -2.374056888E+02  2.735452556E+02  1.250000000E+02  0.00000E+00  9.000E+00
      25     1     1     2     0     0 -5.295432420E+01  3.051931674E+01  3.896645504E+01  1.444955839E+02  1.250000000E+02  0.00000E+00  9.000E+00
      21     1     1     2   501   511  9.007739116E+00 -3.656532695E-01  1.432461286E+01  1.692535376E+01  2.920019320E-07  0.00000E+00  9.000E+00
#rwgt            1           1   3.9631126036750869E-002           1      456848           0
</event>
<event>
      5   9999  3.79277E-02  3.69610E+01 -1.00000E+00  1.47001E-01
      21    -1     0     0   502   501  0.000000000E+00  0.000000000E+00  7.430565907E+02  7.430565907E+02  0.000000000E+00  0.00000E+00  9.000E+00
      21    -1     0     0   501   512  0.000000000E+00  0.000000000E+00 -2.114988699E+02  2.114988699E+02  0.000000000E+00  0.00000E+00  9.000E+00
      25     1     1     2     0     0  1.763424686E+02 -1.261358961E+02  5.813681401E+02  6.329461627E+02  1.250000000E+02  0.00000E+00  9.000E+00
      25     1     1     2     0     0 -1.649267574E+02  1.612898287E+02 -3.552164593E+00  2.623982890E+02  1.250000000E+02  0.00000E+00  9.000E+00
      21     1     1     2   502   512 -1.141571117E+01 -3.515393263E+01 -4.625825481E+01  5.921100894E+01  9.536743164E-07  0.00000E+00  9.000E+00
#rwgt            1           1   3.6400870803460897E-002           1      457075           0
</event>
<event>
      5   9999  3.79277E-02  3.53052E+01 -1.00000E+00  1.48285E-01
       1    -1     0     0   502     0  0.000000000E+00  0.000000000E+00  4.652695846E+02  4.652695846E+02  0.000000000E+00  0.00000E+00  9.000E+00
      21    -1     0     0   501   502  0.000000000E+00  0.000000000E+00 -2.271275086E+02  2.271275086E+02  0.000000000E+00  0.00000E+00  9.000E+00
      25     1     1     2     0     0 -5.735543472E+01 -3.101438446E+01  1.314286319E+02  1.927434129E+02  1.250000000E+02  0.00000E+00  9.000E+00
      25     1     1     2     0     0  2.243341843E+01  3.620217719E+01 -1.730444090E+02  2.176768784E+02  1.250000000E+02  0.00000E+00  9.000E+00
       1     1     1     2   501     0  3.492201630E+01 -5.187792730E+00  2.797578531E+02  2.819768019E+02  0.000000000E+00  0.00000E+00  9.000E+00
#rwgt            1           1   4.9986844222037488E-002           1      457200           0
</event>
<event>
      5   9999  3.79277E-02  4.74396E+01 -1.00000E+00  1.40391E-01
      21    -1     0     0   502   501  0.000000000E+00  0.000000000E+00  6.637950590E+02  6.637950590E+02  0.000000000E+00  0.00000E+00  9.000E+00
      -2    -1     0     0     0   502  0.000000000E+00  0.000000000E+00 -1.314927719E+02  1.314927719E+02  0.000000000E+00  0.00000E+00  9.000E+00
      25     1     1     2     0     0  1.001906943E+02 -1.757492195E+02  2.051393319E+02  3.140590850E+02  1.250000000E+02  0.00000E+00  9.000E+00
      25     1     1     2     0     0 -1.001398892E+02  1.283096836E+02  3.662055252E+02  4.197890649E+02  1.250000000E+02  0.00000E+00  9.000E+00
      -2     1     1     2     0   501 -5.080515801E-02  4.743953588E+01 -3.904256989E+01  6.143968106E+01  6.743495762E-07  0.00000E+00  9.000E+00
#rwgt            1           1   3.8558403775440349E-002           1      457339           0
</event>
<event>
      5   9999  3.79277E-02  1.72777E+02 -1.00000E+00  1.14011E-01
      21    -1     0     0   502   501  0.000000000E+00  0.000000000E+00  8.332049351E+02  8.332049351E+02  0.000000000E+00  0.00000E+00  9.000E+00
      21    -1     0     0   501   511  0.000000000E+00  0.000000000E+00 -1.673595555E+02  1.673595555E+02  0.000000000E+00  0.00000E+00  9.000E+00
      25     1     1     2     0     0 -2.330789448E+00 -4.960472120E+01  8.085727002E+01  1.569361624E+02  1.250000000E+02  0.00000E+00  9.000E+00
      25     1     1     2     0     0 -1.340363212E+02  1.556985226E+02  6.220530842E+02  6.669203887E+02  1.250000000E+02  0.00000E+00  9.000E+00
      21     1     1     2   502   511  1.363671106E+02 -1.060938014E+02 -3.706497464E+01  1.767079396E+02  9.536743164E-07  0.00000E+00  9.000E+00
#rwgt            1           1   4.3977904685808589E-002           1      457598           0
</event>
<event>
      5   9999  3.79277E-02  2.04676E+01 -1.00000E+00  1.65545E-01
      21    -1     0     0   502   501  0.000000000E+00  0.000000000E+00  1.691411297E+03  1.691411297E+03  0.000000000E+00  0.00000E+00  9.000E+00
      21    -1     0     0   512   502  0.000000000E+00  0.000000000E+00 -5.043690903E+01  5.043690903E+01  0.000000000E+00  0.00000E+00  9.000E+00
      25     1     1     2     0     0  2.107133800E+02  4.080237487E+00  5.993460832E+02  6.475009686E+02  1.250000000E+02  0.00000E+00  9.000E+00
      25     1     1     2     0     0 -2.040146962E+02  1.526016935E+01  1.046246875E+03  1.073364985E+03  1.250000000E+02  0.00000E+00  9.000E+00
      21     1     1     2   512   501 -6.698683771E+00 -1.934040684E+01 -4.618570193E+00  2.098225183E+01  4.805480092E-07  0.00000E+00  9.000E+00
#rwgt            1           1  0.12447203039388953                1      457712           0
</event>
<event>
      5   9999 -3.79277E-02  6.21934E+01 -1.00000E+00  1.33875E-01
      21    -1     0     0   502   501  0.000000000E+00  0.000000000E+00  9.064793906E+01  9.064793906E+01  0.000000000E+00  0.00000E+00  9.000E+00
      21    -1     0     0   511   502  0.000000000E+00  0.000000000E+00 -1.329769544E+03  1.329769544E+03  0.000000000E+00  0.00000E+00  9.000E+00
      25     1     1     2     0     0  1.389154516E+02 -2.130103741E+02 -5.032679006E+02  5.775590896E+02  1.250000000E+02  0.00000E+00  9.000E+00
      25     1     1     2     0     0 -1.149432639E+02  2.703981614E+02 -4.592008009E+02  5.593008986E+02  1.250000000E+02  0.00000E+00  9.000E+00
      21     1     1     2   511   501 -2.397218773E+01 -5.738778739E+01 -2.766529031E+02  2.835574946E+02  3.814697266E-06  0.00000E+00  9.000E+00
#rwgt            1           1 -0.11631980940355331                1      457932           0
</event>
<event>
      5   9999  3.79277E-02  7.44652E+00 -1.00000E+00  2.11827E-01
      21    -1     0     0   502   512  0.000000000E+00  0.000000000E+00  1.422148678E+03  1.422148678E+03  0.000000000E+00  0.00000E+00  9.000E+00
      21    -1     0     0   501   502  0.000000000E+00  0.000000000E+00 -4.303672463E+01  4.303672463E+01  0.000000000E+00  0.00000E+00  9.000E+00
      25     1     1     2     0     0 -1.614324648E+02  9.459680678E+01  4.819066387E+02  5.318533679E+02  1.250000000E+02  0.00000E+00  9.000E+00
      25     1     1     2     0     0  1.541134193E+02 -9.322486346E+01  6.493110565E+02  6.853259584E+02  1.250000000E+02  0.00000E+00  9.000E+00
      21     1     1     2   501   512  7.319045524E+00 -1.371943311E+00  2.478942583E+02  2.480060765E+02  0.000000000E+00  0.00000E+00  9.000E+00
#rwgt            1           1   4.1553180609264287E-002           1      458086           0
</event>
<event>
      5   9999  3.79277E-02  1.15103E+01 -1.00000E+00  1.88951E-01
      21    -1     0     0   502   501  0.000000000E+00  0.000000000E+00  7.635076753E+02  7.635076753E+02  0.000000000E+00  0.00000E+00  9.000E+00
      21    -1     0     0   511   502  0.000000000E+00  0.000000000E+00 -6.953024333E+01  6.953024333E+01  0.000000000E+00  0.00000E+00  9.000E+00
      25     1     1     2     0     0 -8.620590980E+01 -1.005050321E+02  3.440059579E+02  3.892272080E+02  1.250000000E+02  0.00000E+00  9.000E+00
      25     1     1     2     0     0  7.813477304E+01  9.229877414E+01  3.765889012E+02  4.148111703E+02  1.250000000E+02  0.00000E+00  9.000E+00
      21     1     1     2   511   501  8.071136765E+00  8.206257954E+00 -2.661742711E+01  2.899954041E+01  6.743495762E-07  0.00000E+00  9.000E+00
#rwgt            1           1   3.4991828021259289E-002           1      458339           0
</event>
<event>
      5   9999  3.79277E-02  1.15646E+02 -1.00000E+00  1.21053E-01
      21    -1     0     0   502   501  0.000000000E+00  0.000000000E+00  9.713308910E+02  9.713308910E+02  0.000000000E+00  0.00000E+00  9.000E+00
      21    -1     0     0   512   502  0.000000000E+00  0.000000000E+00 -1.838284476E+02  1.838284476E+02  0.000000000E+00  0.00000E+00  9.000E+00
      25     1     1     2     0     0  3.265263157E+01 -1.714475418E+02  2.805354382E+02  3.532500333E+02  1.250000000E+02  0.00000E+00  9.000E+00
      25     1     1     2     0     0  7.697560356E+01  1.346275312E+02  6.132837391E+02  6.448191687E+02  1.250000000E+02  0.00000E+00  9.000E+00
      21     1     1     2   512   501 -1.096282351E+02  3.682001057E+01 -1.063167338E+02  1.570901366E+02  4.264961200E-06  0.00000E+00  9.000E+00
#rwgt            1           1   3.5836373598762357E-002           1      458683           0
</event>
<event>
      5   9999  3.79277E-02  4.00944E+01 -1.00000E+00  1.44777E-01
       2    -1     0     0   502     0  0.000000000E+00  0.000000000E+00  1.229714215E+03  1.229714215E+03  0.000000000E+00  0.00000E+00  9.000E+00
      21    -1     0     0   501   502  0.000000000E+00  0.000000000E+00 -1.337362967E+02  1.337362967E+02  0.000000000E+00  0.00000E+00  9.000E+00
      25     1     1     2     0     0  2.670711580E+02  6.150771921E+01  2.282567283E+02  3.779369484E+02  1.250000000E+02  0.00000E+00  9.000E+00
      25     1     1     2     0     0 -2.368866900E+02 -8.789824613E+01  2.830848260E+02  3.995039728E+02  1.250000000E+02  0.00000E+00  9.000E+00
       2     1     1     2   501     0 -3.018446802E+01  2.639052692E+01  5.846363638E+02  5.860095903E+02  7.629394531E-06  0.00000E+00  9.000E+00
#rwgt            1           1   3.8996937414487336E-002           1      458745           0
</event>
<event>
      5   9999 -3.79277E-02  4.59751E+01 -1.00000E+00  1.41187E-01
      21    -1     0     0   502   501  0.000000000E+00  0.000000000E+00  1.017047322E+02  1.017047322E+02  0.000000000E+00  0.00000E+00  9.000E+00
      21    -1     0     0   501   511  0.000000000E+00  0.000000000E+00 -6.842786412E+02  6.842786412E+02  0.000000000E+00  0.00000E+00  9.000E+00
      25     1     1     2     0     0 -1.851339583E+02 -1.172537200E+02 -2.209692008E+02  3.353735307E+02  1.250000000E+02  0.00000E+00  9.000E+00
      25     1     1     2     0     0  1.392939798E+02  1.207757415E+02 -3.053097335E+02  3.779267467E+02  1.250000000E+02  0.00000E+00  9.000E+00
      21     1     1     2   502   511  4.583997851E+01 -3.522021582E+00 -5.629497465E+01  7.268309595E+01  9.536743164E-07  0.00000E+00  9.000E+00
#rwgt            1           1  -5.3418371710431366E-002           1      458959           0
</event>
<event>
      5   9999  3.79277E-02  4.86387E+01 -1.00000E+00  1.39763E-01
      21    -1     0     0   502   501  0.000000000E+00  0.000000000E+00  1.577643143E+03  1.577643143E+03  0.000000000E+00  0.00000E+00  9.000E+00
      21    -1     0     0   512   502  0.000000000E+00  0.000000000E+00 -2.923360130E+01  2.923360130E+01  0.000000000E+00  0.00000E+00  9.000E+00
      25     1     1     2     0     0  6.847304303E+01 -3.116212818E+01  3.140858810E+02  3.463157180E+02  1.250000000E+02  0.00000E+00  9.000E+00
      25     1     1     2     0     0 -3.328397306E+01  6.473973135E+01  1.174893809E+03  1.183764976E+03  1.250000000E+02  0.00000E+00  9.000E+00
      21     1     1     2   512   501 -3.518906998E+01 -3.357760316E+01  5.942985126E+01  7.679605003E+01  1.348699152E-06  0.00000E+00  9.000E+00
#rwgt            1           1   6.2881716481774921E-003           1      459055           0
</event>
<event>
      5   9999  3.79277E-02  2.14885E+01 -1.00000E+00  1.63837E-01
      21    -1     0     0   502   511  0.000000000E+00  0.000000000E+00  1.649762570E+03  1.649762570E+03  0.000000000E+00  0.00000E+00  9.000E+00
      21    -1     0     0   501   502  0.000000000E+00  0.000000000E+00 -4.912262646E+01  4.912262646E+01  0.000000000E+00  0.00000E+00  9.000E+00
      25     1     1     2     0     0  1.448012120E+02  2.931119012E+01  1.360240034E+03  1.373937585E+03  1.250000000E+02  0.00000E+00  9.000E+00
      25     1     1     2     0     0 -1.235950248E+02 -3.278285713E+01  1.542354361E+02  2.361440569E+02  1.250000000E+02  0.00000E+00  9.000E+00
      21     1     1     2   501   511 -2.120618725E+01  3.471667011E+00  8.616447409E+01  8.880355536E+01  9.536743164E-07  0.00000E+00  9.000E+00
#rwgt            1           1   3.4866581136416816E-002           1      459167           0
</event>
<event>
      5   9999  3.79277E-02  1.47827E+02 -1.00000E+00  1.16645E-01
      21    -1     0     0   502   501  0.000000000E+00  0.000000000E+00  1.259247379E+02  1.259247379E+02  0.000000000E+00  0.00000E+00  9.000E+00
      -2    -1     0     0     0   502  0.000000000E+00  0.000000000E+00 -1.009361134E+03  1.009361134E+03  0.000000000E+00  0.00000E+00  9.000E+00
      25     1     1     2     0     0 -3.746030987E+01  1.033031553E+01  3.029083674E+01  1.343596853E+02  1.250000000E+02  0.00000E+00  9.000E+00
      25     1     1     2     0     0  7.315600232E+01  1.331223185E+02 -2.358684322E+02  3.071355884E+02  1.250000000E+02  0.00000E+00  9.000E+00
      -2     1     1     2     0   501 -3.569569245E+01 -1.434526341E+02 -6.778588008E+02  6.937905985E+02  7.629394531E-06  0.00000E+00  9.000E+00
#rwgt            1           1   3.5345246579492388E-002           1      459401           0
</event>
<event>
      5   9999  3.79277E-02  1.55814E+02 -1.00000E+00  1.15743E-01
      21    -1     0     0   502   501  0.000000000E+00  0.000000000E+00  5.665144599E+02  5.665144599E+02  0.000000000E+00  0.00000E+00  9.000E+00
       1    -1     0     0   501     0  0.000000000E+00  0.000000000E+00 -2.055437505E+02  2.055437505E+02  0.000000000E+00  0.00000E+00  9.000E+00
      25     1     1     2     0     0  1.218197442E+02 -5.269534436E+01 -9.955326975E+01  2.077322866E+02  1.250000000E+02  0.00000E+00  9.000E+00
      25     1     1     2     0     0  2.529906373E+01  1.040181721E+02  2.891714726E+02  3.327235539E+02  1.250000000E+02  0.00000E+00  9.000E+00
       1     1     1     2   502     0 -1.471188079E+02 -5.132282770E+01  1.713525066E+02  2.316023700E+02  5.046370146E-06  0.00000E+00  9.000E+00
#rwgt            1           1   4.2144806153789377E-002           1      459450           0
</event>
<event>
      5   9999  3.79277E-02  4.77705E+01 -1.00000E+00  1.40215E-01
      21    -1     0     0   502   511  0.000000000E+00  0.000000000E+00  2.030188588E+03  2.030188588E+03  0.000000000E+00  0.00000E+00  9.000E+00
      21    -1     0     0   501   502  0.000000000E+00  0.000000000E+00 -2.302915584E+01  2.302915584E+01  0.000000000E+00  0.00000E+00  9.000E+00
      25     1     1     2     0     0  2.110917259E+01 -1.237425904E+02  8.702623834E+02  8.881100393E+02  1.250000000E+02  0.00000E+00  9.000E+00
      25     1     1     2     0     0 -6.659518522E+01  1.383385837E+02  7.670724201E+02  7.922105655E+02  1.250000000E+02  0.00000E+00  9.000E+00
      21     1     1     2   501   511  4.548601263E+01 -1.459599329E+01  3.698246289E+02  3.728971393E+02  5.394796609E-06  0.00000E+00  9.000E+00
#rwgt            1           1   2.7349445169569494E-002           1      459654           0
</event>
<event>
      5   9999  3.79277E-02  2.69566E+01 -1.00000E+00  1.56338E-01
      21    -1     0     0   512   501  0.000000000E+00  0.000000000E+00  4.774733107E+02  4.774733107E+02  0.000000000E+00  0.00000E+00  9.000E+00
      21    -1     0     0   501   502  0.000000000E+00  0.000000000E+00 -8.861541624E+01  8.861541624E+01  0.000000000E+00  0.00000E+00  9.000E+00
      25     1     1     2     0     0  4.779803962E+01  3.903812182E+01  7.131258581E-01  1.394063704E+02  1.250000000E+02  0.00000E+00  9.000E+00
      25     1     1     2     0     0 -7.467955963E+01 -3.702825658E+01  3.280005895E+02  3.607734956E+02  1.250000000E+02  0.00000E+00  9.000E+00
      21     1     1     2   512   502  2.688152001E+01 -2.009865238E+00  6.014417911E+01  6.590886099E+01  1.168007728E-06  0.00000E+00  9.000E+00
#rwgt            1           1   3.0824537254100982E-002           1      459709           0
</event>
<event>
      5   9999 -3.79277E-02  1.19216E+01 -1.00000E+00  1.87328E-01
      21    -1     0     0   502   511  0.000000000E+00  0.000000000E+00  8.085411035E+02  8.085411035E+02  0.000000000E+00  0.00000E+00  9.000E+00
      21    -1     0     0   501   502  0.000000000E+00  0.000000000E+00 -1.037294289E+02  1.037294289E+02  0.000000000E+00  0.00000E+00  9.000E+00
      25     1     1     2     0     0 -1.165710111E+01  2.487391096E+02  4.059348889E+02  4.923567474E+02  1.250000000E+02  0.00000E+00  9.000E+00
      25     1     1     2     0     0  1.200898579E+01 -2.368226667E+02  2.398572293E+02  3.597022125E+02  1.250000000E+02  0.00000E+00  9.000E+00
      21     1     1     2   501   511 -3.518846854E-01 -1.191644284E+01  5.901955640E+01  6.021157256E+01  9.536743164E-07  0.00000E+00  9.000E+00
#rwgt            1           1  -8.4761189540532633E-002           1      459858           0
</event>
<event>
      5   9999  3.79277E-02  8.60523E+01 -1.00000E+00  1.26835E-01
      21    -1     0     0   502   501  0.000000000E+00  0.000000000E+00  3.095703675E+02  3.095703675E+02  0.000000000E+00  0.00000E+00  9.000E+00
      -2    -1     0     0     0   502  0.000000000E+00  0.000000000E+00 -2.450811161E+02  2.450811161E+02  0.000000000E+00  0.00000E+00  9.000E+00
      25     1     1     2     0     0  1.411863764E+02  4.084028425E+00  1.468827279E+01  1.891851409E+02  1.250000000E+02  0.00000E+00  9.000E+00
      25     1     1     2     0     0 -1.486707793E+02  8.164218556E+01  1.302160550E+02  2.476886515E+02  1.250000000E+02  0.00000E+00  9.000E+00
      -2     1     1     2     0   501  7.484402902E+00 -8.572621399E+01 -8.041507639E+01  1.177776913E+02  1.907348633E-06  0.00000E+00  9.000E+00
#rwgt            1           1   4.4876032748687684E-002           1      460151           0
</event>
<event>
      5   9999  3.79277E-02  1.53055E+02 -1.00000E+00  1.16048E-01
       1    -1     0     0   502     0  0.000000000E+00  0.000000000E+00  7.404077922E+02  7.404077922E+02  0.000000000E+00  0.00000E+00  9.000E+00
      21    -1     0     0   501   502  0.000000000E+00  0.000000000E+00 -1.503741178E+02  1.503741178E+02  0.000000000E+00  0.00000E+00  9.000E+00
      25     1     1     2     0     0  1.229202871E+02 -6.410889211E+01  1.072950574E+02  2.153057741E+02  1.250000000E+02  0.00000E+00  9.000E+00
      25     1     1     2     0     0 -8.417337578E+01  2.121784489E+02  1.298921286E+02  2.908639140E+02  1.250000000E+02  0.00000E+00  9.000E+00
       1     1     1     2   501     0 -3.874691134E+01 -1.480695568E+02  3.528464885E+02  3.846122219E+02  6.607249480E-06  0.00000E+00  9.000E+00
#rwgt            1           1   3.0755393844718180E-002           1      460332           0
</event>
<event>
      5   9999  3.79277E-02  2.63225E+01 -1.00000E+00  1.57092E-01
      21    -1     0     0   502   511  0.000000000E+00  0.000000000E+00  1.467336292E+02  1.467336292E+02  0.000000000E+00  0.00000E+00  9.000E+00
      21    -1     0     0   501   502  0.000000000E+00  0.000000000E+00 -2.542682206E+02  2.542682206E+02  0.000000000E+00  0.00000E+00  9.000E+00
      25     1     1     2     0     0  6.539450211E+00 -7.246696765E+01 -1.490220324E+02  2.076699110E+02  1.250000000E+02  0.00000E+00  9.000E+00
      25     1     1     2     0     0 -1.578926441E+01  9.711070105E+01  4.810702515E+01  1.661898763E+02  1.250000000E+02  0.00000E+00  9.000E+00
      21     1     1     2   501   511  9.249814203E+00 -2.464373340E+01 -6.619584190E+00  2.714206244E+01  5.840038640E-07  0.00000E+00  9.000E+00
#rwgt            2          11   2.5051369742263604E-003           1      460436           0
</event>
<event>
      5   9999  3.79277E-02  5.83983E+01 -1.00000E+00  1.35334E-01
      21    -1     0     0   512   501  0.000000000E+00  0.000000000E+00  3.497079294E+02  3.497079294E+02  0.000000000E+00  0.00000E+00  9.000E+00
      21    -1     0     0   501   502  0.000000000E+00  0.000000000E+00 -2.238168441E+02  2.238168441E+02  0.000000000E+00  0.00000E+00  9.000E+00
      25     1     1     2     0     0  9.540343480E+01 -9.751808899E+01  2.511412118E+01  1.867279094E+02  1.250000000E+02  0.00000E+00  9.000E+00
      25     1     1     2     0     0 -8.573728562E+01  3.992534094E+01 -9.446218751E+01  1.830109829E+02  1.250000000E+02  0.00000E+00  9.000E+00
      21     1     1     2   512   502 -9.666149182E+00  5.759274805E+01  1.952391516E+02  2.037858812E+02  0.000000000E+00  0.00000E+00  9.000E+00
#rwgt            2          11   1.0096471215393762E-003           1      460561           0
</event>
<event>
      5   9999  3.79277E-02  5.34799E+01 -1.00000E+00  1.37429E-01
      21    -1     0     0   502   501  0.000000000E+00  0.000000000E+00  4.063760309E+02  4.063760309E+02  0.000000000E+00  0.00000E+00  9.000E+00
      21    -1     0     0   511   502  0.000000000E+00  0.000000000E+00 -1.143511555E+02  1.143511555E+02  0.000000000E+00  0.00000E+00  9.000E+00
      25     1     1     2     0     0 -7.811689060E+01 -7.926599299E+01  1.125761004E+02  2.017020689E+02  1.250000000E+02  0.00000E+00  9.000E+00
      25     1     1     2     0     0  5.581465465E+01  1.278737461E+02  1.873815683E+02  2.649600400E+02  1.250000000E+02  0.00000E+00  9.000E+00
      21     1     1     2   511   501  2.230223595E+01 -4.860775313E+01 -7.932793282E+00  5.406507747E+01  7.492187673E-07  0.00000E+00  9.000E+00
#rwgt            1           1   6.8747421232493139E-002           1      460596           0
</event>
<event>
      5   9999  3.79277E-02  1.70162E+01 -1.00000E+00  1.72375E-01
      21    -1     0     0   502   501  0.000000000E+00  0.000000000E+00  7.903745132E+02  7.903745132E+02  0.000000000E+00  0.00000E+00  9.000E+00
      21    -1     0     0   501   512  0.000000000E+00  0.000000000E+00 -1.158138701E+02  1.158138701E+02  0.000000000E+00  0.00000E+00  9.000E+00
      25     1     1     2     0     0  3.531705417E+01  1.428200103E+02  6.761874506E+02  7.032064547E+02  1.250000000E+02  0.00000E+00  9.000E+00
      25     1     1     2     0     0 -3.533074503E+01 -1.258038169E+02 -1.483869944E+01  1.814388296E+02  1.250000000E+02  0.00000E+00  9.000E+00
      21     1     1     2   502   512  1.369086170E-02 -1.701619335E+01  1.321189202E+01  2.154309899E+01  0.000000000E+00  0.00000E+00  9.000E+00
#rwgt            1           1   4.2461296538560837E-002           1      460701           0
</event>
<event>
      5   9999  3.79277E-02  7.60742E+01 -1.00000E+00  1.29416E-01
      21    -1     0     0   502   501  0.000000000E+00  0.000000000E+00  1.584549948E+02  1.584549948E+02  0.000000000E+00  0.00000E+00  9.000E+00
      21    -1     0     0   501   511  0.000000000E+00  0.000000000E+00 -6.492807125E+02  6.492807125E+02  0.000000000E+00  0.00000E+00  9.000E+00
      25     1     1     2     0     0  5.447616368E+00  1.590543454E+02  1.743594948E+01  2.031181273E+02  1.250000000E+02  0.00000E+00  9.000E+00
      25     1     1     2     0     0  6.125389778E+01 -1.224729460E+02 -1.503447205E+02  2.387052523E+02  1.250000000E+02  0.00000E+00  9.000E+00
      21     1     1     2   502   511 -6.670151415E+01 -3.658139941E+01 -3.579169467E+02  3.659123276E+02  6.607249480E-06  0.00000E+00  9.000E+00
#rwgt            1           1   3.2903775879221407E-002           1      460934           0
</event>
<event>
      5   9999  3.79277E-02  2.56204E+02 -1.00000E+00  1.07868E-01
      21    -1     0     0   502   501  0.000000000E+00  0.000000000E+00  2.473077106E+02  2.473077106E+02  0.000000000E+00  0.00000E+00  9.000E+00
      21    -1     0     0   512   502  0.000000000E+00  0.000000000E+00 -1.173207834E+03  1.173207834E+03  0.000000000E+00  0.00000E+00  9.000E+00
      25     1     1     2     0     0 -2.421198656E+02  9.938641506E+01 -5.499859844E+02  6.217791182E+02  1.250000000E+02  0.00000E+00  9.000E+00
      25     1     1     2     0     0  4.027640183E+02  1.001978325E+02 -1.546645293E+02  4.602223123E+02  1.250000000E+02  0.00000E+00  9.000E+00
      21     1     1     2   512   501 -1.606441527E+02 -1.995842475E+02 -2.212496094E+02  3.385141140E+02  3.814697266E-06  0.00000E+00  9.000E+00
#rwgt            1           1   4.5955413895569799E-002           1      461008           0
</event>
<event>
      5   9999  3.79277E-02  1.45716E+01 -1.00000E+00  1.78577E-01
      21    -1     0     0   502   511  0.000000000E+00  0.000000000E+00  3.346687444E+02  3.346687444E+02  0.000000000E+00  0.00000E+00  9.000E+00
      21    -1     0     0   501   502  0.000000000E+00  0.000000000E+00 -1.102460183E+03  1.102460183E+03  0.000000000E+00  0.00000E+00  9.000E+00
      25     1     1     2     0     0  2.768412955E+02  7.735928295E+00  2.286604735E+02  3.802782660E+02  1.250000000E+02  0.00000E+00  9.000E+00
      25     1     1     2     0     0 -2.770525815E+02  6.834156631E+00 -9.969445396E+02  1.042270720E+03  1.250000000E+02  0.00000E+00  9.000E+00
      21     1     1     2   501   511  2.112860091E-01 -1.457008493E+01  4.926273526E-01  1.457994164E+01  2.111289995E-07  0.00000E+00  9.000E+00
#rwgt            1           1   3.7612250854415739E-002           1      461062           0
</event>
<event>
      5   9999  3.79277E-02  9.95979E+00 -1.00000E+00  1.95960E-01
      21    -1     0     0   512   501  0.000000000E+00  0.000000000E+00  1.117696775E+03  1.117696775E+03  0.000000000E+00  0.00000E+00  9.000E+00
      21    -1     0     0   501   502  0.000000000E+00  0.000000000E+00 -2.422761974E+02  2.422761974E+02  0.000000000E+00  0.00000E+00  9.000E+00
      25     1     1     2     0     0  3.217282399E+02  1.494191141E+02  1.915832538E+02  4.220951020E+02  1.250000000E+02  0.00000E+00  9.000E+00
      25     1     1     2     0     0 -3.209090997E+02 -1.394930673E+02  1.448642174E+02  3.988127475E+02  1.250000000E+02  0.00000E+00  9.000E+00
      21     1     1     2   512   502 -8.191402075E-01 -9.926046771E+00  5.389731063E+02  5.390651229E+02  7.629394531E-06  0.00000E+00  9.000E+00
#rwgt            1           1  0.30237140894190773                1      461302           0
</event>
<event>
      5   9999  3.79277E-02  4.08978E+01 -1.00000E+00  1.44245E-01
       2    -1     0     0   502     0  0.000000000E+00  0.000000000E+00  1.417600530E+03  1.417600530E+03  0.000000000E+00  0.00000E+00  9.000E+00
      21    -1     0     0   501   502  0.000000000E+00  0.000000000E+00 -2.490210923E+02  2.490210923E+02  0.000000000E+00  0.00000E+00  9.000E+00
      25     1     1     2     0     0 -6.318766857E+01 -1.272396137E+02 -1.376578320E+02  2.340027338E+02  1.250000000E+02  0.00000E+00  9.000E+00
      25     1     1     2     0     0  2.799549180E+01  1.480757377E+02  8.964637737E+01  2.153407640E+02  1.250000000E+02  0.00000E+00  9.000E+00
       2     1     1     2   501     0  3.519217677E+01 -2.083612399E+01  1.216590892E+03  1.217278124E+03  0.000000000E+00  0.00000E+00  9.000E+00
#rwgt            1           1   3.7552239746837739E-002           1      461624           0
</event>
<event>
      5   9999  3.79277E-02  2.23274E+01 -1.00000E+00  1.62519E-01
      21    -1     0     0   502   501  0.000000000E+00  0.000000000E+00  9.482495574E+01  9.482495574E+01  0.000000000E+00  0.00000E+00  9.000E+00
      21    -1     0     0   501   511  0.000000000E+00  0.000000000E+00 -1.668053465E+03  1.668053465E+03  0.000000000E+00  0.00000E+00  9.000E+00
      25     1     1     2     0     0  1.663382318E+02 -3.224341931E+02 -6.526159791E+02  7.570765037E+02  1.250000000E+02  0.00000E+00  9.000E+00
      25     1     1     2     0     0 -1.447912622E+02  3.282857208E+02 -8.359499323E+02  9.182446915E+02  1.250000000E+02  0.00000E+00  9.000E+00
      21     1     1     2   502   511 -2.154696959E+01 -5.851527646E+00 -8.466259752E+01  8.755722525E+01  0.000000000E+00  0.00000E+00  9.000E+00
#rwgt            1           1   3.0383629898615105E-002           1      461735           0
</event>
<event>
      5   9999  3.79277E-02  1.41481E+01 -1.00000E+00  1.79810E-01
      21    -1     0     0   512   501  0.000000000E+00  0.000000000E+00  1.456375993E+02  1.456375993E+02  0.000000000E+00  0.00000E+00  9.000E+00
      21    -1     0     0   501   502  0.000000000E+00  0.000000000E+00 -3.260991141E+02  3.260991141E+02  0.000000000E+00  0.00000E+00  9.000E+00
      25     1     1     2     0     0 -7.135063755E+01  8.627062567E+01  1.385716697E+01  1.683762317E+02  1.250000000E+02  0.00000E+00  9.000E+00
      25     1     1     2     0     0  8.251990333E+01 -7.758641208E+01 -2.180808205E+02  2.757053320E+02  1.250000000E+02  0.00000E+00  9.000E+00
      21     1     1     2   512   502 -1.116926578E+01 -8.684213598E+00  2.376213884E+01  2.765514972E+01  3.371747881E-07  0.00000E+00  9.000E+00
#rwgt            1           1   3.6945635825604305E-002           1      461924           0
</event>
<event>
      5   9999  3.79277E-02  2.78386E+01 -1.00000E+00  1.55330E-01
      21    -1     0     0   502   501  0.000000000E+00  0.000000000E+00  5.486583635E+01  5.486583635E+01  0.000000000E+00  0.00000E+00  9.000E+00
      -2    -1     0     0     0   502  0.000000000E+00  0.000000000E+00 -7.370416129E+02  7.370416129E+02  0.000000000E+00  0.00000E+00  9.000E+00
      25     1     1     2     0     0 -9.935641104E+00 -5.533703082E+01 -6.191053325E+01  1.503955387E+02  1.250000000E+02  0.00000E+00  9.000E+00
      25     1     1     2     0     0 -1.718594092E+01  4.905943585E+01 -5.323831267E+02  5.493259309E+02  1.250000000E+02  0.00000E+00  9.000E+00
      -2     1     1     2     0   501  2.712158202E+01  6.277594970E+00 -8.788211666E+01  9.218597962E+01  9.536743164E-07  0.00000E+00  9.000E+00
#rwgt            1           1   4.1750862216339689E-002           1      462150           0
</event>
<event>
      5   9999  3.79277E-02  3.76979E+01 -1.00000E+00  1.46455E-01
      21    -1     0     0   502   501  0.000000000E+00  0.000000000E+00  4.375504884E+02  4.375504884E+02  0.000000000E+00  0.00000E+00  9.000E+00
       2    -1     0     0   501     0  0.000000000E+00  0.000000000E+00 -5.613376636E+02  5.613376636E+02  0.000000000E+00  0.00000E+00  9.000E+00
      25     1     1     2     0     0  2.392531019E+01 -6.766519535E+01  3.798857671E+02  4.063116971E+02  1.250000000E+02  0.00000E+00  9.000E+00
      25     1     1     2     0     0  1.333327208E+01  6.192692408E+01 -6.887209773E+01  1.561444393E+02  1.250000000E+02  0.00000E+00  9.000E+00
       2     1     1     2   502     0 -3.725858227E+01  5.738271274E+00 -4.348008446E+02  4.364320156E+02  5.394796609E-06  0.00000E+00  9.000E+00
#rwgt            1           1   5.0103917880257261E-002           1      462300           0
</event>
<event>
      5   9999  3.79277E-02  2.71291E+01 -1.00000E+00  1.56137E-01
      21    -1     0     0   502   501  0.000000000E+00  0.000000000E+00  1.295323886E+03  1.295323886E+03  0.000000000E+00  0.00000E+00  9.000E+00
      21    -1     0     0   511   502  0.000000000E+00  0.000000000E+00 -5.467821964E+01  5.467821964E+01  0.000000000E+00  0.00000E+00  9.000E+00
      25     1     1     2     0     0  8.402489246E+01 -9.676964540E+01  9.392993902E+02  9.562075565E+02  1.250000000E+02  0.00000E+00  9.000E+00
      25     1     1     2     0     0 -5.692525692E+01  9.550463823E+01  3.198485697E+02  3.609566849E+02  1.250000000E+02  0.00000E+00  9.000E+00
      21     1     1     2   511   501 -2.709963554E+01  1.265007164E+00 -1.850229325E+01  3.283786451E+01  1.369610464E-06  0.00000E+00  9.000E+00
#rwgt            1           1   3.4971595574819554E-002           1      462434           0
</event>
<event>
      5   9999  3.79277E-02  3.73832E+01 -1.00000E+00  1.46686E-01
      21    -1     0     0   502   512  0.000000000E+00  0.000000000E+00  2.252459582E+02  2.252459582E+02  0.000000000E+00  0.00000E+00  9.000E+00
      21    -1     0     0   501   502  0.000000000E+00  0.000000000E+00 -2.624399351E+02  2.624399351E+02  0.000000000E+00  0.00000E+00  9.000E+00
      25     1     1     2     0     0  1.977925657E+02 -4.461360238E+01  7.089330655E+00  2.383013453E+02  1.250000000E+02  0.00000E+00  9.000E+00
      25     1     1     2     0     0 -1.628265606E+02  3.138932653E+01 -4.246163555E+01  2.119569983E+02  1.250000000E+02  0.00000E+00  9.000E+00
      21     1     1     2   501   512 -3.496600514E+01  1.322427585E+01 -1.821671988E+00  3.742754970E+01  3.816559456E-07  0.00000E+00  9.000E+00
#rwgt            1           1  0.10206839441277404                1      462763           0
</event>
<event>
      5   9999  3.79277E-02  1.39842E+01 -1.00000E+00  1.80301E-01
      21    -1     0     0   511   501  0.000000000E+00  0.000000000E+00  2.511975759E+01  2.511975759E+01  0.000000000E+00  0.00000E+00  9.000E+00
      21    -1     0     0   501   502  0.000000000E+00  0.000000000E+00 -2.197205098E+03  2.197205098E+03  0.000000000E+00  0.00000E+00  9.000E+00
      25     1     1     2     0     0 -7.171624400E+00 -1.661202554E+02 -1.406157511E+03  1.421460980E+03  1.250000000E+02  0.00000E+00  9.000E+00
      25     1     1     2     0     0  7.959463044E+00  1.800822616E+02 -7.043129040E+02  7.376819374E+02  1.250000000E+02  0.00000E+00  9.000E+00
      21     1     1     2   511   502 -7.878386448E-01 -1.396200617E+01 -6.161492586E+01  6.318193883E+01  9.536743164E-07  0.00000E+00  9.000E+00
#rwgt            1           1   8.5866904230353092E-002           1      462838           0
</event>
<event>
      5   9999 -3.79277E-02  1.01748E+02 -1.00000E+00  1.23490E-01
      21    -1     0     0   502   512  0.000000000E+00  0.000000000E+00  7.765909334E+02  7.765909334E+02  0.000000000E+00  0.00000E+00  9.000E+00
      21    -1     0     0   501   502  0.000000000E+00  0.000000000E+00 -1.473092614E+02  1.473092614E+02  0.000000000E+00  0.00000E+00  9.000E+00
      25     1     1     2     0     0 -2.328934060E+01 -2.068995023E+02  3.608492123E+02  4.349562639E+02  1.250000000E+02  0.00000E+00  9.000E+00
      25     1     1     2     0     0 -5.584124719E+01  2.708604770E+02  1.724441005E+02  3.490639063E+02  1.250000000E+02  0.00000E+00  9.000E+00
      21     1     1     2   501   512  7.913058779E+01 -6.396097463E+01  9.598835915E+01  1.398800246E+02  2.336015456E-06  0.00000E+00  9.000E+00
#rwgt            1           1  -6.8284630350186101E-002           1      463201           0
</event>
<event>
      5   9999 -3.79277E-02  4.07042E+01 -1.00000E+00  1.44372E-01
      21    -1     0     0   511   501  0.000000000E+00  0.000000000E+00  5.093528157E+02  5.093528157E+02  0.000000000E+00  0.00000E+00  9.000E+00
      21    -1     0     0   501   502  0.000000000E+00  0.000000000E+00 -9.873363244E+01  9.873363244E+01  0.000000000E+00  0.00000E+00  9.000E+00
      25     1     1     2     0     0  9.171961684E+01  9.494461343E+01  2.695583059E+02  3.251363529E+02  1.250000000E+02  0.00000E+00  9.000E+00
      25     1     1     2     0     0 -8.461077633E+01 -1.350232620E+02  1.029405925E+02  2.271828126E+02  1.250000000E+02  0.00000E+00  9.000E+00
      21     1     1     2   511   502 -7.108840514E+00  4.007864860E+01  3.812028480E+01  5.576728253E+01  9.536743164E-07  0.00000E+00  9.000E+00
#rwgt            1           1 -0.18175578443857512                1      463336           0
</event>
<event>
      5   9999  3.79277E-02  3.27553E+02 -1.00000E+00  1.04367E-01
      21    -1     0     0   512   501  0.000000000E+00  0.000000000E+00  2.860312839E+02  2.860312839E+02  0.000000000E+00  0.00000E+00  9.000E+00
      21    -1     0     0   501   502  0.000000000E+00  0.000000000E+00 -7.136603068E+02  7.136603068E+02  0.000000000E+00  0.00000E+00  9.000E+00
      25     1     1     2     0     0 -8.577614357E+01  1.910336517E+02 -2.082368929E+02  3.206852139E+02  1.250000000E+02  0.00000E+00  9.000E+00
      25     1     1     2     0     0 -2.311464711E+02 -1.082637145E+02 -2.063038157E+02  3.511922370E+02  1.250000000E+02  0.00000E+00  9.000E+00
      21     1     1     2   512   502  3.169226147E+02 -8.276993724E+01 -1.308831436E+01  3.278141397E+02  3.910355441E-06  0.00000E+00  9.000E+00
#rwgt            1           1   5.6365159705216591E-002           1      463524           0
</event>
<event>
      5   9999  3.79277E-02  3.23567E+01 -1.00000E+00  1.50793E-01
      21    -1     0     0   511   501  0.000000000E+00  0.000000000E+00  8.217584001E+02  8.217584001E+02  0.000000000E+00  0.00000E+00  9.000E+00
      21    -1     0     0   501   502  0.000000000E+00  0.000000000E+00 -3.292821774E+02  3.292821774E+02  0.000000000E+00  0.00000E+00  9.000E+00
      25     1     1     2     0     0 -1.239860173E+02 -1.186883265E+02 -2.233570114E+02  3.081765823E+02  1.250000000E+02  0.00000E+00  9.000E+00
      25     1     1     2     0     0  1.299399180E+02  8.688417034E+01  9.563169274E+01  2.218189847E+02  1.250000000E+02  0.00000E+00  9.000E+00
      21     1     1     2   511   502 -5.953900671E+00  3.180415618E+01  6.202015413E+02  6.210450105E+02  1.321449896E-05  0.00000E+00  9.000E+00
#rwgt            1           1  0.10938332979444040                1      463566           0
</event>
<event>
      5   9999  3.79277E-02  6.07234E+00 -1.00000E+00  2.24666E-01
      21    -1     0     0   502   512  0.000000000E+00  0.000000000E+00  1.640243094E+02  1.640243094E+02  0.000000000E+00  0.00000E+00  9.000E+00
      21    -1     0     0   501   502  0.000000000E+00  0.000000000E+00 -3.559647544E+02  3.559647544E+02  0.000000000E+00  0.00000E+00  9.000E+00
      25     1     1     2     0     0  1.443540904E+02 -4.091448975E+00 -2.437558495E+02  3.096720161E+02  1.250000000E+02  0.00000E+00  9.000E+00
      25     1     1     2     0     0 -1.479133920E+02  9.011272846E+00  4.136615485E+01  1.982315145E+02  1.250000000E+02  0.00000E+00  9.000E+00
      21     1     1     2   501   512  3.559301555E+00 -4.919823871E+00  1.044924967E+01  1.208553322E+01  1.192092896E-07  0.00000E+00  9.000E+00
#rwgt            1           1   2.7777187394947188E-002           1      463749           0
</event>
<event>
      5   9999  3.79277E-02  1.26434E+02 -1.00000E+00  1.19413E-01
       2    -1     0     0   502     0  0.000000000E+00  0.000000000E+00  2.368887035E+03  2.368887035E+03  0.000000000E+00  0.00000E+00  9.000E+00
      21    -1     0     0   501   502  0.000000000E+00  0.000000000E+00 -4.573014492E+02  4.573014492E+02  0.000000000E+00  0.00000E+00  9.000E+00
      25     1     1     2     0     0 -2.179082537E+01 -6.130340666E+01 -3.640481810E+02  3.903703701E+02  1.250000000E+02  0.00000E+00  9.000E+00
      25     1     1     2     0     0  1.408209850E+02  1.039343929E+02  6.944582228E+01  2.260102433E+02  1.250000000E+02  0.00000E+00  9.000E+00
       2     1     1     2   501     0 -1.190301596E+02 -4.263098619E+01  2.206187945E+03  2.209807871E+03  0.000000000E+00  0.00000E+00  9.000E+00
#rwgt            1           1   4.3997289492956358E-002           1      464129           0
</event>
<event>
      5   9999  3.79277E-02  2.56408E+01 -1.00000E+00  1.57932E-01
      21    -1     0     0   502   501  0.000000000E+00  0.000000000E+00  4.299376259E+01  4.299376259E+01  0.000000000E+00  0.00000E+00  9.000E+00
      21    -1     0     0   501   511  0.000000000E+00  0.000000000E+00 -6.675766346E+02  6.675766346E+02  0.000000000E+00  0.00000E+00  9.000E+00
      25     1     1     2     0     0 -1.463746772E+01  1.432161307E+01 -4.618631116E+02  4.789174228E+02  1.250000000E+02  0.00000E+00  9.000E+00
      25     1     1     2     0     0 -3.854067538E+00  3.441050937E+00 -8.881563756E+01  1.534272210E+02  1.250000000E+02  0.00000E+00  9.000E+00
      21     1     1     2   502   511  1.849153526E+01 -1.776266400E+01 -7.390412291E+01  7.822575338E+01  0.000000000E+00  0.00000E+00  9.000E+00
#rwgt            1           1   3.8086222543275899E-002           1      464259           0
</event>
<event>
      5   9999  3.79277E-02  4.14766E+01 -1.00000E+00  1.43871E-01
      21    -1     0     0   502   501  0.000000000E+00  0.000000000E+00  7.850665319E+02  7.850665319E+02  0.000000000E+00  0.00000E+00  9.000E+00
      21    -1     0     0   501   512  0.000000000E+00  0.000000000E+00 -6.261586812E+01  6.261586812E+01  0.000000000E+00  0.00000E+00  9.000E+00
      25     1     1     2     0     0 -5.277873485E+00  1.425355381E+02  5.040719861E+02  5.385701465E+02  1.250000000E+02  0.00000E+00  9.000E+00
      25     1     1     2     0     0 -3.071334395E+01 -1.219214610E+02  1.765544986E+02  2.502091987E+02  1.250000000E+02  0.00000E+00  9.000E+00
      21     1     1     2   502   512  3.599121743E+01 -2.061407711E+01  4.182417900E+01  5.890305473E+01  0.000000000E+00  0.00000E+00  9.000E+00
#rwgt            1           1   4.7530657689644061E-002           1      464414           0
</event>
<event>
      5   9999  3.79277E-02  4.03702E+01 -1.00000E+00  1.44592E-01
      21    -1     0     0   502   511  0.000000000E+00  0.000000000E+00  1.698265163E+02  1.698265163E+02  0.000000000E+00  0.00000E+00  9.000E+00
      21    -1     0     0   501   502  0.000000000E+00  0.000000000E+00 -3.795950378E+02  3.795950378E+02  0.000000000E+00  0.00000E+00  9.000E+00
      25     1     1     2     0     0  9.629228799E+01 -9.490519348E+01 -5.732281985E+01  1.928473649E+02  1.250000000E+02  0.00000E+00  9.000E+00
      25     1     1     2     0     0 -1.314709958E+02  1.147094746E+02 -2.005680821E+02  2.937608583E+02  1.250000000E+02  0.00000E+00  9.000E+00
      21     1     1     2   501   511  3.517870784E+01 -1.980428114E+01  4.812238044E+01  6.281333088E+01  1.651812370E-06  0.00000E+00  9.000E+00
#rwgt            1           1   3.0480091021046478E-002           1      464542           0
</event>
<event>
      5   9999  3.79277E-02  9.78723E+01 -1.00000E+00  1.24249E-01
      21    -1     0     0   502   501  0.000000000E+00  0.000000000E+00  1.740647162E+03  1.740647162E+03  0.000000000E+00  0.00000E+00  9.000E+00
      21    -1     0     0   512   502  0.000000000E+00  0.000000000E+00 -9.462509834E+01  9.462509834E+01  0.000000000E+00  0.00000E+00  9.000E+00
      25     1     1     2     0     0 -1.411266818E+02  1.670599276E+02  1.129180827E+03  1.156935651E+03  1.250000000E+02  0.00000E+00  9.000E+00
      25     1     1     2     0     0  1.768406344E+02 -2.581834940E+02  3.570919422E+02  4.909897980E+02  1.250000000E+02  0.00000E+00  9.000E+00
      21     1     1     2   512   501 -3.571395260E+01  9.112356640E+01  1.597492944E+02  1.873468116E+02  1.907348633E-06  0.00000E+00  9.000E+00
#rwgt            1           1   3.6395802078508933E-002           1      464675           0
</event>
<event>
      5   9999  3.79277E-02  2.74526E+01 -1.00000E+00  1.55766E-01
      21    -1     0     0   502   511  0.000000000E+00  0.000000000E+00  1.859768772E+02  1.859768772E+02  0.000000000E+00  0.00000E+00  9.000E+00
      21    -1     0     0   501   502  0.000000000E+00  0.000000000E+00 -1.310022682E+03  1.310022682E+03  0.000000000E+00  0.00000E+00  9.000E+00
      25     1     1     2     0     0  4.203981869E+01  1.205786751E+02 -7.704002941E+02  7.908528159E+02  1.250000000E+02  0.00000E+00  9.000E+00
      25     1     1     2     0     0 -6.634144556E+01 -1.078085829E+02 -5.132453071E+02  5.432031142E+02  1.250000000E+02  0.00000E+00  9.000E+00
      21     1     1     2   501   511  2.430162687E+01 -1.277009218E+01  1.595997959E+02  1.619436296E+02  5.046370146E-06  0.00000E+00  9.000E+00
#rwgt            1           1   3.6671432547038481E-002           1      464748           0
</event>
<event>
      5   9999  3.79277E-02  1.78117E+02 -1.00000E+00  1.13511E-01
      21    -1     0     0   512   501  0.000000000E+00  0.000000000E+00  6.183519221E+02  6.183519221E+02  0.000000000E+00  0.00000E+00  9.000E+00
      21    -1     0     0   501   502  0.000000000E+00  0.000000000E+00 -3.403248053E+02  3.403248053E+02  0.000000000E+00  0.00000E+00  9.000E+00
      25     1     1     2     0     0  1.630417070E+02 -2.536565933E+02 -9.447810922E+01  3.398166839E+02  1.250000000E+02  0.00000E+00  9.000E+00
      25     1     1     2     0     0 -2.599195438E+02  1.041901614E+02  1.757160248E+02  3.534329927E+02  1.250000000E+02  0.00000E+00  9.000E+00
      21     1     1     2   512   502  9.687783676E+01  1.494664319E+02  1.967892012E+02  2.654270507E+02  4.672030912E-06  0.00000E+00  9.000E+00
#rwgt            1           1   8.6795902439320657E-002           1      464878           0
</event>
<event>
      5   9999  3.79277E-02  3.18565E+01 -1.00000E+00  1.51250E-01
      21    -1     0     0   502   501  0.000000000E+00  0.000000000E+00  6.862418771E+02  6.862418771E+02  0.000000000E+00  0.00000E+00  9.000E+00
      21    -1     0     0   501   511  0.000000000E+00  0.000000000E+00 -1.310662969E+02  1.310662969E+02  0.000000000E+00  0.00000E+00  9.000E+00
      25     1     1     2     0     0 -1.526338642E+02  3.486098041E+01  2.571279706E+02  3.259634607E+02  1.250000000E+02  0.00000E+00  9.000E+00
      25     1     1     2     0     0  1.225353085E+02 -2.442475534E+01  3.714358223E+02  4.113405409E+02  1.250000000E+02  0.00000E+00  9.000E+00
      21     1     1     2   502   511  3.009855564E+01 -1.043622506E+01 -7.338821269E+01  8.000417244E+01  9.536743164E-07  0.00000E+00  9.000E+00
#rwgt            1           1   4.8368636823798862E-002           1      464927           0
</event>
<event>
      5   9999  3.79277E-02  7.65491E+01 -1.00000E+00  1.29283E-01
      21    -1     0     0   502   501  0.000000000E+00  0.000000000E+00  7.720117062E+02  7.720117062E+02  0.000000000E+00  0.00000E+00  9.000E+00
      21    -1     0     0   501   512  0.000000000E+00  0.000000000E+00 -7.039515606E+01  7.039515606E+01  0.000000000E+00  0.00000E+00  9.000E+00
      25     1     1     2     0     0 -1.202766368E+02  4.080341956E+01  1.734804637E+02  2.487003411E+02  1.250000000E+02  0.00000E+00  9.000E+00
      25     1     1     2     0     0  8.656703193E+01 -1.095306435E+02  4.314341017E+02  4.703734655E+02  1.250000000E+02  0.00000E+00  9.000E+00
      21     1     1     2   502   512  3.370960484E+01  6.872722393E+01  9.670198475E+01  1.233330557E+02  1.907348633E-06  0.00000E+00  9.000E+00
#rwgt            1           1   4.0067492027462008E-002           1      465161           0
</event>
<event>
      5   9999  3.79277E-02  5.92994E+01 -1.00000E+00  1.34977E-01
       1    -1     0     0   502     0  0.000000000E+00  0.000000000E+00  2.215718190E+03  2.215718190E+03  0.000000000E+00  0.00000E+00  9.000E+00
      21    -1     0     0   501   502  0.000000000E+00  0.000000000E+00 -4.106175255E+01  4.106175255E+01  0.000000000E+00  0.00000E+00  9.000E+00
      25     1     1     2     0     0  3.561714785E+01  1.088968914E+02  1.938765771E+02  2.575659941E+02  1.250000000E+02  0.00000E+00  9.000E+00
      25     1     1     2     0     0 -9.480710062E+01 -1.124984867E+02  1.130187897E+03  1.146557447E+03  1.250000000E+02  0.00000E+00  9.000E+00
       1     1     1     2   501     0  5.918995277E+01  3.601595293E+00  8.505919635E+02  8.526565019E+02  1.078959322E-05  0.00000E+00  9.000E+00
#rwgt            1           1   3.9997379253989510E-002           1      465280           0
</event>
<event>
      5   9999  3.79277E-02  5.93747E+02 -1.00000E+00  9.67771E-02
      21    -1     0     0   502   501  0.000000000E+00  0.000000000E+00  6.029506694E+02  6.029506694E+02  0.000000000E+00  0.00000E+00  9.000E+00
      21    -1     0     0   501   511  0.000000000E+00  0.000000000E+00 -1.375138813E+03  1.375138813E+03  0.000000000E+00  0.00000E+00  9.000E+00
      25     1     1     2     0     0 -1.538698430E+02 -4.435983907E+02 -1.371205641E+02  5.048589010E+02  1.250000000E+02  0.00000E+00  9.000E+00
      25     1     1     2     0     0 -3.534940981E+02  1.351876100E+02  2.021027923E+02  4.468828772E+02  1.250000000E+02  0.00000E+00  9.000E+00
      21     1     1     2   502   511  5.073639411E+02  3.084107808E+02 -8.371703716E+02  1.026347704E+03  1.078959322E-05  0.00000E+00  9.000E+00
#rwgt            2          11   4.8799927672659062E-004           1      465694           0
</event>
<event>
      5   9999  3.79277E-02  1.45234E+01 -1.00000E+00  1.78715E-01
      21    -1     0     0   502   501  0.000000000E+00  0.000000000E+00  1.287724792E+02  1.287724792E+02  0.000000000E+00  0.00000E+00  9.000E+00
      21    -1     0     0   501   512  0.000000000E+00  0.000000000E+00 -3.598702695E+02  3.598702695E+02  0.000000000E+00  0.00000E+00  9.000E+00
      25     1     1     2     0     0 -2.782920376E+01  1.265237105E+02 -2.027115125E+02  2.711082278E+02  1.250000000E+02  0.00000E+00  9.000E+00
      25     1     1     2     0     0  2.671780322E+01 -1.410044934E+02 -5.461885479E+00  1.903967972E+02  1.250000000E+02  0.00000E+00  9.000E+00
      21     1     1     2   502   512  1.111400539E+00  1.448078296E+01 -2.292439237E+01  2.713772378E+01  0.000000000E+00  0.00000E+00  9.000E+00
#rwgt            1           1   4.1457645780328865E-002           1      465774           0
</event>
<event>
      5   9999  3.79277E-02  1.95847E+02 -1.00000E+00  1.11981E-01
      21    -1     0     0   502   501  0.000000000E+00  0.000000000E+00  3.261469302E+02  3.261469302E+02  0.000000000E+00  0.00000E+00  9.000E+00
       1    -1     0     0   501     0  0.000000000E+00  0.000000000E+00 -1.507218102E+03  1.507218102E+03  0.000000000E+00  0.00000E+00  9.000E+00
      25     1     1     2     0     0 -1.239736837E+01 -3.987144618E+00  2.217117519E+02  2.548542583E+02  1.250000000E+02  0.00000E+00  9.000E+00
      25     1     1     2     0     0  2.081721923E+02  9.315088241E+00 -1.027816562E+02  2.638399162E+02  1.250000000E+02  0.00000E+00  9.000E+00
       1     1     1     2   502     0 -1.957748240E+02 -5.327943623E+00 -1.300001267E+03  1.314670857E+03  2.642899792E-05  0.00000E+00  9.000E+00
#rwgt            1           1   3.9982864435389141E-002           1      466050           0
</event>
<event>
      5   9999  3.79277E-02  4.37601E+01 -1.00000E+00  1.42461E-01
      21    -1     0     0   511   501  0.000000000E+00  0.000000000E+00  2.852426872E+02  2.852426872E+02  0.000000000E+00  0.00000E+00  9.000E+00
      21    -1     0     0   501   502  0.000000000E+00  0.000000000E+00 -2.315702199E+02  2.315702199E+02  0.000000000E+00  0.00000E+00  9.000E+00
      25     1     1     2     0     0 -3.975425603E+01 -1.356615152E+02  7.680772687E+01  2.037372683E+02  1.250000000E+02  0.00000E+00  9.000E+00
      25     1     1     2     0     0  6.822868885E+01  1.688902513E+02 -8.550427858E+01  2.368861596E+02  1.250000000E+02  0.00000E+00  9.000E+00
      21     1     1     2   511   502 -2.847443282E+01 -3.322873609E+01  6.236901899E+01  7.618947930E+01  6.743495762E-07  0.00000E+00  9.000E+00
#rwgt            1           1   2.2408929482796089E-002           1      466095           0
</event>
<event>
      5   9999  3.79277E-02  5.35272E+01 -1.00000E+00  1.37407E-01
      21    -1     0     0   502   512  0.000000000E+00  0.000000000E+00  1.879628767E+02  1.879628767E+02  0.000000000E+00  0.00000E+00  9.000E+00
      21    -1     0     0   501   502  0.000000000E+00  0.000000000E+00 -1.011749384E+03  1.011749384E+03  0.000000000E+00  0.00000E+00  9.000E+00
      25     1     1     2     0     0  1.641800177E+02 -1.045308680E+02 -5.433318043E+02  5.905219980E+02  1.250000000E+02  0.00000E+00  9.000E+00
      25     1     1     2     0     0 -1.450467626E+02  1.545216307E+02 -4.048568701E+02  4.737611032E+02  1.250000000E+02  0.00000E+00  9.000E+00
      21     1     1     2   501   512 -1.913325508E+01 -4.999076271E+01  1.244021675E+02  1.354291590E+02  2.336015456E-06  0.00000E+00  9.000E+00
#rwgt            1           1   4.1898200465590216E-002           1      466223           0
</event>
<event>
      5   9999  3.79277E-02  2.80624E+01 -1.00000E+00  1.55082E-01
      21    -1     0     0   502   501  0.000000000E+00  0.000000000E+00  4.859467162E+02  4.859467162E+02  0.000000000E+00  0.00000E+00  9.000E+00
       2    -1     0     0   501     0  0.000000000E+00  0.000000000E+00 -1.050030370E+03  1.050030370E+03  0.000000000E+00  0.00000E+00  9.000E+00
      25     1     1     2     0     0  5.947350895E+01 -1.129781750E+02 -9.581472691E+01  2.027476959E+02  1.250000000E+02  0.00000E+00  9.000E+00
      25     1     1     2     0     0 -3.250129834E+01  1.052324946E+02  4.162052306E+02  4.483101675E+02  1.250000000E+02  0.00000E+00  9.000E+00
       2     1     1     2   502     0 -2.697221061E+01  7.745680400E+00 -8.844741574E+02  8.849192228E+02  0.000000000E+00  0.00000E+00  9.000E+00
#rwgt            1           1   3.8352205359302095E-002           1      466360           0
</event>
<event>
      5   9999 -3.79277E-02  1.64450E+01 -1.00000E+00  1.73701E-01
      21    -1     0     0   502   501  0.000000000E+00  0.000000000E+00  1.202597973E+02  1.202597973E+02  0.000000000E+00  0.00000E+00  9.000E+00
      21    -1     0     0   511   502  0.000000000E+00  0.000000000E+00 -9.016394769E+02  9.016394769E+02  0.000000000E+00  0.00000E+00  9.000E+00
      25     1     1     2     0     0  8.777259315E+01 -1.108977054E+02 -1.747414146E+01  1.895591591E+02  1.250000000E+02  0.00000E+00  9.000E+00
      25     1     1     2     0     0 -8.661694043E+01  9.449331390E+01 -2.009401435E+02  2.691345797E+02  1.250000000E+02  0.00000E+00  9.000E+00
      21     1     1     2   511   501 -1.155652718E+00  1.640439151E+01 -5.629653946E+02  5.632055354E+02  1.078959322E-05  0.00000E+00  9.000E+00
#rwgt            1           1 -0.10648340843725945                1      466561           0
</event>
<event>
      5   9999  3.79277E-02  9.06217E+01 -1.00000E+00  1.25783E-01
      21    -1     0     0   502   501  0.000000000E+00  0.000000000E+00  1.396942818E+02  1.396942818E+02  0.000000000E+00  0.00000E+00  9.000E+00
      21    -1     0     0   512   502  0.000000000E+00  0.000000000E+00 -3.625975844E+02  3.625975844E+02  0.000000000E+00  0.00000E+00  9.000E+00
      25     1     1     2     0     0  5.266096034E+01 -3.281519551E+01  4.350395651E+01  1.461766330E+02  1.250000000E+02  0.00000E+00  9.000E+00
      25     1     1     2     0     0 -4.764466472E+01 -5.766756134E+01 -1.665652806E+02  2.212793583E+02  1.250000000E+02  0.00000E+00  9.000E+00
      21     1     1     2   512   501 -5.016295619E+00  9.048275685E+01 -9.984197842E+01  1.348358749E+02  2.697398305E-06  0.00000E+00  9.000E+00
#rwgt            1           1   3.7695260073662362E-002           1      466802           0
</event>
<event>
      5   9999  3.79277E-02  4.00460E+01 -1.00000E+00  1.44809E-01
      21    -1     0     0   502   511  0.000000000E+00  0.000000000E+00  1.813210888E+02  1.813210888E+02  0.000000000E+00  0.00000E+00  9.000E+00
      21    -1     0     0   501   502  0.000000000E+00  0.000000000E+00 -7.598707005E+02  7.598707005E+02  0.000000000E+00  0.00000E+00  9.000E+00
      25     1     1     2     0     0  9.081871955E+01 -2.178924553E+01  7.765758529E+00  1.562309766E+02  1.250000000E+02  0.00000E+00  9.000E+00
      25     1     1     2     0     0 -6.840061998E+01 -1.139370242E+01 -6.737736595E+02  6.887702124E+02  1.250000000E+02  0.00000E+00  9.000E+00
      21     1     1     2   501   511 -2.241809956E+01  3.318294795E+01  8.745828932E+01  9.619060033E+01  1.907348633E-06  0.00000E+00  9.000E+00
#rwgt            1           1   3.1315984161922598E-002           1      466903           0
</event>
<event>
      5   9999  3.79277E-02  1.08849E+01 -1.00000E+00  1.91594E-01
      21    -1     0     0   502   501  0.000000000E+00  0.000000000E+00  1.082327201E+02  1.082327201E+02  0.000000000E+00  0.00000E+00  9.000E+00
      21    -1     0     0   512   502  0.000000000E+00  0.000000000E+00 -7.085418502E+02  7.085418502E+02  0.000000000E+00  0.00000E+00  9.000E+00
      25     1     1     2     0     0  1.111072457E+02  7.115603462E+01 -2.050822346E+02  2.740286924E+02  1.250000000E+02  0.00000E+00  9.000E+00
      25     1     1     2     0     0 -1.210293496E+02 -6.668024009E+01 -4.413717135E+01  1.914874612E+02  1.250000000E+02  0.00000E+00  9.000E+00
      21     1     1     2   512   501  9.922103891E+00 -4.475794529E+00 -3.510897242E+02  3.512584167E+02  5.394796609E-06  0.00000E+00  9.000E+00
#rwgt            1           1   4.0534376427669286E-002           1      467001           0
</event>
<event>
      5   9999  3.79277E-02  5.45182E+01 -1.00000E+00  1.36965E-01
      21    -1     0     0   511   501  0.000000000E+00  0.000000000E+00  1.514173427E+03  1.514173427E+03  0.000000000E+00  0.00000E+00  9.000E+00
      21    -1     0     0   501   502  0.000000000E+00  0.000000000E+00 -3.487291913E+01  3.487291913E+01  0.000000000E+00  0.00000E+00  9.000E+00
      25     1     1     2     0     0  1.680051819E+01  1.154623818E+02  2.921157791E+02  3.384825659E+02  1.250000000E+02  0.00000E+00  9.000E+00
      25     1     1     2     0     0  3.661336476E+01 -1.263798702E+02  9.517679380E+02  9.689167239E+02  1.250000000E+02  0.00000E+00  9.000E+00
      21     1     1     2   511   502 -5.341388296E+01  1.091748833E+01  2.354167904E+02  2.416470559E+02  0.000000000E+00  0.00000E+00  9.000E+00
#rwgt            1           1   3.0780538799751431E-002           1      467231           0
</event>
<event>
      5   9999  3.79277E-02  9.89899E+00 -1.00000E+00  1.96268E-01
      21    -1     0     0   502   501  0.000000000E+00  0.000000000E+00  5.328037822E+02  5.328037822E+02  0.000000000E+00  0.00000E+00  9.000E+00
      21    -1     0     0   501   512  0.000000000E+00  0.000000000E+00 -2.396319124E+02  2.396319124E+02  0.000000000E+00  0.00000E+00  9.000E+00
      25     1     1     2     0     0 -2.959382624E+02  3.245712075E+01  2.859582825E+00  3.229026123E+02  1.250000000E+02  0.00000E+00  9.000E+00
      25     1     1     2     0     0  3.058019254E+02 -3.329263255E+01  2.875868311E+02  4.392657537E+02  1.250000000E+02  0.00000E+00  9.000E+00
      21     1     1     2   502   512 -9.863662976E+00  8.355118040E-01  2.725455863E+00  1.026732862E+01  4.214684851E-08  0.00000E+00  9.000E+00
#rwgt            1           1   4.4789023955763764E-002           1      467387           0
</event>
<event>
      5   9999  3.79277E-02  3.09458E+01 -1.00000E+00  1.52109E-01
      21    -1     0     0   502   501  0.000000000E+00  0.000000000E+00  3.366371258E+02  3.366371258E+02  0.000000000E+00  0.00000E+00  9.000E+00
      21    -1     0     0   501   511  0.000000000E+00  0.000000000E+00 -2.237022657E+02  2.237022657E+02  0.000000000E+00  0.00000E+00  9.000E+00
      25     1     1     2     0     0  5.749864596E+01 -1.461130771E+02  1.476025511E+02  2.491317697E+02  1.250000000E+02  0.00000E+00  9.000E+00
      25     1     1     2     0     0 -8.196055220E+01  1.271590390E+02  6.509223078E+01  2.067581965E+02  1.250000000E+02  0.00000E+00  9.000E+00
      21     1     1     2   502   511  2.446190624E+01  1.895403806E+01 -9.975992186E+01  1.044494252E+02  0.000000000E+00  0.00000E+00  9.000E+00
#rwgt            1           1   3.6162833834352495E-002           1      467625           0
</event>
<event>
      5   9999  3.79277E-02  6.79168E+01 -1.00000E+00  1.31889E-01
      21    -1     0     0   502   501  0.000000000E+00  0.000000000E+00  5.124385628E+02  5.124385628E+02  0.000000000E+00  0.00000E+00  9.000E+00
      21    -1     0     0   501   512  0.000000000E+00  0.000000000E+00 -2.616126588E+02  2.616126588E+02  0.000000000E+00  0.00000E+00  9.000E+00
      25     1     1     2     0     0 -8.667912801E+01  4.184053984E+01  4.162925536E+02  4.451835489E+02  1.250000000E+02  0.00000E+00  9.000E+00
      25     1     1     2     0     0  7.044879065E+01 -1.077895261E+02 -3.653716249E+01  1.831436002E+02  1.250000000E+02  0.00000E+00  9.000E+00
      21     1     1     2   502   512  1.623033736E+01  6.594898629E+01 -1.289294872E+02  1.457240725E+02  1.907348633E-06  0.00000E+00  9.000E+00
#rwgt            1           1   2.9068540100469723E-002           1      467745           0
</event>
<event>
      5   9999  3.79277E-02  5.06119E+01 -1.00000E+00  1.38775E-01
      21    -1     0     0   502   511  0.000000000E+00  0.000000000E+00  1.639845550E+03  1.639845550E+03  0.000000000E+00  0.00000E+00  9.000E+00
      21    -1     0     0   501   502  0.000000000E+00  0.000000000E+00 -3.635704618E+01  3.635704618E+01  0.000000000E+00  0.00000E+00  9.000E+00
      25     1     1     2     0     0  1.181249792E+02  6.022788881E+01  7.688214756E+02  7.901217442E+02  1.250000000E+02  0.00000E+00  9.000E+00
      25     1     1     2     0     0 -1.654741450E+02 -7.810586467E+01  4.907972661E+02  5.385064300E+02  1.250000000E+02  0.00000E+00  9.000E+00
      21     1     1     2   501   511  4.734916578E+01  1.787797586E+01  3.438697621E+02  3.475744219E+02  3.814697266E-06  0.00000E+00  9.000E+00
#rwgt            1           1   4.2675975466068938E-002           1      467843           0
</event>
<event>
      5   9999  3.79277E-02  8.50504E+01 -1.00000E+00  1.27076E-01
       2    -1     0     0   502     0  0.000000000E+00  0.000000000E+00  1.357339302E+03  1.357339302E+03  0.000000000E+00  0.00000E+00  9.000E+00
      21    -1     0     0   501   502  0.000000000E+00  0.000000000E+00 -3.807309494E+02  3.807309494E+02  0.000000000E+00  0.00000E+00  9.000E+00
      25     1     1     2     0     0 -2.429527669E+02  3.989421197E+01 -9.701599677E+01  2.926682400E+02  1.250000000E+02  0.00000E+00  9.000E+00
      25     1     1     2     0     0  1.872896989E+02 -1.041996699E+02 -1.008691224E+02  2.678331241E+02  1.250000000E+02  0.00000E+00  9.000E+00
       2     1     1     2   501     0  5.566306798E+01  6.430545791E+01  1.174493472E+03  1.177568887E+03  1.525878906E-05  0.00000E+00  9.000E+00
#rwgt            1           1   1.8324280753773594E-002           1      467996           0
</event>
<event>
      5   9999 -3.79277E-02  7.78773E+01 -1.00000E+00  1.28917E-01
      21    -1     0     0   502   501  0.000000000E+00  0.000000000E+00  3.376505528E+02  3.376505528E+02  0.000000000E+00  0.00000E+00  9.000E+00
      -1    -1     0     0     0   502  0.000000000E+00  0.000000000E+00 -6.414269862E+02  6.414269862E+02  0.000000000E+00  0.00000E+00  9.000E+00
      25     1     1     2     0     0 -5.431172292E+01 -1.204061330E+02  1.363886728E+02  2.273197532E+02  1.250000000E+02  0.00000E+00  9.000E+00
      25     1     1     2     0     0 -1.166311674E+01  7.902739275E+01  1.171517078E+02  1.890261351E+02  1.250000000E+02  0.00000E+00  9.000E+00
      -1     1     1     2     0   501  6.597483966E+01  4.137874030E+01 -5.573168140E+02  5.627316508E+02  1.078959322E-05  0.00000E+00  9.000E+00
#rwgt            1           1  -6.5707798904766607E-002           1      468295           0
</event>
<event>
      5   9999  3.79277E-02  1.60743E+01 -1.00000E+00  1.74600E-01
      21    -1     0     0   502   501  0.000000000E+00  0.000000000E+00  3.032357039E+02  3.032357039E+02  0.000000000E+00  0.00000E+00  9.000E+00
      21    -1     0     0   511   502  0.000000000E+00  0.000000000E+00 -1.992747845E+02  1.992747845E+02  0.000000000E+00  0.00000E+00  9.000E+00
      25     1     1     2     0     0 -6.631887256E+01 -4.294086380E+01  2.396091043E+02  2.815663928E+02  1.250000000E+02  0.00000E+00  9.000E+00
      25     1     1     2     0     0  8.048209215E+01  3.533920766E+01 -1.364282609E+02  2.048509144E+02  1.250000000E+02  0.00000E+00  9.000E+00
      21     1     1     2   511   501 -1.416321959E+01  7.601656140E+00  7.800760158E-01  1.609318128E+01  1.893679057E-07  0.00000E+00  9.000E+00
#rwgt            1           1   5.0587084501879952E-002           1      468372           0
</event>
<event>
      5   9999  3.79277E-02  1.26863E+02 -1.00000E+00  1.19352E-01
      21    -1     0     0   502   512  0.000000000E+00  0.000000000E+00  1.283118145E+03  1.283118145E+03  0.000000000E+00  0.00000E+00  9.000E+00
      21    -1     0     0   501   502  0.000000000E+00  0.000000000E+00 -5.634250562E+01  5.634250562E+01  0.000000000E+00  0.00000E+00  9.000E+00
      25     1     1     2     0     0  8.373324447E+01 -2.868438856E+01  1.160156814E+02  1.921423657E+02  1.250000000E+02  0.00000E+00  9.000E+00
      25     1     1     2     0     0  3.262822391E+01  7.922437871E+01  7.428321898E+02  7.581330789E+02  1.250000000E+02  0.00000E+00  9.000E+00
      21     1     1     2   501   512 -1.163614684E+02 -5.053999014E+01  3.679277678E+02  3.891852056E+02  0.000000000E+00  0.00000E+00  9.000E+00
#rwgt            1           1   3.1653643536104371E-002           1      468622           0
</event>
<event>
      5   9999  3.79277E-02  3.40007E+01 -1.00000E+00  1.49357E-01
      21    -1     0     0   502   511  0.000000000E+00  0.000000000E+00  1.309013628E+02  1.309013628E+02  0.000000000E+00  0.00000E+00  9.000E+00
      21    -1     0     0   501   502  0.000000000E+00  0.000000000E+00 -8.386805735E+02  8.386805735E+02  0.000000000E+00  0.00000E+00  9.000E+00
      25     1     1     2     0     0  1.585211317E+02  1.354626322E+02 -3.686720127E+02  4.416142286E+02  1.250000000E+02  0.00000E+00  9.000E+00
      25     1     1     2     0     0 -1.347860878E+02 -1.598079084E+02 -3.941083182E+02  4.633057560E+02  1.250000000E+02  0.00000E+00  9.000E+00
      21     1     1     2   501   511 -2.373504389E+01  2.434527626E+01  5.500112021E+01  6.466195179E+01  1.651812370E-06  0.00000E+00  9.000E+00
#rwgt            1           1   3.0411327757018398E-002           1      468752           0
</event>
<event>
      5   9999  3.79277E-02  3.97229E+01 -1.00000E+00  1.45028E-01
      21    -1     0     0   512   501  0.000000000E+00  0.000000000E+00  5.319898040E+02  5.319898040E+02  0.000000000E+00  0.00000E+00  9.000E+00
      21    -1     0     0   501   502  0.000000000E+00  0.000000000E+00 -1.193127760E+02  1.193127760E+02  0.000000000E+00  0.00000E+00  9.000E+00
      25     1     1     2     0     0 -1.212044206E+02  4.634605652E+01  1.844049812E+01  1.811174219E+02  1.250000000E+02  0.00000E+00  9.000E+00
      25     1     1     2     0     0  1.308589553E+02 -7.814291041E+00  1.915052942E+02  2.635989512E+02  1.250000000E+02  0.00000E+00  9.000E+00
      21     1     1     2   512   502 -9.654534703E+00 -3.853176548E+01  2.027312356E+02  2.065862069E+02  3.814697266E-06  0.00000E+00  9.000E+00
#rwgt            1           1   4.3352275942595025E-002           1      468879           0
</event>
<event>
      5   9999  3.79277E-02  3.11345E+01 -1.00000E+00  1.51929E-01
      21    -1     0     0   502   501  0.000000000E+00  0.000000000E+00  1.384876327E+03  1.384876327E+03  0.000000000E+00  0.00000E+00  9.000E+00
      21    -1     0     0   501   511  0.000000000E+00  0.000000000E+00 -6.572431611E+01  6.572431611E+01  0.000000000E+00  0.00000E+00  9.000E+00
      25     1     1     2     0     0 -4.865747989E+01  1.196831502E+02  8.038814696E+02  8.237366230E+02  1.250000000E+02  0.00000E+00  9.000E+00
      25     1     1     2     0     0  7.791473266E+01 -1.090356294E+02  5.502914460E+02  5.800044392E+02  1.250000000E+02  0.00000E+00  9.000E+00
      21     1     1     2   502   511 -2.925725277E+01 -1.064752078E+01 -3.502090481E+01  4.685958079E+01  1.966049969E-06  0.00000E+00  9.000E+00
#rwgt            1           1   7.7004493295386847E-002           1      469021           0
</event>
<event>
      5   9999  3.79277E-02  3.57239E+01 -1.00000E+00  1.47953E-01
      21    -1     0     0   502   501  0.000000000E+00  0.000000000E+00  1.976045181E+02  1.976045181E+02  0.000000000E+00  0.00000E+00  9.000E+00
      -2    -1     0     0     0   502  0.000000000E+00  0.000000000E+00 -4.655652515E+02  4.655652515E+02  0.000000000E+00  0.00000E+00  9.000E+00
      25     1     1     2     0     0  1.388803156E+02  4.644539619E+01 -8.882918388E+01  2.120390077E+02  1.250000000E+02  0.00000E+00  9.000E+00
      25     1     1     2     0     0 -1.537704733E+02 -7.891817929E+01  5.011969635E+01  2.191128053E+02  1.250000000E+02  0.00000E+00  9.000E+00
      -2     1     1     2     0   501  1.489015766E+01  3.247278309E+01 -2.292512459E+02  2.320179566E+02  3.814697266E-06  0.00000E+00  9.000E+00
#rwgt            1           1   2.8176704799875062E-002           1      469149           0
</event>
<event>
      5   9999  3.79277E-02  5.39014E+01 -1.00000E+00  1.37239E-01
      21    -1     0     0   502   501  0.000000000E+00  0.000000000E+00  2.933426244E+02  2.933426244E+02  0.000000000E+00  0.00000E+00  9.000E+00
      21    -1     0     0   501   511  0.000000000E+00  0.000000000E+00 -3.997366928E+02  3.997366928E+02  0.000000000E+00  0.00000E+00  9.000E+00
      25     1     1     2     0     0  5.617787813E+01  8.396731953E+01 -8.598787255E+01  1.822783009E+02  1.250000000E+02  0.00000E+00  9.000E+00
      25     1     1     2     0     0 -5.172467080E+01 -3.025016415E+01  2.224111735E+02  2.620729748E+02  1.250000000E+02  0.00000E+00  9.000E+00
      21     1     1     2   502   511 -4.453207327E+00 -5.371715538E+01 -2.428173694E+02  2.487280416E+02  0.000000000E+00  0.00000E+00  9.000E+00
#rwgt            1           1   3.6021598412758649E-002           1      469362           0
</event>
<event>
      5   9999  3.79277E-02  4.69421E+01 -1.00000E+00  1.40658E-01
      21    -1     0     0   502   501  0.000000000E+00  0.000000000E+00  5.606184136E+01  5.606184136E+01  0.000000000E+00  0.00000E+00  9.000E+00
      21    -1     0     0   501   512  0.000000000E+00  0.000000000E+00 -2.014337817E+03  2.014337817E+03  0.000000000E+00  0.00000E+00  9.000E+00
      25     1     1     2     0     0 -2.323399355E+00  1.444590982E+02 -1.653841367E+02  2.526870434E+02  1.250000000E+02  0.00000E+00  9.000E+00
      25     1     1     2     0     0 -4.289581647E+01 -1.318581851E+02 -7.204680998E+02  7.442619934E+02  1.250000000E+02  0.00000E+00  9.000E+00
      21     1     1     2   502   512  4.521921583E+01 -1.260091318E+01 -1.072423739E+03  1.073450622E+03  2.642899792E-05  0.00000E+00  9.000E+00
#rwgt            1           1   4.5009241915682389E-002           1      469506           0
</event>
<event>
      5   9999  3.79277E-02  8.30328E+01 -1.00000E+00  1.27572E-01
      21    -1     0     0   502   501  0.000000000E+00  0.000000000E+00  4.085070952E+02  4.085070952E+02  0.000000000E+00  0.00000E+00  9.000E+00
      21    -1     0     0   511   502  0.000000000E+00  0.000000000E+00 -4.986819321E+02  4.986819321E+02  0.000000000E+00  0.00000E+00  9.000E+00
      25     1     1     2     0     0  1.220665637E+02  1.201969868E+02 -2.076450834E+01  2.130815018E+02  1.250000000E+02  0.00000E+00  9.000E+00
      25     1     1     2     0     0 -1.631322935E+02 -4.803011402E+01  2.711291201E+02  3.435913806E+02  1.250000000E+02  0.00000E+00  9.000E+00
      21     1     1     2   511   501  4.106572977E+01 -7.216687279E+01 -3.405394486E+02  3.505161448E+02  5.394796609E-06  0.00000E+00  9.000E+00
#rwgt            1           1   4.0990085195223139E-002           1      469754           0
</event>
<event>
      5   9999  3.79277E-02  4.64734E+01 -1.00000E+00  1.40912E-01
      21    -1     0     0   502   501  0.000000000E+00  0.000000000E+00  1.684163627E+01  1.684163627E+01  0.000000000E+00  0.00000E+00  9.000E+00
      21    -1     0     0   501   512  0.000000000E+00  0.000000000E+00 -2.247554238E+03  2.247554238E+03  0.000000000E+00  0.00000E+00  9.000E+00
      25     1     1     2     0     0  1.111724669E+02 -6.123417417E+01 -1.110865913E+03  1.125058673E+03  1.250000000E+02  0.00000E+00  9.000E+00
      25     1     1     2     0     0 -1.001325160E+02  1.609106162E+01 -7.899582010E+02  8.061912939E+02  1.250000000E+02  0.00000E+00  9.000E+00
      21     1     1     2   502   512 -1.103995097E+01  4.514311255E+01 -3.298884878E+02  3.331459072E+02  3.814697266E-06  0.00000E+00  9.000E+00
#rwgt            1           1   9.8790168782408899E-002           1      470041           0
</event>
<event>
      5   9999  3.79277E-02  4.64852E+01 -1.00000E+00  1.40906E-01
      21    -1     0     0   502   501  0.000000000E+00  0.000000000E+00  1.626050980E+02  1.626050980E+02  0.000000000E+00  0.00000E+00  9.000E+00
      21    -1     0     0   511   502  0.000000000E+00  0.000000000E+00 -3.453881628E+02  3.453881628E+02  0.000000000E+00  0.00000E+00  9.000E+00
      25     1     1     2     0     0 -6.589672939E+01  2.717636134E+01 -3.150749504E+01  1.473046361E+02  1.250000000E+02  0.00000E+00  9.000E+00
      25     1     1     2     0     0  5.612880543E+01  1.827100477E+01  5.534478444E+01  1.489037192E+02  1.250000000E+02  0.00000E+00  9.000E+00
      21     1     1     2   511   501  9.767923957E+00 -4.544736611E+01 -2.066203542E+02  2.117849055E+02  2.697398305E-06  0.00000E+00  9.000E+00
#rwgt            1           1   8.9801907713005863E-002           1      470114           0
</event>
<event>
      5   9999  3.79277E-02  7.92994E+01 -1.00000E+00  1.28535E-01
      21    -1     0     0   502   501  0.000000000E+00  0.000000000E+00  1.315657838E+02  1.315657838E+02  0.000000000E+00  0.00000E+00  9.000E+00
      21    -1     0     0   501   512  0.000000000E+00  0.000000000E+00 -4.390205646E+02  4.390205646E+02  0.000000000E+00  0.00000E+00  9.000E+00
      25     1     1     2     0     0  1.045108656E+02  4.903039035E+01 -1.012549892E+02  1.980001844E+02  1.250000000E+02  0.00000E+00  9.000E+00
      25     1     1     2     0     0 -8.553533335E+01 -1.260260308E+02 -5.950042008E+01  2.058255418E+02  1.250000000E+02  0.00000E+00  9.000E+00
      21     1     1     2   502   512 -1.897553222E+01  7.699564042E+01 -1.466993716E+02  1.667606222E+02  0.000000000E+00  0.00000E+00  9.000E+00
#rwgt            1           1   5.7082238226510415E-002           1      470166           0
</event>
<event>
      5   9999  3.79277E-02  1.47659E+02 -1.00000E+00  1.16665E-01
      21    -1     0     0   502   511  0.000000000E+00  0.000000000E+00  3.283136270E+02  3.283136270E+02  0.000000000E+00  0.00000E+00  9.000E+00
      21    -1     0     0   501   502  0.000000000E+00  0.000000000E+00 -3.603466776E+02  3.603466776E+02  0.000000000E+00  0.00000E+00  9.000E+00
      25     1     1     2     0     0 -2.082138865E+02 -4.926448147E+01 -2.185354042E+02  3.303978429E+02  1.250000000E+02  0.00000E+00  9.000E+00
      25     1     1     2     0     0  6.212573871E+01  7.074557137E+01  7.685765780E+01  1.743463302E+02  1.250000000E+02  0.00000E+00  9.000E+00
      21     1     1     2   501   511  1.460881478E+02 -2.148108990E+01  1.096446958E+02  1.839161316E+02  2.697398305E-06  0.00000E+00  9.000E+00
#rwgt            1           1   4.5577932034430953E-002           1      470236           0
</event>
<event>
      5   9999  3.79277E-02  9.97994E+01 -1.00000E+00  1.23867E-01
      21    -1     0     0   502   512  0.000000000E+00  0.000000000E+00  1.173340180E+02  1.173340180E+02  0.000000000E+00  0.00000E+00  9.000E+00
      21    -1     0     0   501   502  0.000000000E+00  0.000000000E+00 -1.174854663E+03  1.174854663E+03  0.000000000E+00  0.00000E+00  9.000E+00
      25     1     1     2     0     0 -3.487436456E+01 -4.677492510E+01 -4.107311269E+02  4.332772479E+02  1.250000000E+02  0.00000E+00  9.000E+00
      25     1     1     2     0     0 -5.212044838E+01  9.568116949E+01 -7.176215707E+02  7.365304787E+02  1.250000000E+02  0.00000E+00  9.000E+00
      21     1     1     2   501   512  8.699481294E+01 -4.890624439E+01  7.083205292E+01  1.223809542E+02  1.907348633E-06  0.00000E+00  9.000E+00
#rwgt            1           1   1.0119445454249084E-002           1      470311           0
</event>
<event>
      5   9999  3.79277E-02  7.78353E+01 -1.00000E+00  1.28929E-01
      21    -1     0     0   502   511  0.000000000E+00  0.000000000E+00  8.796605403E+02  8.796605403E+02  0.000000000E+00  0.00000E+00  9.000E+00
      21    -1     0     0   501   502  0.000000000E+00  0.000000000E+00 -9.893112931E+01  9.893112931E+01  0.000000000E+00  0.00000E+00  9.000E+00
      25     1     1     2     0     0 -8.441280700E+01 -4.364399660E+01  5.430707927E+02  5.653151390E+02  1.250000000E+02  0.00000E+00  9.000E+00
      25     1     1     2     0     0  7.003389833E+00  5.177525197E+01 -2.636297736E+01  1.380207621E+02  1.250000000E+02  0.00000E+00  9.000E+00
      21     1     1     2   501   511  7.740941717E+01 -8.131255365E+00  2.640215957E+02  2.752557686E+02  3.814697266E-06  0.00000E+00  9.000E+00
#rwgt            1           1   3.1454070101542810E-002           1      470459           0
</event>
<event>
      5   9999  3.79277E-02  7.82932E+01 -1.00000E+00  1.28804E-01
      21    -1     0     0   512   501  0.000000000E+00  0.000000000E+00  1.260232931E+03  1.260232931E+03  0.000000000E+00  0.00000E+00  9.000E+00
      21    -1     0     0   501   502  0.000000000E+00  0.000000000E+00 -8.593319578E+01  8.593319578E+01  0.000000000E+00  0.00000E+00  9.000E+00
      25     1     1     2     0     0 -2.040670009E+02  1.152686330E+02  3.867081402E+02  4.691464423E+02  1.250000000E+02  0.00000E+00  9.000E+00
      25     1     1     2     0     0  1.780386213E+02 -1.891086806E+02  4.824957303E+02  5.620382314E+02  1.250000000E+02  0.00000E+00  9.000E+00
      21     1     1     2   512   502  2.602837960E+01  7.384004752E+01  3.050958650E+02  3.149814535E+02  0.000000000E+00  0.00000E+00  9.000E+00
#rwgt            1           1   3.2930961701305675E-002           1      470550           0
</event>
<event>
      5   9999  3.79277E-02  2.30108E+01 -1.00000E+00  1.61496E-01
       1    -1     0     0   502     0  0.000000000E+00  0.000000000E+00  1.806219607E+03  1.806219607E+03  0.000000000E+00  0.00000E+00  9.000E+00
      21    -1     0     0   501   502  0.000000000E+00  0.000000000E+00 -2.982941418E+02  2.982941418E+02  0.000000000E+00  0.00000E+00  9.000E+00
      25     1     1     2     0     0  4.047245135E+01  1.348572967E+02 -2.010628266E+02  2.754555682E+02  1.250000000E+02  0.00000E+00  9.000E+00
      25     1     1     2     0     0 -5.846279681E+01 -1.492045525E+02  1.122893615E+02  2.321934491E+02  1.250000000E+02  0.00000E+00  9.000E+00
       1     1     1     2   501     0  1.799034546E+01  1.434725585E+01  1.596698930E+03  1.596864731E+03  0.000000000E+00  0.00000E+00  9.000E+00
#rwgt            1           1   3.9148809656352056E-002           1      470627           0
</event>
<event>
      5   9999  3.79277E-02  1.88270E+01 -1.00000E+00  1.68564E-01
      21    -1     0     0   511   501  0.000000000E+00  0.000000000E+00  1.208396784E+02  1.208396784E+02  0.000000000E+00  0.00000E+00  9.000E+00
      21    -1     0     0   501   502  0.000000000E+00  0.000000000E+00 -9.055034490E+02  9.055034490E+02  0.000000000E+00  0.00000E+00  9.000E+00
      25     1     1     2     0     0 -1.192247278E+02  1.434319784E+02 -6.847269122E+01  2.347355482E+02  1.250000000E+02  0.00000E+00  9.000E+00
      25     1     1     2     0     0  1.352075858E+02 -1.533821154E+02 -7.299536054E+02  7.682866852E+02  1.250000000E+02  0.00000E+00  9.000E+00
      21     1     1     2   511   502 -1.598285795E+01  9.950136988E+00  1.376252599E+01  2.332089398E+01  2.920019320E-07  0.00000E+00  9.000E+00
#rwgt            1           1   4.1594439996334533E-002           1      470893           0
</event>
<event>
      5   9999  3.79277E-02  3.50065E+01 -1.00000E+00  1.48526E-01
      21    -1     0     0   502   501  0.000000000E+00  0.000000000E+00  4.309888787E+02  4.309888787E+02  0.000000000E+00  0.00000E+00  9.000E+00
      21    -1     0     0   501   512  0.000000000E+00  0.000000000E+00 -1.779044995E+02  1.779044995E+02  0.000000000E+00  0.00000E+00  9.000E+00
      25     1     1     2     0     0  7.041046015E+01 -1.247329475E+02 -3.371012018E+01  1.930733366E+02  1.250000000E+02  0.00000E+00  9.000E+00
      25     1     1     2     0     0 -4.747129804E+01  1.511763308E+02  3.127667285E+02  3.722308875E+02  1.250000000E+02  0.00000E+00  9.000E+00
      21     1     1     2   502   512 -2.293916211E+01 -2.644338326E+01 -2.597222913E+01  4.358915418E+01  5.840038640E-07  0.00000E+00  9.000E+00
#rwgt            1           1   3.8944325883991687E-002           1      471262           0
</event>
<event>
      5   9999  3.79277E-02  8.32405E+01 -1.00000E+00  1.27520E-01
      21    -1     0     0   511   501  0.000000000E+00  0.000000000E+00  6.580073228E+02  6.580073228E+02  0.000000000E+00  0.00000E+00  9.000E+00
      21    -1     0     0   501   502  0.000000000E+00  0.000000000E+00 -2.681929579E+02  2.681929579E+02  0.000000000E+00  0.00000E+00  9.000E+00
      25     1     1     2     0     0 -6.230206084E+01  9.923996343E+01  3.713858238E+01  1.753122683E+02  1.250000000E+02  0.00000E+00  9.000E+00
      25     1     1     2     0     0  4.293298042E+01 -1.801956768E+02 -1.317140160E+02  2.593979659E+02  1.250000000E+02  0.00000E+00  9.000E+00
      21     1     1     2   511   502  1.936908042E+01  8.095571335E+01  4.843897986E+02  4.914900464E+02  7.629394531E-06  0.00000E+00  9.000E+00
#rwgt            1           1   3.5536997727681423E-002           1      471390           0
</event>
<event>
      5   9999  3.79277E-02  4.50673E+01 -1.00000E+00  1.41699E-01
      21    -1     0     0   502   501  0.000000000E+00  0.000000000E+00  2.241533339E+02  2.241533339E+02  0.000000000E+00  0.00000E+00  9.000E+00
      21    -1     0     0   501   512  0.000000000E+00  0.000000000E+00 -7.156259946E+02  7.156259946E+02  0.000000000E+00  0.00000E+00  9.000E+00
      25     1     1     2     0     0 -2.567233064E+01 -1.161712860E+02  1.146013342E+02  2.071552607E+02  1.250000000E+02  0.00000E+00  9.000E+00
      25     1     1     2     0     0  2.580498099E+01  1.612383682E+02 -1.075522300E+02  2.320693659E+02  1.250000000E+02  0.00000E+00  9.000E+00
      21     1     1     2   502   512 -1.326503423E-01 -4.506708216E+01 -4.985217649E+02  5.005547019E+02  5.394796609E-06  0.00000E+00  9.000E+00
#rwgt            1           1   4.6191900703776614E-002           1      471503           0
</event>
<event>
      5   9999  3.79277E-02  7.23305E+01 -1.00000E+00  1.30504E-01
      21    -1     0     0   502   501  0.000000000E+00  0.000000000E+00  4.809368540E+02  4.809368540E+02  0.000000000E+00  0.00000E+00  9.000E+00
      21    -1     0     0   501   511  0.000000000E+00  0.000000000E+00 -1.630978841E+02  1.630978841E+02  0.000000000E+00  0.00000E+00  9.000E+00
      25     1     1     2     0     0 -7.568016689E+01  1.945967416E+02  1.209852394E+02  2.717679297E+02  1.250000000E+02  0.00000E+00  9.000E+00
      25     1     1     2     0     0  1.343246630E+02 -1.522585915E+02  1.779175943E+02  2.974986792E+02  1.250000000E+02  0.00000E+00  9.000E+00
      21     1     1     2   502   511 -5.864449611E+01 -4.233815005E+01  1.893613625E+01  7.476812910E+01  1.651812370E-06  0.00000E+00  9.000E+00
#rwgt            1           1   4.2298531834081228E-002           1      471702           0
</event>
<event>
      5   9999  3.79277E-02  2.47700E+01 -1.00000E+00  1.59052E-01
      21    -1     0     0   502   501  0.000000000E+00  0.000000000E+00  2.599846835E+02  2.599846835E+02  0.000000000E+00  0.00000E+00  9.000E+00
      21    -1     0     0   512   502  0.000000000E+00  0.000000000E+00 -1.168310496E+03  1.168310496E+03  0.000000000E+00  0.00000E+00  9.000E+00
      25     1     1     2     0     0 -1.929644279E+02 -2.273915104E+02 -8.613159588E+02  9.200175816E+02  1.250000000E+02  0.00000E+00  9.000E+00
      25     1     1     2     0     0  1.783406138E+02  2.473839168E+02  1.114275552E+02  3.479156174E+02  1.250000000E+02  0.00000E+00  9.000E+00
      21     1     1     2   512   501  1.462381417E+01 -1.999240634E+01 -1.584374086E+02  1.603619802E+02  1.907348633E-06  0.00000E+00  9.000E+00
#rwgt            1           1   9.1882252212152127E-002           1      471771           0
</event>
<event>
      5   9999  3.79277E-02  3.46632E+01 -1.00000E+00  1.48806E-01
      21    -1     0     0   502   501  0.000000000E+00  0.000000000E+00  4.137665822E+02  4.137665822E+02  0.000000000E+00  0.00000E+00  9.000E+00
       2    -1     0     0   501     0  0.000000000E+00  0.000000000E+00 -1.311382978E+03  1.311382978E+03  0.000000000E+00  0.00000E+00  9.000E+00
      25     1     1     2     0     0 -7.611234173E+01 -1.292657248E+02  3.285455611E+02  3.821909233E+02  1.250000000E+02  0.00000E+00  9.000E+00
      25     1     1     2     0     0  8.606005963E+01  1.624708972E+02 -1.545011637E+02  2.707373929E+02  1.250000000E+02  0.00000E+00  9.000E+00
       2     1     1     2   502     0 -9.947717898E+00 -3.320517244E+01 -1.071660793E+03  1.072221244E+03  1.525878906E-05  0.00000E+00  9.000E+00
#rwgt            1           1   4.6979519912933698E-002           1      471926           0
</event>
<event>
      5   9999  3.79277E-02  1.59146E+01 -1.00000E+00  1.74996E-01
      21    -1     0     0   502   511  0.000000000E+00  0.000000000E+00  4.373298144E+02  4.373298144E+02  0.000000000E+00  0.00000E+00  9.000E+00
      21    -1     0     0   501   502  0.000000000E+00  0.000000000E+00 -2.852740111E+02  2.852740111E+02  0.000000000E+00  0.00000E+00  9.000E+00
      25     1     1     2     0     0 -4.278021534E+01  1.641738858E+02 -1.124047791E+02  2.388368606E+02  1.250000000E+02  0.00000E+00  9.000E+00
      25     1     1     2     0     0  2.979034549E+01 -1.733683008E+02 -3.013711017E+00  2.158196350E+02  1.250000000E+02  0.00000E+00  9.000E+00
      21     1     1     2   501   511  1.298986985E+01  9.194415010E+00  2.674742934E+02  2.679473299E+02  0.000000000E+00  0.00000E+00  9.000E+00
#rwgt            1           1   4.0177141110672755E-002           1      472045           0
</event>
<event>
      5   9999  3.79277E-02  2.88655E+01 -1.00000E+00  1.54212E-01
      21    -1     0     0   502   501  0.000000000E+00  0.000000000E+00  3.517818829E+01  3.517818829E+01  0.000000000E+00  0.00000E+00  9.000E+00
       2    -1     0     0   501     0  0.000000000E+00  0.000000000E+00 -1.958920177E+03  1.958920177E+03  0.000000000E+00  0.00000E+00  9.000E+00
      25     1     1     2     0     0  8.094303888E+01 -1.160755326E+01 -1.239500493E+03  1.248468255E+03  1.250000000E+02  0.00000E+00  9.000E+00
      25     1     1     2     0     0 -6.095705621E+01  3.243483029E+01 -1.378699892E+02  1.984966369E+02  1.250000000E+02  0.00000E+00  9.000E+00
       2     1     1     2   502     0 -1.998598267E+01 -2.082727703E+01 -5.463715066E+02  5.471334738E+02  0.000000000E+00  0.00000E+00  9.000E+00
#rwgt            1           1   4.1097527292808300E-002           1      472478           0
</event>
<event>
      5   9999  3.79277E-02  8.51957E+01 -1.00000E+00  1.27041E-01
       5    -1     0     0   502     0  0.000000000E+00  0.000000000E+00  3.845552203E+02  3.845552203E+02  0.000000000E+00  0.00000E+00  9.000E+00
      21    -1     0     0   501   502  0.000000000E+00  0.000000000E+00 -2.838461978E+02  2.838461978E+02  0.000000000E+00  0.00000E+00  9.000E+00
      25     1     1     2     0     0 -5.192036976E+01  1.948913914E+02 -2.575386529E+01  2.386768544E+02  1.250000000E+02  0.00000E+00  9.000E+00
      25     1     1     2     0     0 -1.313098926E+00 -1.283744205E+02 -8.751264544E+01  1.994120839E+02  1.250000000E+02  0.00000E+00  9.000E+00
       5     1     1     2   501     0  5.323346869E+01 -6.651697085E+01  2.139755332E+02  2.303124800E+02  3.814697266E-06  0.00000E+00  9.000E+00
#rwgt            1           1   4.1412200594459991E-002           1      472657           0
</event>
<event>
      5   9999  3.79277E-02  1.67639E+02 -1.00000E+00  1.14512E-01
       3    -1     0     0   502     0  0.000000000E+00  0.000000000E+00  1.233334392E+03  1.233334392E+03  0.000000000E+00  0.00000E+00  9.000E+00
      21    -1     0     0   501   502  0.000000000E+00  0.000000000E+00 -5.880523504E+02  5.880523504E+02  0.000000000E+00  0.00000E+00  9.000E+00
      25     1     1     2     0     0 -4.186715217E+02  3.320316486E+02 -2.918921823E+02  6.215761457E+02  1.250000000E+02  0.00000E+00  9.000E+00
      25     1     1     2     0     0  4.074034579E+02 -1.647712847E+02  3.137696285E+02  5.542594461E+02  1.250000000E+02  0.00000E+00  9.000E+00
       3     1     1     2   501     0  1.126806376E+01 -1.672603640E+02  6.234045952E+02  6.455511505E+02  1.078959322E-05  0.00000E+00  9.000E+00
#rwgt            1           1   6.2188279602179340E-002           1      472765           0
</event>
<event>
      5   9999  3.79277E-02  2.92075E+02 -1.00000E+00  1.05971E-01
      21    -1     0     0   502   501  0.000000000E+00  0.000000000E+00  3.344610161E+02  3.344610161E+02  0.000000000E+00  0.00000E+00  9.000E+00
       2    -1     0     0   501     0  0.000000000E+00  0.000000000E+00 -2.308691629E+03  2.308691629E+03  0.000000000E+00  0.00000E+00  9.000E+00
      25     1     1     2     0     0 -6.581270547E+01 -1.315022943E+02  4.986009818E+01  1.993368882E+02  1.250000000E+02  0.00000E+00  9.000E+00
      25     1     1     2     0     0 -1.039199531E+02  3.691966617E+02 -4.714205734E+00  4.034262701E+02  1.250000000E+02  0.00000E+00  9.000E+00
       2     1     1     2   502     0  1.697326585E+02 -2.376943674E+02 -2.019376506E+03  2.040389487E+03  3.737624730E-05  0.00000E+00  9.000E+00
#rwgt            2          13   1.8294050802833734E-003           1      472840           0
</event>
<event>
      5   9999  3.79277E-02  3.02045E+02 -1.00000E+00  1.05496E-01
      21    -1     0     0   502   501  0.000000000E+00  0.000000000E+00  4.525479445E+02  4.525479445E+02  0.000000000E+00  0.00000E+00  9.000E+00
       2    -1     0     0   501     0  0.000000000E+00  0.000000000E+00 -1.573602834E+03  1.573602834E+03  0.000000000E+00  0.00000E+00  9.000E+00
      25     1     1     2     0     0  2.610408776E+02 -2.224474033E+02 -7.914595352E+02  8.715838358E+02  1.250000000E+02  0.00000E+00  9.000E+00
      25     1     1     2     0     0 -3.164076336E+02  5.193741026E+02  1.005501102E+02  6.289662739E+02  1.250000000E+02  0.00000E+00  9.000E+00
       2     1     1     2   502     0  5.536675593E+01 -2.969266993E+02 -4.301454650E+02  5.256006692E+02  0.000000000E+00  0.00000E+00  9.000E+00
#rwgt            2          13   5.5938053498641937E-004           1      472949           0
</event>
<event>
      5   9999  3.79277E-02  6.83874E+00 -1.00000E+00  2.16994E-01
      21    -1     0     0   502   501  0.000000000E+00  0.000000000E+00  2.252790110E+02  2.252790110E+02  0.000000000E+00  0.00000E+00  9.000E+00
      21    -1     0     0   511   502  0.000000000E+00  0.000000000E+00 -2.924257799E+02  2.924257799E+02  0.000000000E+00  0.00000E+00  9.000E+00
      25     1     1     2     0     0  1.901012796E+02 -5.983427074E+01  3.445574563E+01  2.377621393E+02  1.250000000E+02  0.00000E+00  9.000E+00
      25     1     1     2     0     0 -1.835069573E+02  6.164627067E+01 -6.045787500E+01  2.382335424E+02  1.250000000E+02  0.00000E+00  9.000E+00
      21     1     1     2   511   501 -6.594322292E+00 -1.811999928E+00 -4.114463950E+01  4.170910920E+01  4.768371582E-07  0.00000E+00  9.000E+00
#rwgt            1           1   4.2892163809339599E-002           1      472968           0
</event>
<event>
      5   9999  3.79277E-02  4.81065E+01 -1.00000E+00  1.40039E-01
      21    -1     0     0   502   512  0.000000000E+00  0.000000000E+00  3.530770172E+01  3.530770172E+01  0.000000000E+00  0.00000E+00  9.000E+00
      21    -1     0     0   501   502  0.000000000E+00  0.000000000E+00 -1.935543125E+03  1.935543125E+03  0.000000000E+00  0.00000E+00  9.000E+00
      25     1     1     2     0     0 -8.512926679E+01 -1.024885063E+02 -1.203850600E+03  1.217633834E+03  1.250000000E+02  0.00000E+00  9.000E+00
      25     1     1     2     0     0  1.247607582E+02  7.521989231E+01 -6.727838841E+02  6.996330707E+02  1.250000000E+02  0.00000E+00  9.000E+00
      21     1     1     2   501   512 -3.963149138E+01  2.726861396E+01 -2.360093961E+01  5.358392265E+01  8.259061849E-07  0.00000E+00  9.000E+00
#rwgt            1           1  0.12952027150972475                1      473565           0
</event>
<event>
      5   9999  3.79277E-02  1.93894E+01 -1.00000E+00  1.67488E-01
      21    -1     0     0   502   511  0.000000000E+00  0.000000000E+00  1.300429783E+02  1.300429783E+02  0.000000000E+00  0.00000E+00  9.000E+00
      21    -1     0     0   501   502  0.000000000E+00  0.000000000E+00 -7.581279491E+02  7.581279491E+02  0.000000000E+00  0.00000E+00  9.000E+00
      25     1     1     2     0     0  2.541123007E+02 -8.206231031E+01 -2.729670031E+02  4.018000360E+02  1.250000000E+02  0.00000E+00  9.000E+00
      25     1     1     2     0     0 -2.677446671E+02  9.585026850E+01 -3.458569230E+02  4.648833100E+02  1.250000000E+02  0.00000E+00  9.000E+00
      21     1     1     2   501   511  1.363236645E+01 -1.378795820E+01 -9.261044676E+00  2.148758141E+01  2.384185791E-07  0.00000E+00  9.000E+00
#rwgt            1           1   9.1473448628493409E-002           1      473748           0
</event>
<event>
      5   9999  3.79277E-02  1.31691E+02 -1.00000E+00  1.18679E-01
      21    -1     0     0   502   501  0.000000000E+00  0.000000000E+00  1.534693598E+03  1.534693598E+03  0.000000000E+00  0.00000E+00  9.000E+00
       1    -1     0     0   501     0  0.000000000E+00  0.000000000E+00 -3.885799077E+02  3.885799077E+02  0.000000000E+00  0.00000E+00  9.000E+00
      25     1     1     2     0     0  1.332049406E+01  1.532484840E+02  3.133428844E+02  3.707712187E+02  1.250000000E+02  0.00000E+00  9.000E+00
      25     1     1     2     0     0 -6.306554592E+01 -2.751824284E+02  1.159673520E+03  1.200070958E+03  1.250000000E+02  0.00000E+00  9.000E+00
       1     1     1     2   502     0  4.974505185E+01  1.219339444E+02 -3.269027141E+02  3.524313287E+02  8.529922400E-06  0.00000E+00  9.000E+00
#rwgt            1           1   3.2019566565443677E-002           1      474018           0
</event>
<event>
      5   9999  3.79277E-02  5.78994E+01 -1.00000E+00  1.35536E-01
      21    -1     0     0   502   511  0.000000000E+00  0.000000000E+00  3.661445117E+03  3.661445117E+03  0.000000000E+00  0.00000E+00  9.000E+00
      21    -1     0     0   501   502  0.000000000E+00  0.000000000E+00 -2.669762232E+01  2.669762232E+01  0.000000000E+00  0.00000E+00  9.000E+00
      25     1     1     2     0     0  1.198371751E+02 -4.238547556E+01  3.632817492E+02  4.046678964E+02  1.250000000E+02  0.00000E+00  9.000E+00
      25     1     1     2     0     0 -1.661341029E+02  7.715522995E+01  2.695060285E+03  2.704168709E+03  1.250000000E+02  0.00000E+00  9.000E+00
      21     1     1     2   501   511  4.629692781E+01 -3.476975439E+01  5.764054610E+02  5.793061340E+02  1.078959322E-05  0.00000E+00  9.000E+00
#rwgt            1           1   3.7220881559360777E-002           1      474158           0
</event>
<event>
      5   9999  3.79277E-02  6.49883E+00 -1.00000E+00  2.20217E-01
      21    -1     0     0   502   501  0.000000000E+00  0.000000000E+00  3.683767281E+02  3.683767281E+02  0.000000000E+00  0.00000E+00  9.000E+00
      21    -1     0     0   501   512  0.000000000E+00  0.000000000E+00 -1.166434446E+02  1.166434446E+02  0.000000000E+00  0.00000E+00  9.000E+00
      25     1     1     2     0     0  5.309762472E+01 -5.627827285E+01 -3.342652075E+01  1.507611821E+02  1.250000000E+02  0.00000E+00  9.000E+00
      25     1     1     2     0     0 -5.859647363E+01  5.974199934E+01  2.896352287E+02  3.263682260E+02  1.250000000E+02  0.00000E+00  9.000E+00
      21     1     1     2   502   512  5.498848904E+00 -3.463726493E+00 -4.475424552E+00  7.890764564E+00  1.576990671E-07  0.00000E+00  9.000E+00
#rwgt            1           1   4.9984320318947006E-002           1      474264           0
</event>
<event>
      5   9999  3.79277E-02  6.16671E+01 -1.00000E+00  1.34070E-01
      21    -1     0     0   502   501  0.000000000E+00  0.000000000E+00  2.719443581E+02  2.719443581E+02  0.000000000E+00  0.00000E+00  9.000E+00
      21    -1     0     0   511   502  0.000000000E+00  0.000000000E+00 -3.336879865E+02  3.336879865E+02  0.000000000E+00  0.00000E+00  9.000E+00
      25     1     1     2     0     0  1.499971831E+02  1.311336899E+01  1.408426759E+02  2.411073925E+02  1.250000000E+02  0.00000E+00  9.000E+00
      25     1     1     2     0     0 -2.057622680E+02  1.321314816E+01 -1.551179048E+02  2.867041377E+02  1.250000000E+02  0.00000E+00  9.000E+00
      21     1     1     2   511   501  5.576508489E+01 -2.632651714E+01 -4.746839944E+01  7.782081433E+01  2.023048729E-06  0.00000E+00  9.000E+00
#rwgt            1           1  0.17241069871168574                1      474713           0
</event>
<event>
      5   9999  3.79277E-02  3.22754E+01 -1.00000E+00  1.50867E-01
      21    -1     0     0   502   501  0.000000000E+00  0.000000000E+00  6.625318691E+01  6.625318691E+01  0.000000000E+00  0.00000E+00  9.000E+00
      21    -1     0     0   501   512  0.000000000E+00  0.000000000E+00 -1.040821777E+03  1.040821777E+03  0.000000000E+00  0.00000E+00  9.000E+00
      25     1     1     2     0     0  1.493901163E+02 -1.197591692E+02 -3.458857383E+02  4.146343080E+02  1.250000000E+02  0.00000E+00  9.000E+00
      25     1     1     2     0     0 -1.708346267E+02  1.438804098E+02 -5.290719258E+02  5.877313542E+02  1.250000000E+02  0.00000E+00  9.000E+00
      21     1     1     2   502   512  2.144451040E+01 -2.412124066E+01 -9.961092579E+01  1.047093015E+02  1.907348633E-06  0.00000E+00  9.000E+00
#rwgt            1           1   3.9569735967638131E-002           1      474931           0
</event>
<event>
      5   9999  3.79277E-02  1.08056E+01 -1.00000E+00  1.91946E-01
      21    -1     0     0   511   501  0.000000000E+00  0.000000000E+00  2.595954276E+02  2.595954276E+02  0.000000000E+00  0.00000E+00  9.000E+00
      21    -1     0     0   501   502  0.000000000E+00  0.000000000E+00 -7.800012882E+01  7.800012882E+01  0.000000000E+00  0.00000E+00  9.000E+00
      25     1     1     2     0     0  2.752242250E+01 -4.453198285E+01  1.023583977E+02  1.698317486E+02  1.250000000E+02  0.00000E+00  9.000E+00
      25     1     1     2     0     0 -3.769308241E+01  4.088255749E+01  7.073745395E+01  1.540160360E+02  1.250000000E+02  0.00000E+00  9.000E+00
      21     1     1     2   511   502  1.017065991E+01  3.649425365E+00  8.499447105E+00  1.374777180E+01  1.192092896E-07  0.00000E+00  9.000E+00
#rwgt            1           1   3.4534754973495813E-002           1      475036           0
</event>
<event>
      5   9999  3.79277E-02  1.21906E+02 -1.00000E+00  1.20079E-01
      21    -1     0     0   502   501  0.000000000E+00  0.000000000E+00  3.713459973E+02  3.713459973E+02  0.000000000E+00  0.00000E+00  9.000E+00
       1    -1     0     0   501     0  0.000000000E+00  0.000000000E+00 -6.418702454E+02  6.418702454E+02  0.000000000E+00  0.00000E+00  9.000E+00
      25     1     1     2     0     0  8.209551641E+01 -1.029807312E+02  4.042710203E+01  1.860216530E+02  1.250000000E+02  0.00000E+00  9.000E+00
      25     1     1     2     0     0 -1.667066260E+02  1.521982839E+01  2.075884902E+02  2.945177814E+02  1.250000000E+02  0.00000E+00  9.000E+00
       1     1     1     2   502     0  8.461110961E+01  8.776090285E+01 -5.185398404E+02  5.326768082E+02  0.000000000E+00  0.00000E+00  9.000E+00
#rwgt            1           1   3.3798703647163045E-002           1      475178           0
</event>
<event>
      5   9999  3.79277E-02  4.81982E+01 -1.00000E+00  1.39991E-01
      21    -1     0     0   502   501  0.000000000E+00  0.000000000E+00  1.876341645E+02  1.876341645E+02  0.000000000E+00  0.00000E+00  9.000E+00
      21    -1     0     0   501   511  0.000000000E+00  0.000000000E+00 -3.621212523E+02  3.621212523E+02  0.000000000E+00  0.00000E+00  9.000E+00
      25     1     1     2     0     0  3.078906647E+01  1.580944525E+02 -8.071584376E+01  2.192757851E+02  1.250000000E+02  0.00000E+00  9.000E+00
      25     1     1     2     0     0 -2.083554415E+01 -2.052536801E+02 -1.959139898E+01  2.420165615E+02  1.250000000E+02  0.00000E+00  9.000E+00
      21     1     1     2   502   511 -9.953522317E+00  4.715922769E+01 -7.417984514E+01  8.846307019E+01  0.000000000E+00  0.00000E+00  9.000E+00
#rwgt            1           1   3.7132509244832003E-002           1      475236           0
</event>
<event>
      5   9999  3.79277E-02  1.59442E+02 -1.00000E+00  1.15353E-01
      21    -1     0     0   502   512  0.000000000E+00  0.000000000E+00  7.527123546E+02  7.527123546E+02  0.000000000E+00  0.00000E+00  9.000E+00
      21    -1     0     0   501   502  0.000000000E+00  0.000000000E+00 -1.560215448E+02  1.560215448E+02  0.000000000E+00  0.00000E+00  9.000E+00
      25     1     1     2     0     0 -1.594803258E+01  4.088507442E+01 -6.395216817E+01  1.471081536E+02  1.250000000E+02  0.00000E+00  9.000E+00
      25     1     1     2     0     0  1.460296698E+02  5.131260714E+01  4.860080120E+02  5.251537259E+02  1.250000000E+02  0.00000E+00  9.000E+00
      21     1     1     2   501   512 -1.300816372E+02 -9.219768156E+01  1.746349661E+02  2.364720199E+02  5.046370146E-06  0.00000E+00  9.000E+00
#rwgt            1           1   4.0391075775598757E-002           1      475346           0
</event>
<event>
      5   9999  3.79277E-02  5.85119E+01 -1.00000E+00  1.35289E-01
      21    -1     0     0   502   501  0.000000000E+00  0.000000000E+00  7.161352106E+01  7.161352106E+01  0.000000000E+00  0.00000E+00  9.000E+00
      21    -1     0     0   511   502  0.000000000E+00  0.000000000E+00 -6.741845325E+02  6.741845325E+02  0.000000000E+00  0.00000E+00  9.000E+00
      25     1     1     2     0     0  9.912938168E+01 -3.663501027E+01 -2.411441675E+02  2.914519991E+02  1.250000000E+02  0.00000E+00  9.000E+00
      25     1     1     2     0     0 -1.573630717E+02  4.233399923E+01 -2.183217201E+02  2.997410170E+02  1.250000000E+02  0.00000E+00  9.000E+00
      21     1     1     2   511   501  5.823368998E+01 -5.698988962E+00 -1.431051239E+02  1.546050375E+02  3.303624740E-06  0.00000E+00  9.000E+00
#rwgt            1           1   4.1151365065397828E-002           1      475541           0
</event>
<event>
      5   9999  3.79277E-02  1.11658E+01 -1.00000E+00  1.90379E-01
      21    -1     0     0   502   501  0.000000000E+00  0.000000000E+00  9.306771998E+02  9.306771998E+02  0.000000000E+00  0.00000E+00  9.000E+00
      21    -1     0     0   512   502  0.000000000E+00  0.000000000E+00 -7.890221962E+01  7.890221962E+01  0.000000000E+00  0.00000E+00  9.000E+00
      25     1     1     2     0     0 -5.138958059E+01  2.024571317E+02  2.774517423E+02  3.690992393E+02  1.250000000E+02  0.00000E+00  9.000E+00
      25     1     1     2     0     0  4.035148437E+01 -2.007733149E+02  5.802090796E+02  6.278580590E+02  1.250000000E+02  0.00000E+00  9.000E+00
      21     1     1     2   512   501  1.103809622E+01 -1.683816765E+00 -5.885841715E+00  1.262212105E+01  3.674277069E-07  0.00000E+00  9.000E+00
#rwgt            1           1   4.0247961740680224E-002           1      475613           0
</event>
<event>
      5   9999  3.79277E-02  2.53692E+01 -1.00000E+00  1.58276E-01
      21    -1     0     0   502   511  0.000000000E+00  0.000000000E+00  4.553281327E+01  4.553281327E+01  0.000000000E+00  0.00000E+00  9.000E+00
      21    -1     0     0   501   502  0.000000000E+00  0.000000000E+00 -1.269630212E+03  1.269630212E+03  0.000000000E+00  0.00000E+00  9.000E+00
      25     1     1     2     0     0  1.940466868E+01 -7.298352852E+01 -1.237057362E+02  1.913929094E+02  1.250000000E+02  0.00000E+00  9.000E+00
      25     1     1     2     0     0 -4.295159944E+01  6.354230726E+01 -1.083297282E+03  1.093179064E+03  1.250000000E+02  0.00000E+00  9.000E+00
      21     1     1     2   501   511  2.354693076E+01  9.441221251E+00 -1.709438041E+01  3.059105177E+01  6.743495762E-07  0.00000E+00  9.000E+00
#rwgt            1           1   4.1621959108904670E-002           1      475928           0
</event>
<event>
      5   9999  3.79277E-02  7.17695E+01 -1.00000E+00  1.30674E-01
      21    -1     0     0   502   501  0.000000000E+00  0.000000000E+00  1.115754732E+03  1.115754732E+03  0.000000000E+00  0.00000E+00  9.000E+00
      21    -1     0     0   512   502  0.000000000E+00  0.000000000E+00 -4.622764782E+02  4.622764782E+02  0.000000000E+00  0.00000E+00  9.000E+00
      25     1     1     2     0     0  4.897690495E+01  6.128991313E+00  9.325718544E+02  9.422056916E+02  1.250000000E+02  0.00000E+00  9.000E+00
      25     1     1     2     0     0 -5.230820789E+01  6.556316784E+01  1.430283846E+02  2.076458436E+02  1.250000000E+02  0.00000E+00  9.000E+00
      21     1     1     2   512   501  3.331302946E+00 -7.169215915E+01 -4.221219854E+02  4.281796747E+02  7.629394531E-06  0.00000E+00  9.000E+00
#rwgt            1           1   3.9327647353525272E-002           1      476091           0
</event>
<event>
      5   9999  3.79277E-02  8.07168E+01 -1.00000E+00  1.28162E-01
       1    -1     0     0   502     0  0.000000000E+00  0.000000000E+00  6.638893514E+02  6.638893514E+02  0.000000000E+00  0.00000E+00  9.000E+00
      21    -1     0     0   501   502  0.000000000E+00  0.000000000E+00 -2.397415034E+02  2.397415034E+02  0.000000000E+00  0.00000E+00  9.000E+00
      25     1     1     2     0     0 -4.159435191E+01 -1.430766643E+02 -1.438904414E+02  2.419307362E+02  1.250000000E+02  0.00000E+00  9.000E+00
      25     1     1     2     0     0  1.101759019E+02  1.005116985E+02  1.790773591E+02  2.644523236E+02  1.250000000E+02  0.00000E+00  9.000E+00
       1     1     1     2   501     0 -6.858155001E+01  4.256496584E+01  3.889609303E+02  3.972477950E+02  0.000000000E+00  0.00000E+00  9.000E+00
#rwgt            1           1   2.1724674798423563E-002           1      476324           0
</event>
<event>
      5   9999  3.79277E-02  4.07022E+01 -1.00000E+00  1.44373E-01
      21    -1     0     0   502   501  0.000000000E+00  0.000000000E+00  3.948126352E+02  3.948126352E+02  0.000000000E+00  0.00000E+00  9.000E+00
      21    -1     0     0   501   511  0.000000000E+00  0.000000000E+00 -4.551289839E+02  4.551289839E+02  0.000000000E+00  0.00000E+00  9.000E+00
      25     1     1     2     0     0  2.954036359E+01  1.174013440E+02  6.888454380E+01  1.871517807E+02  1.250000000E+02  0.00000E+00  9.000E+00
      25     1     1     2     0     0 -2.156055138E+01 -7.748902299E+01  2.449010331E+02  2.864802298E+02  1.250000000E+02  0.00000E+00  9.000E+00
      21     1     1     2   502   511 -7.979812205E+00 -3.991232096E+01 -3.741019256E+02  3.763096086E+02  5.394796609E-06  0.00000E+00  9.000E+00
#rwgt            1           1   3.7305705166024876E-002           1      476461           0
</event>
<event>
      5   9999  3.79277E-02  6.86273E+01 -1.00000E+00  1.31658E-01
      21    -1     0     0   502   512  0.000000000E+00  0.000000000E+00  5.373329760E+02  5.373329760E+02  0.000000000E+00  0.00000E+00  9.000E+00
      21    -1     0     0   501   502  0.000000000E+00  0.000000000E+00 -1.110329814E+03  1.110329814E+03  0.000000000E+00  0.00000E+00  9.000E+00
      25     1     1     2     0     0  1.044041022E+02 -3.298711628E+02 -7.834380923E+02  8.655145551E+02  1.250000000E+02  0.00000E+00  9.000E+00
      25     1     1     2     0     0 -1.717344660E+02  3.431501892E+02 -1.383827281E+02  4.266375025E+02  1.250000000E+02  0.00000E+00  9.000E+00
      21     1     1     2   501   512  6.733036375E+01 -1.327902638E+01  3.488239822E+02  3.555107326E+02  5.394796609E-06  0.00000E+00  9.000E+00
#rwgt            1           1  0.19363371787736322                1      476794           0
</event>
<event>
      5   9999  3.79277E-02  3.35270E+01 -1.00000E+00  1.49761E-01
      -1    -1     0     0     0   501  0.000000000E+00  0.000000000E+00  1.638138780E+03  1.638138780E+03  0.000000000E+00  0.00000E+00  9.000E+00
      21    -1     0     0   501   502  0.000000000E+00  0.000000000E+00 -2.631241126E+01  2.631241126E+01  0.000000000E+00  0.00000E+00  9.000E+00
      25     1     1     2     0     0 -3.816888800E+01  1.184966395E+02  8.133956538E+02  8.323075196E+02  1.250000000E+02  0.00000E+00  9.000E+00
      25     1     1     2     0     0  3.352192515E+01 -1.516999938E+02  7.133470359E+02  7.406926497E+02  1.250000000E+02  0.00000E+00  9.000E+00
      -1     1     1     2     0   502  4.646962850E+00  3.320335427E+01  8.508367944E+01  9.145102244E+01  2.523185073E-06  0.00000E+00  9.000E+00
#rwgt            1           1   3.8934053671880860E-002           1      476882           0
</event>
<event>
      5   9999  3.79277E-02  1.88074E+02 -1.00000E+00  1.12629E-01
      21    -1     0     0   502   501  0.000000000E+00  0.000000000E+00  1.133218715E+03  1.133218715E+03  0.000000000E+00  0.00000E+00  9.000E+00
      21    -1     0     0   501   511  0.000000000E+00  0.000000000E+00 -1.619670990E+02  1.619670990E+02  0.000000000E+00  0.00000E+00  9.000E+00
      25     1     1     2     0     0  1.161837104E+02 -6.592757872E+01  2.087572228E+02  2.775782381E+02  1.250000000E+02  0.00000E+00  9.000E+00
      25     1     1     2     0     0  2.345739875E+01  1.919118382E+02  7.941849075E+02  8.268827429E+02  1.250000000E+02  0.00000E+00  9.000E+00
      21     1     1     2   502   511 -1.396411092E+02 -1.259842595E+02 -3.169051483E+01  1.907248325E+02  3.216442481E-06  0.00000E+00  9.000E+00
#rwgt            1           1   3.4662781582350990E-002           1      477245           0
</event>
<event>
      5   9999  3.79277E-02  1.06449E+02 -1.00000E+00  1.22619E-01
       1    -1     0     0   502     0  0.000000000E+00  0.000000000E+00  4.501821337E+02  4.501821337E+02  0.000000000E+00  0.00000E+00  9.000E+00
      21    -1     0     0   501   502  0.000000000E+00  0.000000000E+00 -4.173143866E+02  4.173143866E+02  0.000000000E+00  0.00000E+00  9.000E+00
      25     1     1     2     0     0 -4.605161220E+01 -3.607920831E+02 -1.732508712E+02  4.218205099E+02  1.250000000E+02  0.00000E+00  9.000E+00
      25     1     1     2     0     0  4.243921374E+01  2.544043232E+02  1.294527589E+02  3.144927079E+02  1.250000000E+02  0.00000E+00  9.000E+00
       1     1     1     2   501     0  3.612398456E+00  1.063877598E+02  7.666585939E+01  1.311833025E+02  1.348699152E-06  0.00000E+00  9.000E+00
#rwgt            1           1   3.0276629525651966E-002           1      477300           0
</event>
<event>
      5   9999  3.79277E-02  3.34070E+01 -1.00000E+00  1.49864E-01
      21    -1     0     0   502   501  0.000000000E+00  0.000000000E+00  1.288532799E+03  1.288532799E+03  0.000000000E+00  0.00000E+00  9.000E+00
       1    -1     0     0   501     0  0.000000000E+00  0.000000000E+00 -1.199971561E+03  1.199971561E+03  0.000000000E+00  0.00000E+00  9.000E+00
      25     1     1     2     0     0  2.304908901E+02 -1.291021733E+02  5.858403396E+02  6.546963609E+02  1.250000000E+02  0.00000E+00  9.000E+00
      25     1     1     2     0     0 -2.514211015E+02  1.030646759E+02  6.345383916E+02  7.014975896E+02  1.250000000E+02  0.00000E+00  9.000E+00
       1     1     1     2   502     0  2.093021145E+01  2.603749736E+01 -1.131817493E+03  1.132310409E+03  0.000000000E+00  0.00000E+00  9.000E+00
#rwgt            1           1  0.24804335831940355                1      477397           0
</event>
<event>
      5   9999  3.79277E-02  9.48293E+00 -1.00000E+00  1.98461E-01
      21    -1     0     0   502   501  0.000000000E+00  0.000000000E+00  6.146243241E+02  6.146243241E+02  0.000000000E+00  0.00000E+00  9.000E+00
      21    -1     0     0   501   511  0.000000000E+00  0.000000000E+00 -1.817312211E+02  1.817312211E+02  0.000000000E+00  0.00000E+00  9.000E+00
      25     1     1     2     0     0 -1.205038372E+02  1.045884901E+01  2.051954288E+02  2.689994913E+02  1.250000000E+02  0.00000E+00  9.000E+00
      25     1     1     2     0     0  1.111813634E+02 -1.219593635E+01  3.587158880E+02  3.959951070E+02  1.250000000E+02  0.00000E+00  9.000E+00
      21     1     1     2   502   511  9.322473814E+00  1.737087337E+00 -1.310182139E+02  1.313609469E+02  0.000000000E+00  0.00000E+00  9.000E+00
#rwgt            1           1   3.8039452736019386E-002           1      477564           0
</event>
<event>
      5   9999  3.79277E-02  1.87444E+02 -1.00000E+00  1.12683E-01
      21    -1     0     0   502   501  0.000000000E+00  0.000000000E+00  5.521554013E+02  5.521554013E+02  0.000000000E+00  0.00000E+00  9.000E+00
       3    -1     0     0   501     0  0.000000000E+00  0.000000000E+00 -5.798073608E+02  5.798073608E+02  0.000000000E+00  0.00000E+00  9.000E+00
      25     1     1     2     0     0  9.278532782E+01 -3.038662849E+01  4.276664842E+02  4.561316542E+02  1.250000000E+02  0.00000E+00  9.000E+00
      25     1     1     2     0     0 -1.553696791E+02 -1.463006346E+02 -8.632119336E+01  2.619541206E+02  1.250000000E+02  0.00000E+00  9.000E+00
       3     1     1     2   502     0  6.258435124E+01  1.766872631E+02 -3.689972503E+02  4.138769873E+02  5.394796609E-06  0.00000E+00  9.000E+00
#rwgt            2          14   5.3750791901547157E-005           1      477811           0
</event>
<event>
      5   9999  3.79277E-02  8.14922E+01 -1.00000E+00  1.27962E-01
      21    -1     0     0   502   501  0.000000000E+00  0.000000000E+00  2.247047535E+02  2.247047535E+02  0.000000000E+00  0.00000E+00  9.000E+00
      21    -1     0     0   511   502  0.000000000E+00  0.000000000E+00 -7.982721101E+02  7.982721101E+02  0.000000000E+00  0.00000E+00  9.000E+00
      25     1     1     2     0     0  1.287671856E+02  3.941626615E+01 -1.575702908E+02  2.420496368E+02  1.250000000E+02  0.00000E+00  9.000E+00
      25     1     1     2     0     0 -1.130261987E+02  4.054117206E+01  1.376348845E+02  2.213297758E+02  1.250000000E+02  0.00000E+00  9.000E+00
      21     1     1     2   511   501 -1.574098694E+01 -7.995743821E+01 -5.536319504E+02  5.595974510E+02  0.000000000E+00  0.00000E+00  9.000E+00
#rwgt            1           1   4.0083345581367995E-002           1      477905           0
</event>
<event>
      5   9999  3.79277E-02  1.13156E+02 -1.00000E+00  1.21461E-01
      21    -1     0     0   502   501  0.000000000E+00  0.000000000E+00  6.818579100E+01  6.818579100E+01  0.000000000E+00  0.00000E+00  9.000E+00
      21    -1     0     0   512   502  0.000000000E+00  0.000000000E+00 -1.726340145E+03  1.726340145E+03  0.000000000E+00  0.00000E+00  9.000E+00
      25     1     1     2     0     0  8.196003430E+01 -1.788756428E+02 -5.796176586E+02  6.247364027E+02  1.250000000E+02  0.00000E+00  9.000E+00
      25     1     1     2     0     0  3.067762446E+01  1.680565418E+02 -2.255306870E+02  3.093108609E+02  1.250000000E+02  0.00000E+00  9.000E+00
      21     1     1     2   512   501 -1.126376588E+02  1.081910095E+01 -8.530060086E+02  8.604786725E+02  1.525878906E-05  0.00000E+00  9.000E+00
#rwgt            1           1   4.3338629957743041E-002           1      478246           0
</event>
<event>
      5   9999  3.79277E-02  2.75298E+01 -1.00000E+00  1.55678E-01
      21    -1     0     0   502   501  0.000000000E+00  0.000000000E+00  7.480703505E+02  7.480703505E+02  0.000000000E+00  0.00000E+00  9.000E+00
      21    -1     0     0   511   502  0.000000000E+00  0.000000000E+00 -1.338827600E+02  1.338827600E+02  0.000000000E+00  0.00000E+00  9.000E+00
      25     1     1     2     0     0  5.596377439E+01  2.514375332E+02  3.943562612E+02  4.873342158E+02  1.250000000E+02  0.00000E+00  9.000E+00
      25     1     1     2     0     0 -3.226500551E+01 -2.654466780E+02  2.181484242E+02  3.670377425E+02  1.250000000E+02  0.00000E+00  9.000E+00
      21     1     1     2   511   501 -2.369876888E+01  1.400914476E+01  1.682904965E+00  2.758115213E+01  4.214684851E-08  0.00000E+00  9.000E+00
#rwgt            1           1   2.5603907296557656E-002           1      478354           0
</event>
<event>
      5   9999  3.79277E-02  8.41139E+00 -1.00000E+00  2.04863E-01
      21    -1     0     0   502   512  0.000000000E+00  0.000000000E+00  1.240634803E+03  1.240634803E+03  0.000000000E+00  0.00000E+00  9.000E+00
      21    -1     0     0   501   502  0.000000000E+00  0.000000000E+00 -4.687308551E+01  4.687308551E+01  0.000000000E+00  0.00000E+00  9.000E+00
      25     1     1     2     0     0  1.201779538E+02 -7.303987981E+01  3.354665611E+02  3.846301838E+02  1.250000000E+02  0.00000E+00  9.000E+00
      25     1     1     2     0     0 -1.197781272E+02  8.144176361E+01  3.889672672E+02  4.334744463E+02  1.250000000E+02  0.00000E+00  9.000E+00
      21     1     1     2   501   512 -3.998266145E-01 -8.401883801E+00  4.693278896E+02  4.694032590E+02  5.394796609E-06  0.00000E+00  9.000E+00
#rwgt            1           1   4.5225412074621128E-002           1      478578           0
</event>
<event>
      5   9999  3.79277E-02  2.33010E+01 -1.00000E+00  1.61075E-01
      21    -1     0     0   502   501  0.000000000E+00  0.000000000E+00  1.943564817E+02  1.943564817E+02  0.000000000E+00  0.00000E+00  9.000E+00
      21    -1     0     0   501   511  0.000000000E+00  0.000000000E+00 -2.377651659E+02  2.377651659E+02  0.000000000E+00  0.00000E+00  9.000E+00
      25     1     1     2     0     0  1.402687651E+02  9.424065262E+01 -4.559179669E+01  2.150819355E+02  1.250000000E+02  0.00000E+00  9.000E+00
      25     1     1     2     0     0 -1.174913584E+02 -8.932870661E+01  5.570014232E+00  1.934938299E+02  1.250000000E+02  0.00000E+00  9.000E+00
      21     1     1     2   502   511 -2.277740666E+01 -4.911946006E+00 -3.386901776E+00  2.354588226E+01  1.264405455E-07  0.00000E+00  9.000E+00
#rwgt            1           1   1.8082751541304936E-002           1      478814           0
</event>
<event>
      5   9999  3.79277E-02  4.58469E+01 -1.00000E+00  1.41259E-01
      21    -1     0     0   502   512  0.000000000E+00  0.000000000E+00  2.062951422E+02  2.062951422E+02  0.000000000E+00  0.00000E+00  9.000E+00
      21    -1     0     0   501   502  0.000000000E+00  0.000000000E+00 -5.762367121E+02  5.762367121E+02  0.000000000E+00  0.00000E+00  9.000E+00
      25     1     1     2     0     0 -7.785579729E+01  5.209599083E+01  1.345591400E+02  2.061714810E+02  1.250000000E+02  0.00000E+00  9.000E+00
      25     1     1     2     0     0  1.186924792E+02 -7.293602684E+01 -4.954540733E+02  5.296294057E+02  1.250000000E+02  0.00000E+00  9.000E+00
      21     1     1     2   501   512 -4.083668189E+01  2.084003601E+01 -9.046636633E+00  4.673096749E+01  8.513246093E-07  0.00000E+00  9.000E+00
#rwgt            1           1   4.5593025959627990E-002           1      478972           0
</event>
<event>
      5   9999  3.79277E-02  3.69216E+01 -1.00000E+00  1.47031E-01
      21    -1     0     0   502   501  0.000000000E+00  0.000000000E+00  1.023930144E+03  1.023930144E+03  0.000000000E+00  0.00000E+00  9.000E+00
      21    -1     0     0   501   511  0.000000000E+00  0.000000000E+00 -7.424343765E+01  7.424343765E+01  0.000000000E+00  0.00000E+00  9.000E+00
      25     1     1     2     0     0  2.398818694E+01 -1.691771892E+02  7.494625137E+02  7.787909950E+02  1.250000000E+02  0.00000E+00  9.000E+00
      25     1     1     2     0     0  1.269315171E+01  1.649720634E+02  1.453211139E+02  2.532195173E+02  1.250000000E+02  0.00000E+00  9.000E+00
      21     1     1     2   502   511 -3.668133865E+01  4.205125744E+00  5.490307880E+01  6.616306938E+01  6.743495762E-07  0.00000E+00  9.000E+00
#rwgt            1           1   3.2035182193819123E-002           1      479129           0
</event>
<event>
      5   9999  3.79277E-02  6.70330E+01 -1.00000E+00  1.32180E-01
       2    -1     0     0   502     0  0.000000000E+00  0.000000000E+00  3.543234060E+03  3.543234060E+03  0.000000000E+00  0.00000E+00  9.000E+00
      21    -1     0     0   501   502  0.000000000E+00  0.000000000E+00 -1.666535880E+02  1.666535880E+02  0.000000000E+00  0.00000E+00  9.000E+00
      25     1     1     2     0     0 -1.060937054E+02  9.158960008E+01  2.226991181E+02  2.913149952E+02  1.250000000E+02  0.00000E+00  9.000E+00
      25     1     1     2     0     0  8.245678669E+01 -1.543169821E+02 -4.441908119E+01  2.195698236E+02  1.250000000E+02  0.00000E+00  9.000E+00
       2     1     1     2   501     0  2.363691876E+01  6.272738205E+01  3.198300436E+03  3.199002830E+03  0.000000000E+00  0.00000E+00  9.000E+00
#rwgt            1           1   3.3141578797108918E-002           1      479209           0
</event>
<event>
      5   9999  3.79277E-02  3.73324E+01 -1.00000E+00  1.46724E-01
      21    -1     0     0   511   501  0.000000000E+00  0.000000000E+00  5.808990447E+02  5.808990447E+02  0.000000000E+00  0.00000E+00  9.000E+00
      21    -1     0     0   501   502  0.000000000E+00  0.000000000E+00 -3.747824462E+02  3.747824462E+02  0.000000000E+00  0.00000E+00  9.000E+00
      25     1     1     2     0     0  9.004108960E+01  1.269416201E+02 -2.716961032E+02  3.371429151E+02  1.250000000E+02  0.00000E+00  9.000E+00
      25     1     1     2     0     0 -5.826698520E+01 -1.465404912E+02  7.617080974E+01  2.151654000E+02  1.250000000E+02  0.00000E+00  9.000E+00
      21     1     1     2   511   502 -3.177410440E+01  1.959887113E+01  4.016418920E+02  4.033731757E+02  7.629394531E-06  0.00000E+00  9.000E+00
#rwgt            1           1   4.6779856119663350E-002           1      479279           0
</event>
<event>
      5   9999  3.79277E-02  6.91533E+01 -1.00000E+00  1.31489E-01
      -2    -1     0     0     0   501  0.000000000E+00  0.000000000E+00  2.003945151E+03  2.003945151E+03  0.000000000E+00  0.00000E+00  9.000E+00
      21    -1     0     0   501   502  0.000000000E+00  0.000000000E+00 -4.073942446E+01  4.073942446E+01  0.000000000E+00  0.00000E+00  9.000E+00
      25     1     1     2     0     0  2.303014949E+00 -1.194660961E+02  6.375431896E+02  6.605783607E+02  1.250000000E+02  0.00000E+00  9.000E+00
      25     1     1     2     0     0 -1.778815093E+01  1.868633181E+02  4.279670772E+02  4.837511107E+02  1.250000000E+02  0.00000E+00  9.000E+00
      -2     1     1     2     0   502  1.548513598E+01 -6.739722198E+01  8.976954594E+02  9.003551037E+02  1.078959322E-05  0.00000E+00  9.000E+00
#rwgt            1           1   4.2376721534878016E-002           1      479409           0
</event>
<event>
      5   9999  3.79277E-02  7.29924E+01 -1.00000E+00  1.30307E-01
      21    -1     0     0   502   511  0.000000000E+00  0.000000000E+00  5.408452960E+02  5.408452960E+02  0.000000000E+00  0.00000E+00  9.000E+00
      21    -1     0     0   501   502  0.000000000E+00  0.000000000E+00 -4.088388639E+02  4.088388639E+02  0.000000000E+00  0.00000E+00  9.000E+00
      25     1     1     2     0     0  6.916211966E+01 -6.993712243E-01  2.637685067E+01  1.452743135E+02  1.250000000E+02  0.00000E+00  9.000E+00
      25     1     1     2     0     0 -1.225506078E+01  4.641023473E+01 -3.334367131E+02  3.593176005E+02  1.250000000E+02  0.00000E+00  9.000E+00
      21     1     1     2   501   511 -5.690705888E+01 -4.571086350E+01  4.390662945E+02  4.450922459E+02  9.344061824E-06  0.00000E+00  9.000E+00
#rwgt            1           1   5.1984826676459997E-002           1      479590           0
</event>
<event>
      5   9999  3.79277E-02  3.30690E+02 -1.00000E+00  1.04236E-01
      21    -1     0     0   502   501  0.000000000E+00  0.000000000E+00  1.021795874E+03  1.021795874E+03  0.000000000E+00  0.00000E+00  9.000E+00
      21    -1     0     0   501   512  0.000000000E+00  0.000000000E+00 -3.041119537E+02  3.041119537E+02  0.000000000E+00  0.00000E+00  9.000E+00
      25     1     1     2     0     0 -1.681184794E+02 -2.627346388E+02  3.278897229E+02  4.694997167E+02  1.250000000E+02  0.00000E+00  9.000E+00
      25     1     1     2     0     0  1.186052808E+02 -6.422745024E+01  4.796782397E+02  5.137203438E+02  1.250000000E+02  0.00000E+00  9.000E+00
      21     1     1     2   502   512  4.951319866E+01  3.269620891E+02 -8.988404262E+01  3.426877670E+02  8.583068848E-06  0.00000E+00  9.000E+00
#rwgt            2          11   1.5092256392293709E-003           1      479745           0
</event>
<event>
      5   9999  3.79277E-02  7.91493E+00 -1.00000E+00  2.08279E-01
      21    -1     0     0   502   501  0.000000000E+00  0.000000000E+00  1.129242862E+03  1.129242862E+03  0.000000000E+00  0.00000E+00  9.000E+00
       2    -1     0     0   501     0  0.000000000E+00  0.000000000E+00 -2.060445947E+02  2.060445947E+02  0.000000000E+00  0.00000E+00  9.000E+00
      25     1     1     2     0     0  1.211210094E+02  1.390285971E+02  3.987038168E+02  4.567154292E+02  1.250000000E+02  0.00000E+00  9.000E+00
      25     1     1     2     0     0 -1.282997852E+02 -1.423619504E+02  6.827751726E+02  7.200935329E+02  1.250000000E+02  0.00000E+00  9.000E+00
       2     1     1     2   502     0  7.178775853E+00  3.333353270E+00 -1.582807224E+02  1.584784943E+02  5.394796609E-06  0.00000E+00  9.000E+00
#rwgt            1           1   2.4100415995931549E-002           1      479795           0
</event>
<event>
      5   9999  3.79277E-02  6.43216E+01 -1.00000E+00  1.33109E-01
      21    -1     0     0   502   511  0.000000000E+00  0.000000000E+00  4.485868359E+02  4.485868359E+02  0.000000000E+00  0.00000E+00  9.000E+00
      21    -1     0     0   501   502  0.000000000E+00  0.000000000E+00 -4.305402320E+02  4.305402320E+02  0.000000000E+00  0.00000E+00  9.000E+00
      25     1     1     2     0     0 -2.776214184E+01  1.461953253E+02 -7.403554928E+01  2.079665171E+02  1.250000000E+02  0.00000E+00  9.000E+00
      25     1     1     2     0     0  3.082722315E+01 -2.104438597E+02 -2.332620768E+02  3.395189719E+02  1.250000000E+02  0.00000E+00  9.000E+00
      21     1     1     2   501   511 -3.065081311E+00  6.424853442E+01  3.253442300E+02  3.316415790E+02  3.814697266E-06  0.00000E+00  9.000E+00
#rwgt            1           1   7.1889982139880584E-002           1      480168           0
</event>
<event>
      5   9999  3.79277E-02  2.16335E+02 -1.00000E+00  1.10421E-01
      21    -1     0     0   502   512  0.000000000E+00  0.000000000E+00  1.543854550E+03  1.543854550E+03  0.000000000E+00  0.00000E+00  9.000E+00
      21    -1     0     0   501   502  0.000000000E+00  0.000000000E+00 -1.074838427E+03  1.074838427E+03  0.000000000E+00  0.00000E+00  9.000E+00
      25     1     1     2     0     0  1.005185474E+02 -1.872452123E+02 -5.033991164E+02  5.605358314E+02  1.250000000E+02  0.00000E+00  9.000E+00
      25     1     1     2     0     0 -2.616175736E+01 -1.590951611E+01 -5.273719588E+02  5.428477993E+02  1.250000000E+02  0.00000E+00  9.000E+00
      21     1     1     2   501   512 -7.435679003E+01  2.031547284E+02  1.499787198E+03  1.515309347E+03  0.000000000E+00  0.00000E+00  9.000E+00
#rwgt            1           1   4.4721604696103298E-002           1      480349           0
</event>
<event>
      5   9999  3.79277E-02  8.06975E+01 -1.00000E+00  1.28167E-01
      21    -1     0     0   511   501  0.000000000E+00  0.000000000E+00  4.094736862E+02  4.094736862E+02  0.000000000E+00  0.00000E+00  9.000E+00
      21    -1     0     0   501   502  0.000000000E+00  0.000000000E+00 -1.185971611E+02  1.185971611E+02  0.000000000E+00  0.00000E+00  9.000E+00
      25     1     1     2     0     0  1.342325050E+02  6.223843875E+00  6.162452018E+01  1.935967022E+02  1.250000000E+02  0.00000E+00  9.000E+00
      25     1     1     2     0     0 -8.094767281E+01  5.437987546E+01  1.209230565E+02  1.993917806E+02  1.250000000E+02  0.00000E+00  9.000E+00
      21     1     1     2   511   502 -5.328483217E+01 -6.060371934E+01  1.083289484E+02  1.350823645E+02  1.348699152E-06  0.00000E+00  9.000E+00
#rwgt            1           1   3.4634920841561737E-002           1      480517           0
</event>
<event>
      5   9999  3.79277E-02  9.21619E+01 -1.00000E+00  1.25444E-01
      21    -1     0     0   512   501  0.000000000E+00  0.000000000E+00  3.704125997E+02  3.704125997E+02  0.000000000E+00  0.00000E+00  9.000E+00
      21    -1     0     0   501   502  0.000000000E+00  0.000000000E+00 -1.745717800E+02  1.745717800E+02  0.000000000E+00  0.00000E+00  9.000E+00
      25     1     1     2     0     0  6.671536971E+01  1.004758263E+02 -3.106313135E+01  1.764546694E+02  1.250000000E+02  0.00000E+00  9.000E+00
      25     1     1     2     0     0 -1.428325605E+02 -4.851437742E+01  1.753920405E+02  2.629489552E+02  1.250000000E+02  0.00000E+00  9.000E+00
      21     1     1     2   512   502  7.611719082E+01 -5.196144893E+01  5.151191055E+01  1.055807551E+02  1.651812370E-06  0.00000E+00  9.000E+00
#rwgt            1           1   4.4260387801578947E-002           1      480736           0
</event>
<event>
      5   9999 -3.79277E-02  2.69261E+01 -1.00000E+00  1.56374E-01
      21    -1     0     0   511   501  0.000000000E+00  0.000000000E+00  2.079115014E+02  2.079115014E+02  0.000000000E+00  0.00000E+00  9.000E+00
      21    -1     0     0   501   502  0.000000000E+00  0.000000000E+00 -7.918737934E+02  7.918737934E+02  0.000000000E+00  0.00000E+00  9.000E+00
      25     1     1     2     0     0 -2.123787837E+01  1.776335337E+02 -5.772375523E+02  6.171166109E+02  1.250000000E+02  0.00000E+00  9.000E+00
      25     1     1     2     0     0  4.715498949E+01 -1.703317445E+02 -1.326579990E+02  2.538890327E+02  1.250000000E+02  0.00000E+00  9.000E+00
      21     1     1     2   511   502 -2.591711112E+01 -7.301789154E+00  1.259332592E+02  1.287796512E+02  1.907348633E-06  0.00000E+00  9.000E+00
#rwgt            1           1  -1.7083901075774281E-002           1      480842           0
</event>
<event>
      5   9999  3.79277E-02  6.36995E+01 -1.00000E+00  1.33329E-01
      21    -1     0     0   502   501  0.000000000E+00  0.000000000E+00  7.022116016E+02  7.022116016E+02  0.000000000E+00  0.00000E+00  9.000E+00
      21    -1     0     0   512   502  0.000000000E+00  0.000000000E+00 -9.454542866E+01  9.454542866E+01  0.000000000E+00  0.00000E+00  9.000E+00
      25     1     1     2     0     0  6.400623082E+01  7.377715758E+00  2.246112620E+01  1.424104296E+02  1.250000000E+02  0.00000E+00  9.000E+00
      25     1     1     2     0     0 -3.618632009E+01  4.992563311E+01  5.727184415E+02  5.894348410E+02  1.250000000E+02  0.00000E+00  9.000E+00
      21     1     1     2   512   501 -2.781991073E+01 -5.730334886E+01  1.248660524E+01  6.491175960E+01  1.238859277E-06  0.00000E+00  9.000E+00
#rwgt            1           1   4.0513678228745811E-002           1      481061           0
</event>
<event>
      5   9999  3.79277E-02  2.98613E+01 -1.00000E+00  1.53180E-01
      21    -1     0     0   502   501  0.000000000E+00  0.000000000E+00  1.896731311E+03  1.896731311E+03  0.000000000E+00  0.00000E+00  9.000E+00
      21    -1     0     0   511   502  0.000000000E+00  0.000000000E+00 -1.240754557E+02  1.240754557E+02  0.000000000E+00  0.00000E+00  9.000E+00
      25     1     1     2     0     0  1.437497429E+02  1.970867007E+02  9.788952083E+02  1.016547089E+03  1.250000000E+02  0.00000E+00  9.000E+00
      25     1     1     2     0     0 -1.597508902E+02 -2.222990597E+02  8.709609742E+02  9.214853430E+02  1.250000000E+02  0.00000E+00  9.000E+00
      21     1     1     2   511   501  1.600114731E+01  2.521235901E+01 -7.720032764E+01  8.277433388E+01  5.223489356E-06  0.00000E+00  9.000E+00
#rwgt            1           1   8.2235286773781682E-002           1      481250           0
</event>
<event>
      5   9999  3.79277E-02  9.72835E+01 -1.00000E+00  1.24368E-01
      21    -1     0     0   502   501  0.000000000E+00  0.000000000E+00  1.350081309E+02  1.350081309E+02  0.000000000E+00  0.00000E+00  9.000E+00
      21    -1     0     0   512   502  0.000000000E+00  0.000000000E+00 -2.832818470E+02  2.832818470E+02  0.000000000E+00  0.00000E+00  9.000E+00
      25     1     1     2     0     0  8.224751719E+00 -5.770974497E+00 -1.936995915E+01  1.268902912E+02  1.250000000E+02  0.00000E+00  9.000E+00
      25     1     1     2     0     0 -1.048764941E+02  1.683974211E+01 -7.921137568E+01  1.821595398E+02  1.250000000E+02  0.00000E+00  9.000E+00
      21     1     1     2   512   501  9.665174233E+01 -1.106876762E+01 -4.969238131E+01  1.092401468E+02  1.348699152E-06  0.00000E+00  9.000E+00
#rwgt            1           1   3.2284445550182304E-002           1      481504           0
</event>
<event>
      5   9999  3.79277E-02  1.59021E+01 -1.00000E+00  1.75027E-01
      21    -1     0     0   502   501  0.000000000E+00  0.000000000E+00  8.237154082E+01  8.237154082E+01  0.000000000E+00  0.00000E+00  9.000E+00
      21    -1     0     0   511   502  0.000000000E+00  0.000000000E+00 -9.081671216E+02  9.081671216E+02  0.000000000E+00  0.00000E+00  9.000E+00
      25     1     1     2     0     0 -1.451122719E+02 -2.990855775E+01 -5.561638745E+02  5.889782242E+02  1.250000000E+02  0.00000E+00  9.000E+00
      25     1     1     2     0     0  1.462900397E+02  1.405009147E+01 -7.613589923E+01  2.074122849E+02  1.250000000E+02  0.00000E+00  9.000E+00
      21     1     1     2   511   501 -1.177767750E+00  1.585846628E+01 -1.934958070E+02  1.941481533E+02  0.000000000E+00  0.00000E+00  9.000E+00
#rwgt            1           1   3.7628815976319709E-002           1      481654           0
</event>
<event>
      5   9999  3.79277E-02  4.76822E+01 -1.00000E+00  1.40262E-01
      21    -1     0     0   502   501  0.000000000E+00  0.000000000E+00  2.382982255E+02  2.382982255E+02  0.000000000E+00  0.00000E+00  9.000E+00
      21    -1     0     0   501   512  0.000000000E+00  0.000000000E+00 -2.336216649E+02  2.336216649E+02  0.000000000E+00  0.00000E+00  9.000E+00
      25     1     1     2     0     0 -1.351959596E+01  1.256127198E+02 -2.705779110E+01  1.797733543E+02  1.250000000E+02  0.00000E+00  9.000E+00
      25     1     1     2     0     0  6.007261328E+01 -1.359283209E+02  9.234361916E+01  2.150292336E+02  1.250000000E+02  0.00000E+00  9.000E+00
      21     1     1     2   502   512 -4.655301732E+01  1.031560116E+01 -6.060926745E+01  7.711730253E+01  9.536743164E-07  0.00000E+00  9.000E+00
#rwgt            1           1   4.1594947733963661E-002           1      481875           0
</event>
<event>
      5   9999  3.79277E-02  2.42761E+01 -1.00000E+00  1.59713E-01
      21    -1     0     0   502   501  0.000000000E+00  0.000000000E+00  3.559685737E+02  3.559685737E+02  0.000000000E+00  0.00000E+00  9.000E+00
      21    -1     0     0   511   502  0.000000000E+00  0.000000000E+00 -2.443911017E+02  2.443911017E+02  0.000000000E+00  0.00000E+00  9.000E+00
      25     1     1     2     0     0 -1.490554689E+02 -6.040090680E-01  1.816886447E+02  2.661835105E+02  1.250000000E+02  0.00000E+00  9.000E+00
      25     1     1     2     0     0  1.374189322E+02  2.190935604E+01  6.414243912E+01  1.977453800E+02  1.250000000E+02  0.00000E+00  9.000E+00
      21     1     1     2   511   501  1.163653666E+01 -2.130534698E+01 -1.342536118E+02  1.364307849E+02  1.907348633E-06  0.00000E+00  9.000E+00
#rwgt            1           1   4.1862345577835823E-002           1      482001           0
</event>
<event>
      5   9999  3.79277E-02  6.44016E+01 -1.00000E+00  1.33081E-01
      21    -1     0     0   502   501  0.000000000E+00  0.000000000E+00  9.259715995E+01  9.259715995E+01  0.000000000E+00  0.00000E+00  9.000E+00
      21    -1     0     0   512   502  0.000000000E+00  0.000000000E+00 -5.516362081E+02  5.516362081E+02  0.000000000E+00  0.00000E+00  9.000E+00
      25     1     1     2     0     0  5.707680378E+01 -1.016885233E+02 -2.427049702E+02  2.968653228E+02  1.250000000E+02  0.00000E+00  9.000E+00
      25     1     1     2     0     0 -1.987617380E+01  1.542592352E+02 -1.244699892E+02  2.351781285E+02  1.250000000E+02  0.00000E+00  9.000E+00
      21     1     1     2   512   501 -3.720062998E+01 -5.257071188E+01 -9.186408875E+01  1.121899167E+02  1.907348633E-06  0.00000E+00  9.000E+00
#rwgt            1           1   4.4744702309707306E-002           1      482106           0
</event>
<event>
      5   9999  3.79277E-02  2.29889E+02 -1.00000E+00  1.09489E-01
      21    -1     0     0   502   511  0.000000000E+00  0.000000000E+00  9.887146869E+02  9.887146869E+02  0.000000000E+00  0.00000E+00  9.000E+00
      21    -1     0     0   501   502  0.000000000E+00  0.000000000E+00 -1.887826672E+02  1.887826672E+02  0.000000000E+00  0.00000E+00  9.000E+00
      25     1     1     2     0     0 -1.603680390E+02 -2.473541152E+01  1.192937340E+02  2.370353212E+02  1.250000000E+02  0.00000E+00  9.000E+00
      25     1     1     2     0     0  3.115879380E+02  1.978869013E+02  2.846992865E+02  4.826229921E+02  1.250000000E+02  0.00000E+00  9.000E+00
      21     1     1     2   501   511 -1.512198990E+02 -1.731514898E+02  3.959389991E+02  4.578390408E+02  5.394796609E-06  0.00000E+00  9.000E+00
#rwgt            1           1   3.1885677894602484E-002           1      482211           0
</event>
<event>
      5   9999  3.79277E-02  1.56601E+01 -1.00000E+00  1.75640E-01
      21    -1     0     0   502   501  0.000000000E+00  0.000000000E+00  2.545582063E+02  2.545582063E+02  0.000000000E+00  0.00000E+00  9.000E+00
      21    -1     0     0   512   502  0.000000000E+00  0.000000000E+00 -4.600789294E+02  4.600789294E+02  0.000000000E+00  0.00000E+00  9.000E+00
      25     1     1     2     0     0  4.353270348E+01  6.173587143E+01  2.019620877E+02  2.492390398E+02  1.250000000E+02  0.00000E+00  9.000E+00
      25     1     1     2     0     0 -3.297880598E+01 -5.016636250E+01 -1.385986294E+02  1.960582711E+02  1.250000000E+02  0.00000E+00  9.000E+00
      21     1     1     2   512   501 -1.055389750E+01 -1.156950893E+01 -2.688841813E+02  2.693398249E+02  0.000000000E+00  0.00000E+00  9.000E+00
#rwgt            1           1   3.7165929493560651E-002           1      482404           0
</event>
<event>
      5   9999  3.79277E-02  3.27029E+01 -1.00000E+00  1.50482E-01
      21    -1     0     0   502   501  0.000000000E+00  0.000000000E+00  4.601323390E+02  4.601323390E+02  0.000000000E+00  0.00000E+00  9.000E+00
      21    -1     0     0   501   511  0.000000000E+00  0.000000000E+00 -1.231294165E+02  1.231294165E+02  0.000000000E+00  0.00000E+00  9.000E+00
      25     1     1     2     0     0  1.046844789E+02 -3.991406753E+01  8.170149599E+01  1.866871912E+02  1.250000000E+02  0.00000E+00  9.000E+00
      25     1     1     2     0     0 -1.182906015E+02  6.965213055E+01  2.928743741E+02  3.467628653E+02  1.250000000E+02  0.00000E+00  9.000E+00
      21     1     1     2   502   511  1.360612258E+01 -2.973806303E+01 -3.757294765E+01  4.981169902E+01  9.536743164E-07  0.00000E+00  9.000E+00
#rwgt            1           1   2.4824584732155017E-002           1      482643           0
</event>
<event>
      5   9999  3.79277E-02  4.69972E+01 -1.00000E+00  1.40628E-01
      21    -1     0     0   512   501  0.000000000E+00  0.000000000E+00  2.092267442E+02  2.092267442E+02  0.000000000E+00  0.00000E+00  9.000E+00
      21    -1     0     0   501   502  0.000000000E+00  0.000000000E+00 -4.261716392E+02  4.261716392E+02  0.000000000E+00  0.00000E+00  9.000E+00
      25     1     1     2     0     0  3.921636559E+01 -2.461675381E+02 -1.397603446E+01  2.792072880E+02  1.250000000E+02  0.00000E+00  9.000E+00
      25     1     1     2     0     0 -1.943343876E+01  2.035368708E+02 -1.940409851E+02  3.083534015E+02  1.250000000E+02  0.00000E+00  9.000E+00
      21     1     1     2   512   502 -1.978292683E+01  4.263066728E+01 -8.927875428E+00  4.783769379E+01  1.086048314E-06  0.00000E+00  9.000E+00
#rwgt            1           1   4.4196956869785316E-002           1      482797           0
</event>
<event>
      5   9999  3.79277E-02  3.33852E+01 -1.00000E+00  1.49883E-01
      21    -1     0     0   502   501  0.000000000E+00  0.000000000E+00  2.217206058E+02  2.217206058E+02  0.000000000E+00  0.00000E+00  9.000E+00
      21    -1     0     0   511   502  0.000000000E+00  0.000000000E+00 -4.548568436E+02  4.548568436E+02  0.000000000E+00  0.00000E+00  9.000E+00
      25     1     1     2     0     0  3.258810194E+01  1.434764102E+02 -3.940241063E+01  1.970406421E+02  1.250000000E+02  0.00000E+00  9.000E+00
      25     1     1     2     0     0  7.914475798E-01 -1.440915657E+02  7.776099008E+01  2.059970322E+02  1.250000000E+02  0.00000E+00  9.000E+00
      21     1     1     2   511   501 -3.337954952E+01  6.151555116E-01 -2.714948173E+02  2.735397751E+02  0.000000000E+00  0.00000E+00  9.000E+00
#rwgt            1           1   4.9304574100751716E-002           1      482877           0
</event>
<event>
      5   9999 -3.79277E-02  5.45166E+01 -1.00000E+00  1.36966E-01
      21    -1     0     0   502   512  0.000000000E+00  0.000000000E+00  1.154620464E+03  1.154620464E+03  0.000000000E+00  0.00000E+00  9.000E+00
      21    -1     0     0   501   502  0.000000000E+00  0.000000000E+00 -4.254934198E+02  4.254934198E+02  0.000000000E+00  0.00000E+00  9.000E+00
      25     1     1     2     0     0 -9.951637679E+00 -4.472433170E+02 -1.806524423E+02  4.983833109E+02  1.250000000E+02  0.00000E+00  9.000E+00
      25     1     1     2     0     0  4.379311345E+00  5.014744007E+02  7.341104540E+02  8.977966984E+02  1.250000000E+02  0.00000E+00  9.000E+00
      21     1     1     2   501   512  5.572326333E+00 -5.423108377E+01  1.756690327E+02  1.839338749E+02  0.000000000E+00  0.00000E+00  9.000E+00
#rwgt            1           1 -0.21495490162902731                1      483196           0
</event>
<event>
      5   9999  3.79277E-02  6.77652E+00 -1.00000E+00  2.17565E-01
      21    -1     0     0   511   501  0.000000000E+00  0.000000000E+00  4.724617204E+02  4.724617204E+02  0.000000000E+00  0.00000E+00  9.000E+00
      21    -1     0     0   501   502  0.000000000E+00  0.000000000E+00 -8.691125375E+01  8.691125375E+01  0.000000000E+00  0.00000E+00  9.000E+00
      25     1     1     2     0     0  1.089131083E+02  8.879071822E+01  2.348105641E+02  3.008435770E+02  1.250000000E+02  0.00000E+00  9.000E+00
      25     1     1     2     0     0 -1.102312884E+02 -8.214364001E+01  1.072954479E+02  2.145596133E+02  1.250000000E+02  0.00000E+00  9.000E+00
      21     1     1     2   511   502  1.318180129E+00 -6.647078207E+00  4.344445468E+01  4.396978383E+01  4.768371582E-07  0.00000E+00  9.000E+00
#rwgt            1           1   3.9597633877213226E-002           1      483357           0
</event>
<event>
      5   9999  3.79277E-02  1.36546E+02 -1.00000E+00  1.18034E-01
      21    -1     0     0   512   501  0.000000000E+00  0.000000000E+00  4.589857749E+02  4.589857749E+02  0.000000000E+00  0.00000E+00  9.000E+00
      21    -1     0     0   501   502  0.000000000E+00  0.000000000E+00 -3.258384023E+02  3.258384023E+02  0.000000000E+00  0.00000E+00  9.000E+00
      25     1     1     2     0     0  2.040411210E+02 -2.151558820E+02 -9.461131169E+01  3.354118855E+02  1.250000000E+02  0.00000E+00  9.000E+00
      25     1     1     2     0     0 -9.043108094E+01  1.394095143E+02  3.147517007E+01  2.103056809E+02  1.250000000E+02  0.00000E+00  9.000E+00
      21     1     1     2   512   502 -1.136100401E+02  7.574636771E+01  1.962835142E+02  2.391066109E+02  3.814697266E-06  0.00000E+00  9.000E+00
#rwgt            2          11   1.7371108762813860E-003           1      483735           0
</event>
<event>
      5   9999  3.79277E-02  1.06251E+02 -1.00000E+00  1.22655E-01
      21    -1     0     0   502   511  0.000000000E+00  0.000000000E+00  5.857014414E+02  5.857014414E+02  0.000000000E+00  0.00000E+00  9.000E+00
      21    -1     0     0   501   502  0.000000000E+00  0.000000000E+00 -2.360102732E+02  2.360102732E+02  0.000000000E+00  0.00000E+00  9.000E+00
      25     1     1     2     0     0 -1.919348565E+02  1.477009606E+02  2.191923866E+02  3.497497180E+02  1.250000000E+02  0.00000E+00  9.000E+00
      25     1     1     2     0     0  9.238180649E+01 -1.105731888E+02 -1.020186944E+02  2.163183817E+02  1.250000000E+02  0.00000E+00  9.000E+00
      21     1     1     2   501   511  9.955305001E+01 -3.712777187E+01  2.325174760E+02  2.556436150E+02  0.000000000E+00  0.00000E+00  9.000E+00
#rwgt            1           1   4.4263331868485675E-002           1      483800           0
</event>
<event>
      5   9999  3.79277E-02  3.42035E+01 -1.00000E+00  1.49187E-01
      21    -1     0     0   502   501  0.000000000E+00  0.000000000E+00  3.990639298E+02  3.990639298E+02  0.000000000E+00  0.00000E+00  9.000E+00
      21    -1     0     0   501   512  0.000000000E+00  0.000000000E+00 -7.722431491E+01  7.722431491E+01  0.000000000E+00  0.00000E+00  9.000E+00
      25     1     1     2     0     0 -7.861817072E+00  4.177930062E+01  6.690095294E+01  1.480137008E+02  1.250000000E+02  0.00000E+00  9.000E+00
      25     1     1     2     0     0 -2.447585437E+01 -3.063689927E+01  2.623829230E+02  2.932703280E+02  1.250000000E+02  0.00000E+00  9.000E+00
      21     1     1     2   502   512  3.233767145E+01 -1.114240135E+01 -7.444261048E+00  3.500421582E+01  4.129530925E-07  0.00000E+00  9.000E+00
#rwgt            1           1   8.8444793079420617E-002           1      483879           0
</event>
<event>
      5   9999  3.79277E-02  6.09640E+01 -1.00000E+00  1.34335E-01
      21    -1     0     0   511   501  0.000000000E+00  0.000000000E+00  5.945538463E+02  5.945538463E+02  0.000000000E+00  0.00000E+00  9.000E+00
      21    -1     0     0   501   502  0.000000000E+00  0.000000000E+00 -3.608929768E+02  3.608929768E+02  0.000000000E+00  0.00000E+00  9.000E+00
      25     1     1     2     0     0 -3.253090792E+02 -1.412896976E+02 -8.793405683E+01  3.861944769E+02  1.250000000E+02  0.00000E+00  9.000E+00
      25     1     1     2     0     0  3.318115200E+02  2.019059026E+02  2.688782093E+02  4.886566993E+02  1.250000000E+02  0.00000E+00  9.000E+00
      21     1     1     2   511   502 -6.502440823E+00 -6.061620499E+01  5.271671700E+01  8.059564687E+01  0.000000000E+00  0.00000E+00  9.000E+00
#rwgt            1           1   4.4273861560807391E-002           1      483989           0
</event>
<event>
      5   9999  3.79277E-02  3.92921E+01 -1.00000E+00  1.45323E-01
      21    -1     0     0   502   501  0.000000000E+00  0.000000000E+00  2.218281952E+02  2.218281952E+02  0.000000000E+00  0.00000E+00  9.000E+00
      -2    -1     0     0     0   502  0.000000000E+00  0.000000000E+00 -7.262281711E+02  7.262281711E+02  0.000000000E+00  0.00000E+00  9.000E+00
      25     1     1     2     0     0  9.510111122E+01  1.055261953E+02 -1.582089225E+01  1.898823317E+02  1.250000000E+02  0.00000E+00  9.000E+00
      25     1     1     2     0     0 -1.334504078E+02 -9.697044618E+01  5.421909290E+01  2.139555767E+02  1.250000000E+02  0.00000E+00  9.000E+00
      -2     1     1     2     0   501  3.834929659E+01 -8.555749121E+00 -5.427981766E+02  5.442184579E+02  7.629394531E-06  0.00000E+00  9.000E+00
#rwgt            1           1   4.3045853773483030E-002           1      484094           0
</event>
<event>
      5   9999  3.79277E-02  1.40264E+01 -1.00000E+00  1.80174E-01
      21    -1     0     0   502   501  0.000000000E+00  0.000000000E+00  1.138526361E+02  1.138526361E+02  0.000000000E+00  0.00000E+00  9.000E+00
      21    -1     0     0   501   511  0.000000000E+00  0.000000000E+00 -6.372518766E+02  6.372518766E+02  0.000000000E+00  0.00000E+00  9.000E+00
      25     1     1     2     0     0  1.308404463E+01  2.262277187E+02 -2.446195090E+02  3.561093612E+02  1.250000000E+02  0.00000E+00  9.000E+00
      25     1     1     2     0     0 -1.231769406E+01 -2.122222273E+02 -2.073286637E+02  3.221803441E+02  1.250000000E+02  0.00000E+00  9.000E+00
      21     1     1     2   502   511 -7.663505691E-01 -1.400549134E+01 -7.145106784E+01  7.281480740E+01  1.348699152E-06  0.00000E+00  9.000E+00
#rwgt            1           1   3.0187540120534932E-002           1      484357           0
</event>
<event>
      5   9999  3.79277E-02  2.46723E+01 -1.00000E+00  1.59181E-01
       2    -1     0     0   502     0  0.000000000E+00  0.000000000E+00  1.801704687E+03  1.801704687E+03  0.000000000E+00  0.00000E+00  9.000E+00
      21    -1     0     0   501   502  0.000000000E+00  0.000000000E+00 -2.507803343E+01  2.507803343E+01  0.000000000E+00  0.00000E+00  9.000E+00
      25     1     1     2     0     0 -8.626972453E+01  1.289164444E+02  6.736199131E+02  7.024604632E+02  1.250000000E+02  0.00000E+00  9.000E+00
      25     1     1     2     0     0  9.649990628E+01 -1.064650012E+02  9.078259542E+02  9.275882661E+02  1.250000000E+02  0.00000E+00  9.000E+00
       2     1     1     2   501     0 -1.023018175E+01 -2.245144319E+01  1.951807863E+02  1.967339911E+02  3.814697266E-06  0.00000E+00  9.000E+00
#rwgt            1           1   3.6154782292612340E-002           1      484643           0
</event>
<event>
      5   9999  3.79277E-02  2.31215E+01 -1.00000E+00  1.61335E-01
      21    -1     0     0   502   511  0.000000000E+00  0.000000000E+00  1.913241072E+02  1.913241072E+02  0.000000000E+00  0.00000E+00  9.000E+00
      21    -1     0     0   501   502  0.000000000E+00  0.000000000E+00 -2.247163127E+02  2.247163127E+02  0.000000000E+00  0.00000E+00  9.000E+00
      25     1     1     2     0     0 -1.261244376E+02  1.013361010E+02 -8.648165680E+00  2.046366778E+02  1.250000000E+02  0.00000E+00  9.000E+00
      25     1     1     2     0     0  1.086280932E+02 -8.622054145E+01 -2.427754186E+01  1.882775702E+02  1.250000000E+02  0.00000E+00  9.000E+00
      21     1     1     2   501   511  1.749634439E+01 -1.511555951E+01 -4.664979126E-01  2.312617189E+01  3.104756256E-07  0.00000E+00  9.000E+00
#rwgt            1           1  0.14112641304231344                1      484939           0
</event>
<event>
      5   9999  3.79277E-02  1.10386E+02 -1.00000E+00  1.21928E-01
      21    -1     0     0   512   501  0.000000000E+00  0.000000000E+00  4.962887299E+01  4.962887299E+01  0.000000000E+00  0.00000E+00  9.000E+00
      21    -1     0     0   501   502  0.000000000E+00  0.000000000E+00 -2.530098241E+03  2.530098241E+03  0.000000000E+00  0.00000E+00  9.000E+00
      25     1     1     2     0     0 -1.877288120E+02  9.512659515E+01 -1.347530469E+03  1.369581886E+03  1.250000000E+02  0.00000E+00  9.000E+00
      25     1     1     2     0     0  8.172926928E+01 -1.259360813E+02 -1.059967920E+03  1.077820283E+03  1.250000000E+02  0.00000E+00  9.000E+00
      21     1     1     2   512   502  1.059995427E+02  3.080948618E+01 -7.297097844E+01  1.323249455E+02  4.046097457E-06  0.00000E+00  9.000E+00
#rwgt            1           1   6.8905641000110110E-002           1      485194           0
</event>
<event>
      5   9999  3.79277E-02  5.44159E+01 -1.00000E+00  1.37010E-01
      21    -1     0     0   502   501  0.000000000E+00  0.000000000E+00  1.083478304E+02  1.083478304E+02  0.000000000E+00  0.00000E+00  9.000E+00
      21    -1     0     0   511   502  0.000000000E+00  0.000000000E+00 -5.210745454E+02  5.210745454E+02  0.000000000E+00  0.00000E+00  9.000E+00
      25     1     1     2     0     0  3.583488995E+01  5.801128982E+01 -2.937103269E+02  3.264049712E+02  1.250000000E+02  0.00000E+00  9.000E+00
      25     1     1     2     0     0 -8.518583764E+01 -8.093672040E+01  6.497398914E-01  1.715599073E+02  1.250000000E+02  0.00000E+00  9.000E+00
      21     1     1     2   511   501  4.935094768E+01  2.292543059E+01 -1.196661280E+02  1.314574973E+02  2.336015456E-06  0.00000E+00  9.000E+00
#rwgt            1           1   3.4677782688942900E-002           1      485314           0
</event>
<event>
      5   9999  3.79277E-02  9.82687E+01 -1.00000E+00  1.24170E-01
      21    -1     0     0   502   501  0.000000000E+00  0.000000000E+00  3.304076234E+02  3.304076234E+02  0.000000000E+00  0.00000E+00  9.000E+00
      21    -1     0     0   512   502  0.000000000E+00  0.000000000E+00 -5.095523133E+02  5.095523133E+02  0.000000000E+00  0.00000E+00  9.000E+00
      25     1     1     2     0     0  2.152465204E+01  7.326671326E+01  1.162453427E+02  1.870008064E+02  1.250000000E+02  0.00000E+00  9.000E+00
      25     1     1     2     0     0  4.310316887E+01 -1.472935990E+02  1.163878225E+02  2.296179712E+02  1.250000000E+02  0.00000E+00  9.000E+00
      21     1     1     2   512   501 -6.462782091E+01  7.402688570E+01 -4.117778551E+02  4.233411591E+02  0.000000000E+00  0.00000E+00  9.000E+00
#rwgt            1           1   4.5676120532485029E-002           1      485443           0
</event>
<event>
      5   9999  3.79277E-02  9.31750E+01 -1.00000E+00  1.25225E-01
      21    -1     0     0   502   501  0.000000000E+00  0.000000000E+00  1.197747127E+02  1.197747127E+02  0.000000000E+00  0.00000E+00  9.000E+00
       3    -1     0     0   501     0  0.000000000E+00  0.000000000E+00 -5.546676240E+02  5.546676240E+02  0.000000000E+00  0.00000E+00  9.000E+00
      25     1     1     2     0     0  7.957282511E+01 -1.195144227E+02 -1.029431690E+02  2.164204883E+02  1.250000000E+02  0.00000E+00  9.000E+00
      25     1     1     2     0     0 -1.553987459E+02  6.536640943E+01 -2.842882713E+02  3.533643430E+02  1.250000000E+02  0.00000E+00  9.000E+00
       3     1     1     2   502     0  7.582592078E+01  5.414801323E+01 -4.766147107E+01  1.046575053E+02  1.784161275E-06  0.00000E+00  9.000E+00
#rwgt            1           1   4.8333774848950947E-002           1      485559           0
</event>
<event>
      5   9999  3.79277E-02  1.19590E+02 -1.00000E+00  1.20431E-01
       2    -1     0     0   502     0  0.000000000E+00  0.000000000E+00  1.128910654E+03  1.128910654E+03  0.000000000E+00  0.00000E+00  9.000E+00
      21    -1     0     0   501   502  0.000000000E+00  0.000000000E+00 -2.198586166E+02  2.198586166E+02  0.000000000E+00  0.00000E+00  9.000E+00
      25     1     1     2     0     0 -6.045227390E+01 -1.926505874E+01 -8.770878595E+01  1.653585530E+02  1.250000000E+02  0.00000E+00  9.000E+00
      25     1     1     2     0     0  9.558931749E+01  1.335766494E+02  2.917392041E+01  2.084614030E+02  1.250000000E+02  0.00000E+00  9.000E+00
       2     1     1     2   501     0 -3.513704359E+01 -1.143115907E+02  9.675869026E+02  9.749493145E+02  1.078959322E-05  0.00000E+00  9.000E+00
#rwgt            2          18   1.4130702973636446E-003           1      485665           0
</event>
<event>
      5   9999  3.79277E-02  2.63057E+01 -1.00000E+00  1.57112E-01
      21    -1     0     0   502   501  0.000000000E+00  0.000000000E+00  5.129662280E+01  5.129662280E+01  0.000000000E+00  0.00000E+00  9.000E+00
      21    -1     0     0   501   511  0.000000000E+00  0.000000000E+00 -6.613105728E+02  6.613105728E+02  0.000000000E+00  0.00000E+00  9.000E+00
      25     1     1     2     0     0 -1.176596121E+02 -1.659358364E+01 -2.204748298E+02  2.799165624E+02  1.250000000E+02  0.00000E+00  9.000E+00
      25     1     1     2     0     0  9.670489940E+01  3.249603256E+01 -3.207947849E+02  3.590851205E+02  1.250000000E+02  0.00000E+00  9.000E+00
      21     1     1     2   502   511  2.095471274E+01 -1.590244892E+01 -6.874433528E+01  7.360551270E+01  9.536743164E-07  0.00000E+00  9.000E+00
#rwgt            1           1   4.5861817968788465E-002           1      485894           0
</event>
<event>
      5   9999  3.79277E-02  7.62984E+01 -1.00000E+00  1.29353E-01
      21    -1     0     0   502   512  0.000000000E+00  0.000000000E+00  2.647455088E+02  2.647455088E+02  0.000000000E+00  0.00000E+00  9.000E+00
      21    -1     0     0   501   502  0.000000000E+00  0.000000000E+00 -1.574317942E+02  1.574317942E+02  0.000000000E+00  0.00000E+00  9.000E+00
      25     1     1     2     0     0 -4.006933261E+01  7.986670389E+01  2.145630301E+01  1.551438518E+02  1.250000000E+02  0.00000E+00  9.000E+00
      25     1     1     2     0     0  1.060748202E+02 -4.159512212E+01  2.836272756E+01  1.714977142E+02  1.250000000E+02  0.00000E+00  9.000E+00
      21     1     1     2   501   512 -6.600548757E+01 -3.827158176E+01  5.749468398E+01  9.553573701E+01  1.348699152E-06  0.00000E+00  9.000E+00
#rwgt            1           1   3.7602243838826592E-002           1      486044           0
</event>
<event>
      5   9999  3.79277E-02  3.51680E+01 -1.00000E+00  1.48395E-01
      21    -1     0     0   502   501  0.000000000E+00  0.000000000E+00  1.927968828E+02  1.927968828E+02  0.000000000E+00  0.00000E+00  9.000E+00
      21    -1     0     0   511   502  0.000000000E+00  0.000000000E+00 -7.446142821E+02  7.446142821E+02  0.000000000E+00  0.00000E+00  9.000E+00
      25     1     1     2     0     0 -2.726656597E+02 -5.004768043E+01 -3.107020014E+01  3.056823345E+02  1.250000000E+02  0.00000E+00  9.000E+00
      25     1     1     2     0     0  2.375343515E+02  4.844233821E+01 -2.892184041E+02  3.975443542E+02  1.250000000E+02  0.00000E+00  9.000E+00
      21     1     1     2   511   501  3.513130821E+01  1.605342223E+00 -2.315287951E+02  2.341844762E+02  2.697398305E-06  0.00000E+00  9.000E+00
#rwgt            1           1   4.2425216886133557E-002           1      486227           0
</event>
<event>
      5   9999 -3.79277E-02  1.05086E+02 -1.00000E+00  1.22867E-01
       1    -1     0     0   502     0  0.000000000E+00  0.000000000E+00  1.433841900E+02  1.433841900E+02  0.000000000E+00  0.00000E+00  9.000E+00
      21    -1     0     0   501   502  0.000000000E+00  0.000000000E+00 -6.094831865E+02  6.094831865E+02  0.000000000E+00  0.00000E+00  9.000E+00
      25     1     1     2     0     0 -4.747778339E+01  1.342934235E+02 -6.170835218E+01  1.993032470E+02  1.250000000E+02  0.00000E+00  9.000E+00
      25     1     1     2     0     0  1.480439774E+02 -1.647822522E+02 -3.568600404E+02  4.382285914E+02  1.250000000E+02  0.00000E+00  9.000E+00
       1     1     1     2   501     0 -1.005661940E+02  3.048882863E+01 -4.753060392E+01  1.153355382E+02  9.536743164E-07  0.00000E+00  9.000E+00
#rwgt            1           1  -9.6927809312718924E-002           1      486366           0
</event>
<event>
      5   9999  3.79277E-02  6.46522E+01 -1.00000E+00  1.32993E-01
      21    -1     0     0   502   501  0.000000000E+00  0.000000000E+00  1.463653346E+02  1.463653346E+02  0.000000000E+00  0.00000E+00  9.000E+00
       2    -1     0     0   501     0  0.000000000E+00  0.000000000E+00 -1.213687236E+03  1.213687236E+03  0.000000000E+00  0.00000E+00  9.000E+00
      25     1     1     2     0     0 -2.399599765E+01 -6.830253925E+01  8.572111232E+01  1.679706935E+02  1.250000000E+02  0.00000E+00  9.000E+00
      25     1     1     2     0     0 -4.045944921E+01  7.334224206E+01 -2.908403167E+02  3.274586101E+02  1.250000000E+02  0.00000E+00  9.000E+00
       2     1     1     2   502     0  6.445544686E+01 -5.039702812E+00 -8.622026972E+02  8.646232673E+02  1.078959322E-05  0.00000E+00  9.000E+00
#rwgt            1           1   4.9879810427778642E-002           1      486451           0
</event>
<event>
      5   9999  3.79277E-02  2.32592E+01 -1.00000E+00  1.61135E-01
      21    -1     0     0   502   501  0.000000000E+00  0.000000000E+00  4.733028143E+02  4.733028143E+02  0.000000000E+00  0.00000E+00  9.000E+00
      21    -1     0     0   511   502  0.000000000E+00  0.000000000E+00 -9.158456320E+01  9.158456320E+01  0.000000000E+00  0.00000E+00  9.000E+00
      25     1     1     2     0     0 -8.882172104E+01 -8.221591023E+01  2.842384397E+02  3.332645265E+02  1.250000000E+02  0.00000E+00  9.000E+00
      25     1     1     2     0     0  8.967324772E+01  1.054595493E+02  8.242376251E+01  2.039158761E+02  1.250000000E+02  0.00000E+00  9.000E+00
      21     1     1     2   511   501 -8.515266788E-01 -2.324363903E+01  1.505604897E+01  2.770697500E+01  5.591411304E-07  0.00000E+00  9.000E+00
#rwgt            1           1   4.0138182240345828E-002           1      486559           0
</event>
<event>
      5   9999 -6.70944E-02  2.74800E+01 -1.00000E+00  1.55734E-01
      21    -1     0     0   502   512  0.000000000E+00  0.000000000E+00  2.045862629E+02  2.045862629E+02  0.000000000E+00  0.00000E+00  9.000E+00
      21    -1     0     0   501   502  0.000000000E+00  0.000000000E+00 -1.488881099E+03  1.488881099E+03  0.000000000E+00  0.00000E+00  9.000E+00
      25     1     1     2     0     0 -4.964716828E+02 -1.512561650E+01 -8.287001664E+02  9.742083360E+02  1.250000000E+02  0.00000E+00  9.000E+00
      25     1     1     2     0     0  5.116012290E+02 -7.814452488E+00 -4.459361070E+02  6.901310707E+02  1.250000000E+02  0.00000E+00  9.000E+00
      21     1     1     2   501   512 -1.512954623E+01  2.294006898E+01 -9.658562371E+00  2.912795498E+01  1.192092896E-07  0.00000E+00  9.000E+00
#rwgt            1           1  -1.0457503389136558                1      486775           0
</event>
<event>
      5   9999  3.79277E-02  2.17256E+01 -1.00000E+00  1.63457E-01
      21    -1     0     0   502   511  0.000000000E+00  0.000000000E+00  1.791319437E+03  1.791319437E+03  0.000000000E+00  0.00000E+00  9.000E+00
      21    -1     0     0   501   502  0.000000000E+00  0.000000000E+00 -3.478712589E+01  3.478712589E+01  0.000000000E+00  0.00000E+00  9.000E+00
      25     1     1     2     0     0 -8.564760507E+01 -3.244240762E+00  1.712214488E+02  2.286653053E+02  1.250000000E+02  0.00000E+00  9.000E+00
      25     1     1     2     0     0  8.873342872E+01 -1.826105829E+01  1.010894321E+03  1.022614011E+03  1.250000000E+02  0.00000E+00  9.000E+00
      21     1     1     2   501   511 -3.085823645E+00  2.150529905E+01  5.744165412E+02  5.748272462E+02  0.000000000E+00  0.00000E+00  9.000E+00
#rwgt            1           1   4.4858857858962563E-002           1      487024           0
</event>
<event>
      5   9999  3.79277E-02  3.31151E+01 -1.00000E+00  1.50118E-01
      21    -1     0     0   502   501  0.000000000E+00  0.000000000E+00  7.309768956E+02  7.309768956E+02  0.000000000E+00  0.00000E+00  9.000E+00
      21    -1     0     0   501   512  0.000000000E+00  0.000000000E+00 -8.626339107E+01  8.626339107E+01  0.000000000E+00  0.00000E+00  9.000E+00
      25     1     1     2     0     0  1.028903274E+02  1.566157053E+02  2.281945027E+02  3.206440857E+02  1.250000000E+02  0.00000E+00  9.000E+00
      25     1     1     2     0     0 -1.307929626E+02 -1.387817220E+02  3.979076454E+02  4.586094850E+02  1.250000000E+02  0.00000E+00  9.000E+00
      21     1     1     2   502   512  2.790263511E+01 -1.783398333E+01  1.861135646E+01  3.798671606E+01  3.371747881E-07  0.00000E+00  9.000E+00
#rwgt            1           1   3.4883525386741394E-002           1      487113           0
</event>
<event>
      5   9999 -3.79277E-02  1.61602E+01 -1.00000E+00  1.74389E-01
      21    -1     0     0   502   511  0.000000000E+00  0.000000000E+00  1.418404136E+03  1.418404136E+03  0.000000000E+00  0.00000E+00  9.000E+00
      21    -1     0     0   501   502  0.000000000E+00  0.000000000E+00 -6.163911095E+01  6.163911095E+01  0.000000000E+00  0.00000E+00  9.000E+00
      25     1     1     2     0     0 -1.700555064E+02 -1.840365097E+02  6.319697934E+02  6.912301584E+02  1.250000000E+02  0.00000E+00  9.000E+00
      25     1     1     2     0     0  1.786123995E+02  1.977452739E+02  6.727874333E+02  7.343524447E+02  1.250000000E+02  0.00000E+00  9.000E+00
      21     1     1     2   501   511 -8.556893129E+00 -1.370876422E+01  5.200779832E+01  5.446064379E+01  9.536743164E-07  0.00000E+00  9.000E+00
#rwgt            1           1  -2.1391279070857763E-002           1      487343           0
</event>
<event>
      5   9999  3.79277E-02  7.63983E+01 -1.00000E+00  1.29325E-01
      -4    -1     0     0     0   501  0.000000000E+00  0.000000000E+00  2.919412742E+02  2.919412742E+02  0.000000000E+00  0.00000E+00  9.000E+00
      21    -1     0     0   501   502  0.000000000E+00  0.000000000E+00 -4.264738592E+02  4.264738592E+02  0.000000000E+00  0.00000E+00  9.000E+00
      25     1     1     2     0     0 -1.086971162E+02  9.852088170E+00 -3.222422652E+02  3.624599346E+02  1.250000000E+02  0.00000E+00  9.000E+00
      25     1     1     2     0     0  5.503534528E+01  4.452726563E+01 -9.996127721E+00  1.440016985E+02  1.250000000E+02  0.00000E+00  9.000E+00
      -4     1     1     2     0   502  5.366177093E+01 -5.437935380E+01  1.977058080E+02  2.119535003E+02  2.697398305E-06  0.00000E+00  9.000E+00
#rwgt            1           1   4.8723708598696819E-002           1      487610           0
</event>
<event>
      5   9999  3.79277E-02  2.63319E+01 -1.00000E+00  1.57081E-01
      21    -1     0     0   502   511  0.000000000E+00  0.000000000E+00  8.214211268E+02  8.214211268E+02  0.000000000E+00  0.00000E+00  9.000E+00
      21    -1     0     0   501   502  0.000000000E+00  0.000000000E+00 -6.249070615E+01  6.249070615E+01  0.000000000E+00  0.00000E+00  9.000E+00
      25     1     1     2     0     0 -3.051991911E+01  9.800604310E+01  5.717378888E+02  5.941766265E+02  1.250000000E+02  0.00000E+00  9.000E+00
      25     1     1     2     0     0  5.526063214E+01 -1.070208692E+02  1.037313169E+02  2.022186688E+02  1.250000000E+02  0.00000E+00  9.000E+00
      21     1     1     2   501   511 -2.474071303E+01  9.014826083E+00  8.346121490E+01  8.751653765E+01  9.536743164E-07  0.00000E+00  9.000E+00
#rwgt            1           1   1.9416735445085744E-002           1      487687           0
</event>
<event>
      5   9999  3.79277E-02  2.49510E+02 -1.00000E+00  1.08259E-01
      21    -1     0     0   502   501  0.000000000E+00  0.000000000E+00  1.906963152E+02  1.906963152E+02  0.000000000E+00  0.00000E+00  9.000E+00
      21    -1     0     0   512   502  0.000000000E+00  0.000000000E+00 -1.772984508E+03  1.772984508E+03  0.000000000E+00  0.00000E+00  9.000E+00
      25     1     1     2     0     0 -2.556252149E+02  3.673325423E+01 -9.291277679E+00  2.870625547E+02  1.250000000E+02  0.00000E+00  9.000E+00
      25     1     1     2     0     0  5.342455120E+01  1.094514263E+02 -1.447494540E+02  2.267403842E+02  1.250000000E+02  0.00000E+00  9.000E+00
      21     1     1     2   512   501  2.022006637E+02 -1.461846805E+02 -1.428247461E+03  1.449877884E+03  2.157918644E-05  0.00000E+00  9.000E+00
#rwgt            1           1   3.7122623779775765E-002           1      487829           0
</event>
<event>
      5   9999  3.79277E-02  8.44587E+01 -1.00000E+00  1.27220E-01
      21    -1     0     0   502   511  0.000000000E+00  0.000000000E+00  1.839179597E+02  1.839179597E+02  0.000000000E+00  0.00000E+00  9.000E+00
      21    -1     0     0   501   502  0.000000000E+00  0.000000000E+00 -5.157644003E+02  5.157644003E+02  0.000000000E+00  0.00000E+00  9.000E+00
      25     1     1     2     0     0 -5.362289654E+01 -1.676186799E+02 -1.412758573E+02  2.579831482E+02  1.250000000E+02  0.00000E+00  9.000E+00
      25     1     1     2     0     0  3.837031143E+01  8.454864649E+01 -2.789413844E+02  3.194589963E+02  1.250000000E+02  0.00000E+00  9.000E+00
      21     1     1     2   501   511  1.525258511E+01  8.307003344E+01  8.837080109E+01  1.222402155E+02  3.015782986E-06  0.00000E+00  9.000E+00
#rwgt            2          11   1.5405629753025044E-003           1      487995           0
</event>
<event>
      5   9999  3.79277E-02  2.22541E+01 -1.00000E+00  1.62631E-01
      21    -1     0     0   502   512  0.000000000E+00  0.000000000E+00  1.443889981E+02  1.443889981E+02  0.000000000E+00  0.00000E+00  9.000E+00
      21    -1     0     0   501   502  0.000000000E+00  0.000000000E+00 -6.297488834E+02  6.297488834E+02  0.000000000E+00  0.00000E+00  9.000E+00
      25     1     1     2     0     0 -5.668655800E+01  1.596464312E+02 -4.991941372E+02  5.417749860E+02  1.250000000E+02  0.00000E+00  9.000E+00
      25     1     1     2     0     0  7.298669990E+01 -1.444954673E+02  2.731792916E+01  2.063425979E+02  1.250000000E+02  0.00000E+00  9.000E+00
      21     1     1     2   501   512 -1.630014190E+01 -1.515096392E+01 -1.348367738E+01  2.602029764E+01  5.840038640E-07  0.00000E+00  9.000E+00
#rwgt            1           1   4.3543637121265279E-002           1      488045           0
</event>
<event>
      5   9999  3.79277E-02  2.53331E+01 -1.00000E+00  1.58322E-01
      21    -1     0     0   502   501  0.000000000E+00  0.000000000E+00  5.112170995E+02  5.112170995E+02  0.000000000E+00  0.00000E+00  9.000E+00
      21    -1     0     0   511   502  0.000000000E+00  0.000000000E+00 -1.064746529E+02  1.064746529E+02  0.000000000E+00  0.00000E+00  9.000E+00
      25     1     1     2     0     0  1.302931133E+02 -1.127722308E+02  1.633104467E+02  2.683079824E+02  1.250000000E+02  0.00000E+00  9.000E+00
      25     1     1     2     0     0 -1.185031441E+02  1.351945593E+02  2.386765189E+02  3.239012885E+02  1.250000000E+02  0.00000E+00  9.000E+00
      21     1     1     2   511   501 -1.178996919E+01 -2.242232848E+01  2.755481015E+00  2.548248150E+01  4.329037382E-07  0.00000E+00  9.000E+00
#rwgt            1           1   3.5884092107143384E-002           1      488310           0
</event>
<event>
      5   9999  3.79277E-02  2.05507E+01 -1.00000E+00  1.65402E-01
      21    -1     0     0   502   512  0.000000000E+00  0.000000000E+00  6.430566411E+02  6.430566411E+02  0.000000000E+00  0.00000E+00  9.000E+00
      21    -1     0     0   501   502  0.000000000E+00  0.000000000E+00 -8.230702384E+01  8.230702384E+01  0.000000000E+00  0.00000E+00  9.000E+00
      25     1     1     2     0     0  8.069917605E+01 -1.209293388E+02  8.413238375E+01  2.093788910E+02  1.250000000E+02  0.00000E+00  9.000E+00
      25     1     1     2     0     0 -7.205466996E+01  1.022852040E+02  4.347033767E+02  4.693039145E+02  1.250000000E+02  0.00000E+00  9.000E+00
      21     1     1     2   501   512 -8.644506087E+00  1.864413480E+01  4.191385678E+01  4.668085944E+01  0.000000000E+00  0.00000E+00  9.000E+00
#rwgt            1           1   3.5192099030928792E-002           1      488556           0
</event>
<event>
      5   9999  3.79277E-02  2.48871E+01 -1.00000E+00  1.58898E-01
      21    -1     0     0   502   501  0.000000000E+00  0.000000000E+00  1.982261565E+02  1.982261565E+02  0.000000000E+00  0.00000E+00  9.000E+00
      -1    -1     0     0     0   502  0.000000000E+00  0.000000000E+00 -2.353061798E+02  2.353061798E+02  0.000000000E+00  0.00000E+00  9.000E+00
      25     1     1     2     0     0 -5.096376465E+01  9.229132890E+01  6.451255617E+01  1.757892619E+02  1.250000000E+02  0.00000E+00  9.000E+00
      25     1     1     2     0     0  7.252927315E+01 -7.986969394E+01 -1.289807862E+01  1.656231382E+02  1.250000000E+02  0.00000E+00  9.000E+00
      -1     1     1     2     0   501 -2.156550850E+01 -1.242163496E+01 -8.869450078E+01  9.211993618E+01  2.132480600E-06  0.00000E+00  9.000E+00
#rwgt            1           1   4.0591299160287232E-002           1      488709           0
</event>
<event>
      5   9999  3.79277E-02  1.46909E+01 -1.00000E+00  1.78240E-01
      21    -1     0     0   511   501  0.000000000E+00  0.000000000E+00  4.967491442E+02  4.967491442E+02  0.000000000E+00  0.00000E+00  9.000E+00
      21    -1     0     0   501   502  0.000000000E+00  0.000000000E+00 -1.586775148E+02  1.586775148E+02  0.000000000E+00  0.00000E+00  9.000E+00
      25     1     1     2     0     0 -1.248190052E+02 -6.456738555E+01 -7.065398114E+01  2.009122106E+02  1.250000000E+02  0.00000E+00  9.000E+00
      25     1     1     2     0     0  1.162158176E+02  5.265908275E+01  3.982496528E+02  4.364709397E+02  1.250000000E+02  0.00000E+00  9.000E+00
      21     1     1     2   511   502  8.603187604E+00  1.190830281E+01  1.047595782E+01  1.804350867E+01  2.064765462E-07  0.00000E+00  9.000E+00
#rwgt            1           1   4.4523986695642608E-002           1      488880           0
</event>
<event>
      5   9999  3.79277E-02  2.53444E+02 -1.00000E+00  1.08028E-01
      21    -1     0     0   502   501  0.000000000E+00  0.000000000E+00  2.675534991E+02  2.675534991E+02  0.000000000E+00  0.00000E+00  9.000E+00
       2    -1     0     0   501     0  0.000000000E+00  0.000000000E+00 -1.137479583E+03  1.137479583E+03  0.000000000E+00  0.00000E+00  9.000E+00
      25     1     1     2     0     0 -1.790617708E+02 -1.205501803E+02 -2.334673435E+01  2.505305046E+02  1.250000000E+02  0.00000E+00  9.000E+00
      25     1     1     2     0     0  1.067673388E+02 -1.223641870E+02  5.970079155E+01  2.134512671E+02  1.250000000E+02  0.00000E+00  9.000E+00
       2     1     1     2   502     0  7.229443197E+01  2.429143673E+02 -9.062801412E+02  9.410513105E+02  0.000000000E+00  0.00000E+00  9.000E+00
#rwgt            1           1   3.1133983218104556E-002           1      489178           0
</event>
<event>
      5   9999  3.79277E-02  4.75199E+00 -1.00000E+00  2.47003E-01
      21    -1     0     0   511   501  0.000000000E+00  0.000000000E+00  4.015855821E+02  4.015855821E+02  0.000000000E+00  0.00000E+00  9.000E+00
      21    -1     0     0   501   502  0.000000000E+00  0.000000000E+00 -1.147001745E+02  1.147001745E+02  0.000000000E+00  0.00000E+00  9.000E+00
      25     1     1     2     0     0  6.791746460E+01 -4.743590225E+01  1.895950771E+02  2.417317523E+02  1.250000000E+02  0.00000E+00  9.000E+00
      25     1     1     2     0     0 -7.266635520E+01  4.726442752E+01 -2.328245341E+01  1.538876146E+02  1.250000000E+02  0.00000E+00  9.000E+00
      21     1     1     2   511   502  4.748890597E+00  1.714747350E-01  1.205727839E+02  1.206663896E+02  0.000000000E+00  0.00000E+00  9.000E+00
#rwgt            1           1   3.7198623855892815E-002           1      489223           0
</event>
<event>
      5   9999 -3.79277E-02  2.40061E+01 -1.00000E+00  1.60082E-01
      21    -1     0     0   502   501  0.000000000E+00  0.000000000E+00  1.031924712E+03  1.031924712E+03  0.000000000E+00  0.00000E+00  9.000E+00
      21    -1     0     0   501   512  0.000000000E+00  0.000000000E+00 -5.618336506E+01  5.618336506E+01  0.000000000E+00  0.00000E+00  9.000E+00
      25     1     1     2     0     0 -1.649743958E+02  5.016335220E+01  4.210340188E+02  4.718342486E+02  1.250000000E+02  0.00000E+00  9.000E+00
      25     1     1     2     0     0  1.881666563E+02 -5.636122696E+01  5.401658539E+02  5.882069604E+02  1.250000000E+02  0.00000E+00  9.000E+00
      21     1     1     2   502   512 -2.319226055E+01  6.197874756E+00  1.454147372E+01  2.806686763E+01  7.539457465E-07  0.00000E+00  9.000E+00
#rwgt            1           1 -0.14067089843956307                1      489650           0
</event>
<event>
      5   9999 -3.79277E-02  2.74640E+01 -1.00000E+00  1.55753E-01
      21    -1     0     0   511   501  0.000000000E+00  0.000000000E+00  1.087823788E+03  1.087823788E+03  0.000000000E+00  0.00000E+00  9.000E+00
      21    -1     0     0   501   502  0.000000000E+00  0.000000000E+00 -7.202258443E+02  7.202258443E+02  0.000000000E+00  0.00000E+00  9.000E+00
      25     1     1     2     0     0 -6.044981297E+01  1.602246480E+02 -7.515675547E+01  2.249436720E+02  1.250000000E+02  0.00000E+00  9.000E+00
      25     1     1     2     0     0  3.416350938E+01 -1.681807589E+02 -5.502146947E+02  5.897568340E+02  1.250000000E+02  0.00000E+00  9.000E+00
      21     1     1     2   511   502  2.628630359E+01  7.956110938E+00  9.929693943E+02  9.933491266E+02  1.078959322E-05  0.00000E+00  9.000E+00
#rwgt            1           1  -5.2509142276136657E-002           1      489826           0
</event>
<event>
      5   9999  3.79277E-02  8.89784E+01 -1.00000E+00  1.26153E-01
      21    -1     0     0   502   501  0.000000000E+00  0.000000000E+00  2.857302201E+02  2.857302201E+02  0.000000000E+00  0.00000E+00  9.000E+00
       2    -1     0     0   501     0  0.000000000E+00  0.000000000E+00 -3.771710391E+02  3.771710391E+02  0.000000000E+00  0.00000E+00  9.000E+00
      25     1     1     2     0     0 -2.611000650E+01  2.422117289E+01  1.368500605E+02  1.887361563E+02  1.250000000E+02  0.00000E+00  9.000E+00
      25     1     1     2     0     0  9.743199482E+01 -7.742205583E+01  4.890324059E+01  1.830401466E+02  1.250000000E+02  0.00000E+00  9.000E+00
       2     1     1     2   502     0 -7.132198831E+01  5.320088294E+01 -2.771941201E+02  2.911249563E+02  3.814697266E-06  0.00000E+00  9.000E+00
#rwgt            1           1   3.6146093731230462E-002           1      490206           0
</event>
<event>
      5   9999  3.79277E-02  1.45654E+01 -1.00000E+00  1.78595E-01
      21    -1     0     0   502   511  0.000000000E+00  0.000000000E+00  2.822651090E+02  2.822651090E+02  0.000000000E+00  0.00000E+00  9.000E+00
      21    -1     0     0   501   502  0.000000000E+00  0.000000000E+00 -2.891950106E+02  2.891950106E+02  0.000000000E+00  0.00000E+00  9.000E+00
      25     1     1     2     0     0  1.225806990E+02  1.825197700E+02  9.246291766E+01  2.692840236E+02  1.250000000E+02  0.00000E+00  9.000E+00
      25     1     1     2     0     0 -1.367395970E+02 -1.791027619E+02 -1.137964566E+02  2.816915871E+02  1.250000000E+02  0.00000E+00  9.000E+00
      21     1     1     2   501   511  1.415889797E+01 -3.417008091E+00  1.440363735E+01  2.048450890E+01  1.685873940E-07  0.00000E+00  9.000E+00
#rwgt            1           1   4.3967753558184726E-002           1      490275           0
</event>
<event>
      5   9999 -3.79277E-02  1.19304E+01 -1.00000E+00  1.87294E-01
      21    -1     0     0   502   501  0.000000000E+00  0.000000000E+00  9.663488329E+01  9.663488329E+01  0.000000000E+00  0.00000E+00  9.000E+00
      21    -1     0     0   501   512  0.000000000E+00  0.000000000E+00 -5.037174763E+02  5.037174763E+02  0.000000000E+00  0.00000E+00  9.000E+00
      25     1     1     2     0     0 -1.201876497E+02 -1.072440947E+02 -2.715289447E+02  3.395575574E+02  1.250000000E+02  0.00000E+00  9.000E+00
      25     1     1     2     0     0  1.288172744E+02  9.900616900E+01 -1.101065519E+02  2.326898461E+02  1.250000000E+02  0.00000E+00  9.000E+00
      21     1     1     2   502   512 -8.629624732E+00  8.237925722E+00 -2.544709639E+01  2.810495611E+01  0.000000000E+00  0.00000E+00  9.000E+00
#rwgt            1           1 -0.12058180003651320                1      490643           0
</event>
<event>
      5   9999  3.79277E-02  2.35344E+01 -1.00000E+00  1.60742E-01
      21    -1     0     0   502   501  0.000000000E+00  0.000000000E+00  1.254533278E+02  1.254533278E+02  0.000000000E+00  0.00000E+00  9.000E+00
      21    -1     0     0   511   502  0.000000000E+00  0.000000000E+00 -7.649575523E+02  7.649575523E+02  0.000000000E+00  0.00000E+00  9.000E+00
      25     1     1     2     0     0  6.321409712E+01  1.120322536E+01  6.530439990E+01  1.549554742E+02  1.250000000E+02  0.00000E+00  9.000E+00
      25     1     1     2     0     0 -8.124189255E+01 -2.633148494E+01 -3.693417096E+02  3.991639897E+02  1.250000000E+02  0.00000E+00  9.000E+00
      21     1     1     2   511   501  1.802779543E+01  1.512825958E+01 -3.354669148E+02  3.362914161E+02  5.394796609E-06  0.00000E+00  9.000E+00
#rwgt            1           1   2.7307588034108758E-002           1      490952           0
</event>
<event>
      5   9999  3.79277E-02  3.27279E+01 -1.00000E+00  1.50460E-01
      21    -1     0     0   502   512  0.000000000E+00  0.000000000E+00  5.028982073E+02  5.028982073E+02  0.000000000E+00  0.00000E+00  9.000E+00
      21    -1     0     0   501   502  0.000000000E+00  0.000000000E+00 -2.533249444E+02  2.533249444E+02  0.000000000E+00  0.00000E+00  9.000E+00
      25     1     1     2     0     0 -2.988917663E+01 -1.503307738E+02 -1.027941321E+02  2.228998386E+02  1.250000000E+02  0.00000E+00  9.000E+00
      25     1     1     2     0     0  3.193588411E+00  1.692638451E+02  3.387057766E+01  2.131493943E+02  1.250000000E+02  0.00000E+00  9.000E+00
      21     1     1     2   501   512  2.669558822E+01 -1.893307121E+01  3.184968174E+02  3.201739188E+02  3.814697266E-06  0.00000E+00  9.000E+00
#rwgt            1           1   2.9075623026693590E-002           1      491107           0
</event>
<event>
      5   9999  3.79277E-02  1.59424E+01 -1.00000E+00  1.74926E-01
      21    -1     0     0   502   511  0.000000000E+00  0.000000000E+00  1.291651958E+02  1.291651958E+02  0.000000000E+00  0.00000E+00  9.000E+00
      21    -1     0     0   501   502  0.000000000E+00  0.000000000E+00 -3.074299870E+02  3.074299870E+02  0.000000000E+00  0.00000E+00  9.000E+00
      25     1     1     2     0     0  2.650480335E+01 -4.910910473E+01  3.610675806E+01  1.415729732E+02  1.250000000E+02  0.00000E+00  9.000E+00
      25     1     1     2     0     0 -3.797735426E+01  3.803928286E+01 -2.334194326E+02  2.701830823E+02  1.250000000E+02  0.00000E+00  9.000E+00
      21     1     1     2   501   511  1.147255091E+01  1.106982187E+01  1.904788337E+01  2.483912723E+01  2.384185791E-07  0.00000E+00  9.000E+00
#rwgt            1           1   5.1353489666447448E-002           1      491246           0
</event>
<event>
      5   9999  3.79277E-02  6.40925E+01 -1.00000E+00  1.33190E-01
      21    -1     0     0   512   501  0.000000000E+00  0.000000000E+00  6.215290039E+02  6.215290039E+02  0.000000000E+00  0.00000E+00  9.000E+00
      21    -1     0     0   501   502  0.000000000E+00  0.000000000E+00 -3.862590526E+02  3.862590526E+02  0.000000000E+00  0.00000E+00  9.000E+00
      25     1     1     2     0     0 -6.525731094E+01  2.361396853E+02 -1.561732377E+02  3.162839670E+02  1.250000000E+02  0.00000E+00  9.000E+00
      25     1     1     2     0     0  5.454109835E+00 -2.130869250E+02 -4.432413481E+01  2.510486285E+02  1.250000000E+02  0.00000E+00  9.000E+00
      21     1     1     2   512   502  5.980320110E+01 -2.305276031E+01  4.357673238E+02  4.404554610E+02  0.000000000E+00  0.00000E+00  9.000E+00
#rwgt            1           1  0.10966275365339599                1      491406           0
</event>
<event>
      5   9999  3.79277E-02  8.31659E+01 -1.00000E+00  1.27539E-01
      21    -1     0     0   502   501  0.000000000E+00  0.000000000E+00  1.474073416E+03  1.474073416E+03  0.000000000E+00  0.00000E+00  9.000E+00
      21    -1     0     0   501   511  0.000000000E+00  0.000000000E+00 -1.714516842E+02  1.714516842E+02  0.000000000E+00  0.00000E+00  9.000E+00
      25     1     1     2     0     0  1.391509127E+02 -1.599447720E+02  9.717145016E+02  1.002396817E+03  1.250000000E+02  0.00000E+00  9.000E+00
      25     1     1     2     0     0 -6.232021288E+01  1.281076270E+02  4.554841606E+02  4.933418628E+02  1.250000000E+02  0.00000E+00  9.000E+00
      21     1     1     2   502   511 -7.683069982E+01  3.183714497E+01 -1.245769301E+02  1.497864205E+02  4.046097457E-06  0.00000E+00  9.000E+00
#rwgt            2          11   5.7787759448440701E-003           1      491494           0
</event>
<event>
      5   9999  3.79277E-02  7.66620E+01 -1.00000E+00  1.29252E-01
      21    -1     0     0   502   501  0.000000000E+00  0.000000000E+00  1.526610622E+02  1.526610622E+02  0.000000000E+00  0.00000E+00  9.000E+00
      -1    -1     0     0     0   502  0.000000000E+00  0.000000000E+00 -7.974317873E+02  7.974317873E+02  0.000000000E+00  0.00000E+00  9.000E+00
      25     1     1     2     0     0 -1.524411535E+02 -1.354188279E+02 -2.542411689E+02  3.490560646E+02  1.250000000E+02  0.00000E+00  9.000E+00
      25     1     1     2     0     0  2.146507869E+02  9.061898403E+01 -7.288183356E+01  2.742690691E+02  1.250000000E+02  0.00000E+00  9.000E+00
      -1     1     1     2     0   501 -6.220963341E+01  4.479984390E+01 -3.176477226E+02  3.267677159E+02  0.000000000E+00  0.00000E+00  9.000E+00
#rwgt            1           1   3.0924621670140519E-002           1      491559           0
</event>
<event>
      5   9999  3.79277E-02  1.35446E+01 -1.00000E+00  1.81664E-01
      21    -1     0     0   511   501  0.000000000E+00  0.000000000E+00  1.358455859E+03  1.358455859E+03  0.000000000E+00  0.00000E+00  9.000E+00
      21    -1     0     0   501   502  0.000000000E+00  0.000000000E+00 -2.493216895E+02  2.493216895E+02  0.000000000E+00  0.00000E+00  9.000E+00
      25     1     1     2     0     0 -3.141229160E+01 -3.053489255E+01 -1.838816213E+02  2.266198632E+02  1.250000000E+02  0.00000E+00  9.000E+00
      25     1     1     2     0     0  2.095863164E+01  2.192225161E+01  4.989807295E+01  1.379661808E+02  1.250000000E+02  0.00000E+00  9.000E+00
      21     1     1     2   511   502  1.045365997E+01  8.612640941E+00  1.243117718E+03  1.243191505E+03  2.642899792E-05  0.00000E+00  9.000E+00
#rwgt            1           1   3.3796730965811171E-002           1      491656           0
</event>
<event>
      5   9999  3.79277E-02  9.18745E+01 -1.00000E+00  1.25506E-01
      21    -1     0     0   502   501  0.000000000E+00  0.000000000E+00  8.322257948E+01  8.322257948E+01  0.000000000E+00  0.00000E+00  9.000E+00
      21    -1     0     0   512   502  0.000000000E+00  0.000000000E+00 -7.858981146E+02  7.858981146E+02  0.000000000E+00  0.00000E+00  9.000E+00
      25     1     1     2     0     0 -8.673191444E+00 -6.011073874E+01 -2.063919083E+02  2.488195028E+02  1.250000000E+02  0.00000E+00  9.000E+00
      25     1     1     2     0     0  6.103555285E+01  1.356031287E+02 -1.100071484E+02  2.232490088E+02  1.250000000E+02  0.00000E+00  9.000E+00
      21     1     1     2   512   501 -5.236236141E+01 -7.549238995E+01 -3.862764785E+02  3.970521826E+02  5.394796609E-06  0.00000E+00  9.000E+00
#rwgt            1           1   3.8159925262055264E-002           1      491790           0
</event>
<event>
      5   9999  3.79277E-02  2.78186E+01 -1.00000E+00  1.55352E-01
      21    -1     0     0   502   511  0.000000000E+00  0.000000000E+00  1.905488069E+02  1.905488069E+02  0.000000000E+00  0.00000E+00  9.000E+00
      21    -1     0     0   501   502  0.000000000E+00  0.000000000E+00 -6.783540034E+02  6.783540034E+02  0.000000000E+00  0.00000E+00  9.000E+00
      25     1     1     2     0     0  6.815597567E+01 -5.833843865E+01 -5.460619145E+02  5.673246204E+02  1.250000000E+02  0.00000E+00  9.000E+00
      25     1     1     2     0     0 -6.880296198E+01  8.614947016E+01 -6.223634281E+01  1.779155450E+02  1.250000000E+02  0.00000E+00  9.000E+00
      21     1     1     2   501   511  6.469863166E-01 -2.781103151E+01  1.204930608E+02  1.236626450E+02  3.015782986E-06  0.00000E+00  9.000E+00
#rwgt            1           1   4.7504691574410937E-002           1      491950           0
</event>
<event>
      5   9999  3.79277E-02  4.14478E+01 -1.00000E+00  1.43889E-01
      21    -1     0     0   502   501  0.000000000E+00  0.000000000E+00  2.291063213E+03  2.291063213E+03  0.000000000E+00  0.00000E+00  9.000E+00
      21    -1     0     0   501   512  0.000000000E+00  0.000000000E+00 -2.835629720E+01  2.835629720E+01  0.000000000E+00  0.00000E+00  9.000E+00
      25     1     1     2     0     0 -1.284897494E+02 -7.632445223E+01  9.059760712E+02  9.266890953E+02  1.250000000E+02  0.00000E+00  9.000E+00
      25     1     1     2     0     0  1.615355195E+02  1.013423113E+02  1.312329070E+03  1.331989705E+03  1.250000000E+02  0.00000E+00  9.000E+00
      21     1     1     2   502   512 -3.304577010E+01 -2.501785909E+01  4.440177543E+01  6.074071004E+01  1.966049969E-06  0.00000E+00  9.000E+00
#rwgt            1           1   8.5079698018493730E-002           1      492120           0
</event>
<event>
      5   9999  3.79277E-02  3.57342E+01 -1.00000E+00  1.47944E-01
      21    -1     0     0   502   501  0.000000000E+00  0.000000000E+00  1.396896399E+02  1.396896399E+02  0.000000000E+00  0.00000E+00  9.000E+00
      21    -1     0     0   501   511  0.000000000E+00  0.000000000E+00 -3.471711833E+02  3.471711833E+02  0.000000000E+00  0.00000E+00  9.000E+00
      25     1     1     2     0     0 -1.306735473E+02 -2.015013303E+01 -1.226261936E+02  2.194169255E+02  1.250000000E+02  0.00000E+00  9.000E+00
      25     1     1     2     0     0  1.661205710E+02  1.562867004E+01 -4.383525975E+01  2.130418491E+02  1.250000000E+02  0.00000E+00  9.000E+00
      21     1     1     2   502   511 -3.544702375E+01  4.521462991E+00 -4.102009004E+01  5.440204874E+01  0.000000000E+00  0.00000E+00  9.000E+00
#rwgt            1           1   3.2374050818059878E-002           1      492242           0
</event>
<event>
      5   9999  3.79277E-02  7.39409E+00 -1.00000E+00  2.12246E-01
      21    -1     0     0   502   512  0.000000000E+00  0.000000000E+00  7.080542251E+02  7.080542251E+02  0.000000000E+00  0.00000E+00  9.000E+00
      21    -1     0     0   501   502  0.000000000E+00  0.000000000E+00 -3.263595938E+02  3.263595938E+02  0.000000000E+00  0.00000E+00  9.000E+00
      25     1     1     2     0     0  1.361199562E+02  3.917823613E+01 -3.371729527E+01  1.918995379E+02  1.250000000E+02  0.00000E+00  9.000E+00
      25     1     1     2     0     0 -1.311969140E+02 -4.469513369E+01 -1.727425443E+02  2.543133340E+02  1.250000000E+02  0.00000E+00  9.000E+00
      21     1     1     2   501   512 -4.923042197E+00  5.516897565E+00  5.881544708E+02  5.882009470E+02  7.629394531E-06  0.00000E+00  9.000E+00
#rwgt            1           1   3.8474451085002914E-002           1      492412           0
</event>
<event>
      5   9999  3.79277E-02  2.34451E+02 -1.00000E+00  1.09192E-01
      21    -1     0     0   511   501  0.000000000E+00  0.000000000E+00  1.627241679E+03  1.627241679E+03  0.000000000E+00  0.00000E+00  9.000E+00
      21    -1     0     0   501   502  0.000000000E+00  0.000000000E+00 -9.902903314E+01  9.902903314E+01  0.000000000E+00  0.00000E+00  9.000E+00
      25     1     1     2     0     0  1.252140915E+02 -1.189416746E+02  7.684870443E+02  7.975105190E+02  1.250000000E+02  0.00000E+00  9.000E+00
      25     1     1     2     0     0 -6.463178172E+01 -1.075466217E+02  5.407757229E+01  1.851834951E+02  1.250000000E+02  0.00000E+00  9.000E+00
      21     1     1     2   511   502 -6.058230981E+01  2.264882963E+02  7.056480293E+02  7.435766980E+02  1.078959322E-05  0.00000E+00  9.000E+00
#rwgt            2          11   1.1260320725998475E-003           1      492689           0
</event>
<event>
      5   9999  3.79277E-02  8.04061E+01 -1.00000E+00  1.28243E-01
      21    -1     0     0   502   501  0.000000000E+00  0.000000000E+00  1.302293121E+03  1.302293121E+03  0.000000000E+00  0.00000E+00  9.000E+00
      21    -1     0     0   512   502  0.000000000E+00  0.000000000E+00 -4.869766023E+01  4.869766023E+01  0.000000000E+00  0.00000E+00  9.000E+00
      25     1     1     2     0     0 -1.419454537E+02 -9.965886468E+01  8.381972111E+02  8.650317716E+02  1.250000000E+02  0.00000E+00  9.000E+00
      25     1     1     2     0     0  6.198514530E+01  9.120411020E+01  3.229899826E+02  3.634664728E+02  1.250000000E+02  0.00000E+00  9.000E+00
      21     1     1     2   512   501  7.996030835E+01  8.454754484E+00  9.240826721E+01  1.224925371E+02  1.348699152E-06  0.00000E+00  9.000E+00
#rwgt            1           1   2.5800686891360034E-002           1      492799           0
</event>
<event>
      5   9999  3.79277E-02  4.23317E+02 -1.00000E+00  1.00950E-01
      21    -1     0     0   502   501  0.000000000E+00  0.000000000E+00  1.892510115E+02  1.892510115E+02  0.000000000E+00  0.00000E+00  9.000E+00
      21    -1     0     0   511   502  0.000000000E+00  0.000000000E+00 -1.483084458E+03  1.483084458E+03  0.000000000E+00  0.00000E+00  9.000E+00
      25     1     1     2     0     0 -8.058967606E+01 -2.532042467E+02 -2.400019022E+02  3.792532129E+02  1.250000000E+02  0.00000E+00  9.000E+00
      25     1     1     2     0     0 -2.951243866E+02  5.817592289E+01 -4.756873331E+02  5.765295139E+02  1.250000000E+02  0.00000E+00  9.000E+00
      21     1     1     2   511   501  3.757140626E+02  1.950283238E+02 -5.781442108E+02  7.165527422E+02  1.078959322E-05  0.00000E+00  9.000E+00
#rwgt            2          11   3.9054698798046146E-004           1      493014           0
</event>
<event>
      5   9999  3.79277E-02  6.09010E+01 -1.00000E+00  1.34358E-01
      21    -1     0     0   502   501  0.000000000E+00  0.000000000E+00  3.149100104E+02  3.149100104E+02  0.000000000E+00  0.00000E+00  9.000E+00
      21    -1     0     0   512   502  0.000000000E+00  0.000000000E+00 -1.744432440E+02  1.744432440E+02  0.000000000E+00  0.00000E+00  9.000E+00
      25     1     1     2     0     0 -2.574861273E+01  1.480285776E+02  1.523875610E+02  2.478354688E+02  1.250000000E+02  0.00000E+00  9.000E+00
      25     1     1     2     0     0  5.866274893E+00 -9.046450777E+01  4.216625140E+01  1.600663397E+02  1.250000000E+02  0.00000E+00  9.000E+00
      21     1     1     2   512   501  1.988233784E+01 -5.756406988E+01 -5.408704602E+01  8.145144595E+01  1.507891493E-06  0.00000E+00  9.000E+00
#rwgt            1           1   3.3725920873213813E-002           1      493079           0
</event>
<event>
      5   9999  3.79277E-02  8.62134E+01 -1.00000E+00  1.26797E-01
      21    -1     0     0   502   501  0.000000000E+00  0.000000000E+00  1.650574511E+02  1.650574511E+02  0.000000000E+00  0.00000E+00  9.000E+00
      21    -1     0     0   511   502  0.000000000E+00  0.000000000E+00 -1.128530466E+03  1.128530466E+03  0.000000000E+00  0.00000E+00  9.000E+00
      25     1     1     2     0     0 -1.073991979E+02  2.987808289E+02 -5.963900790E+02  6.871031202E+02  1.250000000E+02  0.00000E+00  9.000E+00
      25     1     1     2     0     0  1.660163977E+02 -2.355607749E+02 -1.059891211E+02  3.315252882E+02  1.250000000E+02  0.00000E+00  9.000E+00
      21     1     1     2   511   501 -5.861719973E+01 -6.322005398E+01 -2.610938151E+02  2.749595090E+02  5.394796609E-06  0.00000E+00  9.000E+00
#rwgt            1           1   2.7314377579673296E-002           1      493163           0
</event>
<event>
      5   9999  3.79277E-02  1.16671E+02 -1.00000E+00  1.20889E-01
      21    -1     0     0   512   501  0.000000000E+00  0.000000000E+00  6.591062266E+02  6.591062266E+02  0.000000000E+00  0.00000E+00  9.000E+00
      21    -1     0     0   501   502  0.000000000E+00  0.000000000E+00 -1.012545029E+02  1.012545029E+02  0.000000000E+00  0.00000E+00  9.000E+00
      25     1     1     2     0     0 -1.015119888E+02 -1.970969773E+01  8.712725722E+01  1.841448208E+02  1.250000000E+02  0.00000E+00  9.000E+00
      25     1     1     2     0     0  1.539993763E+02 -8.448825788E+01  3.110043674E+02  3.784214452E+02  1.250000000E+02  0.00000E+00  9.000E+00
      21     1     1     2   512   502 -5.248738746E+01  1.041979556E+02  1.597200990E+02  1.977944636E+02  1.907348633E-06  0.00000E+00  9.000E+00
#rwgt            1           1   3.6208156006332204E-002           1      493264           0
</event>
<event>
      5   9999  3.79277E-02  5.82361E+01 -1.00000E+00  1.35400E-01
      21    -1     0     0   502   511  0.000000000E+00  0.000000000E+00  1.295730043E+02  1.295730043E+02  0.000000000E+00  0.00000E+00  9.000E+00
      21    -1     0     0   501   502  0.000000000E+00  0.000000000E+00 -3.597187089E+02  3.597187089E+02  0.000000000E+00  0.00000E+00  9.000E+00
      25     1     1     2     0     0  1.300555182E+02 -1.805920781E+01 -1.039820867E+02  2.089924572E+02  1.250000000E+02  0.00000E+00  9.000E+00
      25     1     1     2     0     0 -1.403472483E+02 -3.926026047E+01 -9.949026767E+01  2.162453040E+02  1.250000000E+02  0.00000E+00  9.000E+00
      21     1     1     2   501   511  1.029173008E+01  5.731946828E+01 -2.667335019E+01  6.405395196E+01  1.617033478E-06  0.00000E+00  9.000E+00
#rwgt            1           1   6.8624559909915270E-002           1      493441           0
</event>
<event>
      5   9999  3.79277E-02  4.62861E+01 -1.00000E+00  1.41015E-01
       2    -1     0     0   502     0  0.000000000E+00  0.000000000E+00  1.464176478E+03  1.464176478E+03  0.000000000E+00  0.00000E+00  9.000E+00
      21    -1     0     0   501   502  0.000000000E+00  0.000000000E+00 -4.978711073E+02  4.978711073E+02  0.000000000E+00  0.00000E+00  9.000E+00
      25     1     1     2     0     0  3.564466595E+02  2.919381952E+02 -5.836789867E+01  4.809510812E+02  1.250000000E+02  0.00000E+00  9.000E+00
      25     1     1     2     0     0 -3.122313418E+02 -3.056277807E+02 -9.317118657E-01  4.544475979E+02  1.250000000E+02  0.00000E+00  9.000E+00
       2     1     1     2   501     0 -4.421531764E+01  1.368958544E+01  1.025604981E+03  1.026648906E+03  1.525878906E-05  0.00000E+00  9.000E+00
#rwgt            1           1  0.19277101250257223                1      493520           0
</event>
<event>
      5   9999  3.79277E-02  1.33057E+02 -1.00000E+00  1.18495E-01
      21    -1     0     0   502   511  0.000000000E+00  0.000000000E+00  5.842733403E+02  5.842733403E+02  0.000000000E+00  0.00000E+00  9.000E+00
      21    -1     0     0   501   502  0.000000000E+00  0.000000000E+00 -7.979433205E+02  7.979433205E+02  0.000000000E+00  0.00000E+00  9.000E+00
      25     1     1     2     0     0 -3.508201864E+02 -8.108725762E+01 -5.986649673E+02  7.097004224E+02  1.250000000E+02  0.00000E+00  9.000E+00
      25     1     1     2     0     0  2.198187395E+02  1.043839964E+02  9.051554925E+00  2.737210763E+02  1.250000000E+02  0.00000E+00  9.000E+00
      21     1     1     2   501   511  1.310014469E+02 -2.329673881E+01  3.759434321E+02  3.987951621E+02  5.394796609E-06  0.00000E+00  9.000E+00
#rwgt            2          11   1.4928802702684127E-003           1      493768           0
</event>
<event>
      5   9999  3.79277E-02  5.26395E+01 -1.00000E+00  1.37813E-01
      21    -1     0     0   502   501  0.000000000E+00  0.000000000E+00  3.480706682E+02  3.480706682E+02  0.000000000E+00  0.00000E+00  9.000E+00
      21    -1     0     0   501   512  0.000000000E+00  0.000000000E+00 -1.658474046E+02  1.658474046E+02  0.000000000E+00  0.00000E+00  9.000E+00
      25     1     1     2     0     0 -2.427166072E+01  6.456706185E+01  2.535238220E+02  2.909593568E+02  1.250000000E+02  0.00000E+00  9.000E+00
      25     1     1     2     0     0  6.305622791E+01 -2.897671087E+01 -8.781899878E+01  1.677883017E+02  1.250000000E+02  0.00000E+00  9.000E+00
      21     1     1     2   502   512 -3.878456719E+01 -3.559035098E+01  1.651844036E+01  5.517041424E+01  2.384185791E-07  0.00000E+00  9.000E+00
#rwgt            1           1   4.7498960751947518E-002           1      493938           0
</event>
<event>
      5   9999  3.79277E-02  6.89074E+01 -1.00000E+00  1.31568E-01
      21    -1     0     0   502   501  0.000000000E+00  0.000000000E+00  2.405605823E+02  2.405605823E+02  0.000000000E+00  0.00000E+00  9.000E+00
      21    -1     0     0   501   511  0.000000000E+00  0.000000000E+00 -4.262882541E+02  4.262882541E+02  0.000000000E+00  0.00000E+00  9.000E+00
      25     1     1     2     0     0 -1.105719653E+02 -1.422592258E+02  1.132851342E+02  2.468245702E+02  1.250000000E+02  0.00000E+00  9.000E+00
      25     1     1     2     0     0  4.413262430E+01  1.239824589E+02 -9.536362776E+01  2.050330708E+02  1.250000000E+02  0.00000E+00  9.000E+00
      21     1     1     2   502   511  6.643934099E+01  1.827676700E+01 -2.036491783E+02  2.149911953E+02  0.000000000E+00  0.00000E+00  9.000E+00
#rwgt            1           1   4.1944785058162723E-002           1      494044           0
</event>
<event>
      5   9999  3.79277E-02  2.03525E+01 -1.00000E+00  1.65745E-01
      21    -1     0     0   502   501  0.000000000E+00  0.000000000E+00  9.350846922E+01  9.350846922E+01  0.000000000E+00  0.00000E+00  9.000E+00
       2    -1     0     0   501     0  0.000000000E+00  0.000000000E+00 -7.282213652E+02  7.282213652E+02  0.000000000E+00  0.00000E+00  9.000E+00
      25     1     1     2     0     0  1.116151566E+02  2.692328204E+00 -2.198858575E+02  2.764778149E+02  1.250000000E+02  0.00000E+00  9.000E+00
      25     1     1     2     0     0 -1.253136579E+02 -1.774471716E+01 -5.692558310E+01  1.867723476E+02  1.250000000E+02  0.00000E+00  9.000E+00
       2     1     1     2   502     0  1.369850122E+01  1.505238896E+01 -3.579014554E+02  3.584796718E+02  7.629394531E-06  0.00000E+00  9.000E+00
#rwgt            1           1   4.7211980777249148E-002           1      494193           0
</event>
<event>
      5   9999  3.79277E-02  1.97422E+01 -1.00000E+00  1.66835E-01
      21    -1     0     0   502   511  0.000000000E+00  0.000000000E+00  1.712888995E+03  1.712888995E+03  0.000000000E+00  0.00000E+00  9.000E+00
      21    -1     0     0   501   502  0.000000000E+00  0.000000000E+00 -2.082720701E+02  2.082720701E+02  0.000000000E+00  0.00000E+00  9.000E+00
      25     1     1     2     0     0 -1.193917853E+02  1.272418827E+02  5.327243854E+01  2.211511877E+02  1.250000000E+02  0.00000E+00  9.000E+00
      25     1     1     2     0     0  1.025339577E+02 -1.375165301E+02 -3.363767410E+01  2.148964906E+02  1.250000000E+02  0.00000E+00  9.000E+00
      21     1     1     2   501   511  1.685782762E+01  1.027464738E+01  1.484982161E+03  1.485113387E+03  2.157918644E-05  0.00000E+00  9.000E+00
#rwgt            1           1   4.2526746687648567E-002           1      494439           0
</event>
<event>
      5   9999  3.79277E-02  6.46610E+01 -1.00000E+00  1.32990E-01
      21    -1     0     0   502   501  0.000000000E+00  0.000000000E+00  3.067443069E+02  3.067443069E+02  0.000000000E+00  0.00000E+00  9.000E+00
      21    -1     0     0   512   502  0.000000000E+00  0.000000000E+00 -3.652190509E+02  3.652190509E+02  0.000000000E+00  0.00000E+00  9.000E+00
      25     1     1     2     0     0 -4.400635344E+01 -1.957208718E+02  1.941120019E+02  3.058556654E+02  1.250000000E+02  0.00000E+00  9.000E+00
      25     1     1     2     0     0  6.908485987E+01  1.361212843E+02 -1.647627512E+02  2.570476339E+02  1.250000000E+02  0.00000E+00  9.000E+00
      21     1     1     2   512   501 -2.507850643E+01  5.959958747E+01 -8.782399467E+01  1.090600585E+02  1.651812370E-06  0.00000E+00  9.000E+00
#rwgt            1           1   4.3517950633932087E-002           1      494606           0
</event>
<event>
      5   9999  3.79277E-02  1.56266E+01 -1.00000E+00  1.75725E-01
      21    -1     0     0   502   501  0.000000000E+00  0.000000000E+00  1.855743024E+03  1.855743024E+03  0.000000000E+00  0.00000E+00  9.000E+00
      21    -1     0     0   511   502  0.000000000E+00  0.000000000E+00 -2.173795685E+01  2.173795685E+01  0.000000000E+00  0.00000E+00  9.000E+00
      25     1     1     2     0     0 -8.930863836E+00 -1.695201408E+01  2.119385257E+02  2.467996551E+02  1.250000000E+02  0.00000E+00  9.000E+00
      25     1     1     2     0     0  6.952429576E+00  3.245287099E+01  1.587349747E+03  1.592609727E+03  1.250000000E+02  0.00000E+00  9.000E+00
      21     1     1     2   511   501  1.978434261E+00 -1.550085691E+01  3.471679468E+01  3.807159834E+01  9.536743164E-07  0.00000E+00  9.000E+00
#rwgt            1           1  0.13391571001246666                1      494707           0
</event>
<event>
      5   9999  3.79277E-02  2.95662E+01 -1.00000E+00  1.53480E-01
      21    -1     0     0   502   501  0.000000000E+00  0.000000000E+00  2.665706013E+02  2.665706013E+02  0.000000000E+00  0.00000E+00  9.000E+00
       1    -1     0     0   501     0  0.000000000E+00  0.000000000E+00 -2.129424891E+03  2.129424891E+03  0.000000000E+00  0.00000E+00  9.000E+00
      25     1     1     2     0     0 -3.983626875E+01 -2.059758376E+02  8.705201224E+01  2.592605385E+02  1.250000000E+02  0.00000E+00  9.000E+00
      25     1     1     2     0     0  1.456215537E+01  2.213179943E+02 -8.039091345E+01  2.669857860E+02  1.250000000E+02  0.00000E+00  9.000E+00
       1     1     1     2   502     0  2.527411338E+01 -1.534215670E+01 -1.869515388E+03  1.869749167E+03  2.157918644E-05  0.00000E+00  9.000E+00
#rwgt            1           1   4.6550194040787078E-002           1      494993           0
</event>
<event>
      5   9999  3.79277E-02  1.85322E+02 -1.00000E+00  1.12867E-01
       3    -1     0     0   502     0  0.000000000E+00  0.000000000E+00  1.340904107E+03  1.340904107E+03  0.000000000E+00  0.00000E+00  9.000E+00
      21    -1     0     0   501   502  0.000000000E+00  0.000000000E+00 -9.400622016E+01  9.400622016E+01  0.000000000E+00  0.00000E+00  9.000E+00
      25     1     1     2     0     0 -9.849587373E+01 -1.887851256E+02  4.509037971E+02  5.140821871E+02  1.250000000E+02  0.00000E+00  9.000E+00
      25     1     1     2     0     0 -1.553564929E+01  4.269947367E+01  3.491173889E+01  1.375079305E+02  1.250000000E+02  0.00000E+00  9.000E+00
       3     1     1     2   501     0  1.140315230E+02  1.460856519E+02  7.610823505E+02  7.833202092E+02  1.078959322E-05  0.00000E+00  9.000E+00
#rwgt            1           1   4.0204152630276178E-002           1      495310           0
</event>
<event>
      5   9999  3.79277E-02  2.32978E+01 -1.00000E+00  1.61079E-01
      21    -1     0     0   502   501  0.000000000E+00  0.000000000E+00  3.099929543E+02  3.099929543E+02  0.000000000E+00  0.00000E+00  9.000E+00
      21    -1     0     0   501   511  0.000000000E+00  0.000000000E+00 -2.972250236E+02  2.972250236E+02  0.000000000E+00  0.00000E+00  9.000E+00
      25     1     1     2     0     0  1.783706353E+02  1.811351961E+02  6.773226216E+01  2.912708399E+02  1.250000000E+02  0.00000E+00  9.000E+00
      25     1     1     2     0     0 -1.553037386E+02 -1.844070335E+02 -1.788779514E+01  2.721583702E+02  1.250000000E+02  0.00000E+00  9.000E+00
      21     1     1     2   502   511 -2.306689673E+01  3.271837419E+00 -3.707653628E+01  4.378876782E+01  4.768371582E-07  0.00000E+00  9.000E+00
#rwgt            1           1   3.6765080715193646E-002           1      495529           0
</event>
<event>
      5   9999  3.79277E-02  1.51752E+02 -1.00000E+00  1.16194E-01
      21    -1     0     0   512   501  0.000000000E+00  0.000000000E+00  6.633778916E+02  6.633778916E+02  0.000000000E+00  0.00000E+00  9.000E+00
      21    -1     0     0   501   502  0.000000000E+00  0.000000000E+00 -1.765829493E+02  1.765829493E+02  0.000000000E+00  0.00000E+00  9.000E+00
      25     1     1     2     0     0 -1.898783231E+02 -1.978733056E+02  1.468496898E+02  3.352572953E+02  1.250000000E+02  0.00000E+00  9.000E+00
      25     1     1     2     0     0  6.913056562E+01  1.059560986E+02  6.258090063E+01  1.885393833E+02  1.250000000E+02  0.00000E+00  9.000E+00
      21     1     1     2   512   502  1.207477574E+02  9.191720694E+01  2.773643518E+02  3.161641623E+02  3.814697266E-06  0.00000E+00  9.000E+00
#rwgt            1           1   6.5224856881955423E-002           1      495787           0
</event>
<event>
      5   9999  3.79277E-02  1.82084E+02 -1.00000E+00  1.13152E-01
      21    -1     0     0   502   501  0.000000000E+00  0.000000000E+00  2.859116224E+02  2.859116224E+02  0.000000000E+00  0.00000E+00  9.000E+00
       1    -1     0     0   501     0  0.000000000E+00  0.000000000E+00 -1.374612759E+03  1.374612759E+03  0.000000000E+00  0.00000E+00  9.000E+00
      25     1     1     2     0     0  3.436299175E+01 -1.336166084E+02  1.640927139E+02  2.481645261E+02  1.250000000E+02  0.00000E+00  9.000E+00
      25     1     1     2     0     0 -1.459870337E+02 -1.023915879E+01 -5.410927900E+01  1.999246569E+02  1.250000000E+02  0.00000E+00  9.000E+00
       1     1     1     2   502     0  1.116240419E+02  1.438557672E+02 -1.198684571E+03  1.212435198E+03  1.525878906E-05  0.00000E+00  9.000E+00
#rwgt            2          12   1.4388842262578851E-003           1      495892           0
</event>
<event>
      5   9999  3.79277E-02  2.45758E+01 -1.00000E+00  1.59310E-01
      21    -1     0     0   502   501  0.000000000E+00  0.000000000E+00  5.126885395E+02  5.126885395E+02  0.000000000E+00  0.00000E+00  9.000E+00
      21    -1     0     0   511   502  0.000000000E+00  0.000000000E+00 -1.823840111E+02  1.823840111E+02  0.000000000E+00  0.00000E+00  9.000E+00
      25     1     1     2     0     0 -1.304335103E+02  3.736082834E+01  4.209734468E+02  4.596219914E+02  1.250000000E+02  0.00000E+00  9.000E+00
      25     1     1     2     0     0  1.060033083E+02 -4.003210243E+01 -3.183602247E+01  1.716910101E+02  1.250000000E+02  0.00000E+00  9.000E+00
      21     1     1     2   511   501  2.443020192E+01  2.671274086E+00 -5.883289586E+01  6.375954914E+01  9.536743164E-07  0.00000E+00  9.000E+00
#rwgt            1           1   5.1751370559586833E-002           1      495941           0
</event>
<event>
      5   9999  3.79277E-02  1.60566E+02 -1.00000E+00  1.15234E-01
      21    -1     0     0   502   512  0.000000000E+00  0.000000000E+00  1.392531735E+02  1.392531735E+02  0.000000000E+00  0.00000E+00  9.000E+00
      21    -1     0     0   501   502  0.000000000E+00  0.000000000E+00 -7.655139932E+02  7.655139932E+02  0.000000000E+00  0.00000E+00  9.000E+00
      25     1     1     2     0     0  1.069234384E+02  9.294981400E+01 -2.291811250E+02  2.970206687E+02  1.250000000E+02  0.00000E+00  9.000E+00
      25     1     1     2     0     0 -7.772641699E+00 -2.192453687E+02 -3.652934233E+02  4.440644444E+02  1.250000000E+02  0.00000E+00  9.000E+00
      21     1     1     2   501   512 -9.915079670E+01  1.262955547E+02 -3.178627144E+01  1.636820536E+02  2.523185073E-06  0.00000E+00  9.000E+00
#rwgt            1           1   4.0043391773610409E-002           1      496143           0
</event>
<event>
      5   9999  3.79277E-02  2.87973E+02 -1.00000E+00  1.06173E-01
       2    -1     0     0   502     0  0.000000000E+00  0.000000000E+00  1.050814364E+03  1.050814364E+03  0.000000000E+00  0.00000E+00  9.000E+00
      21    -1     0     0   501   502  0.000000000E+00  0.000000000E+00 -3.940706235E+02  3.940706235E+02  0.000000000E+00  0.00000E+00  9.000E+00
      25     1     1     2     0     0 -3.120553738E+02 -6.912210535E+01 -2.353312943E+02  4.161276725E+02  1.250000000E+02  0.00000E+00  9.000E+00
      25     1     1     2     0     0  4.450347153E+01  1.756311200E+02  3.215525536E+02  3.896766532E+02  1.250000000E+02  0.00000E+00  9.000E+00
       2     1     1     2   501     0  2.675519023E+02 -1.065090147E+02  5.705224810E+02  6.390806615E+02  7.629394531E-06  0.00000E+00  9.000E+00
#rwgt            2          18   4.0507602409568864E-004           1      496202           0
</event>
<event>
      5   9999  5.24534E-02  2.59419E+01 -1.00000E+00  1.57557E-01
      21    -1     0     0   502   501  0.000000000E+00  0.000000000E+00  2.269350131E+01  2.269350131E+01  0.000000000E+00  0.00000E+00  9.000E+00
       2    -1     0     0   501     0  0.000000000E+00  0.000000000E+00 -2.359246327E+03  2.359246327E+03  0.000000000E+00  0.00000E+00  9.000E+00
      25     1     1     2     0     0 -4.148725237E+01 -5.663043958E+01 -1.584209441E+03  1.590683108E+03  1.250000000E+02  0.00000E+00  9.000E+00
      25     1     1     2     0     0  6.742122550E+01  5.598886911E+01 -2.860093111E+02  3.242016365E+02  1.250000000E+02  0.00000E+00  9.000E+00
       2     1     1     2   502     0 -2.593397313E+01  6.415704719E-01 -4.663340738E+02  4.670550835E+02  7.629394531E-06  0.00000E+00  9.000E+00
#rwgt            1           1  0.28112533486896807                1      496236           0
</event>
<event>
      5   9999  3.79277E-02  1.92579E+01 -1.00000E+00  1.67735E-01
      21    -1     0     0   511   501  0.000000000E+00  0.000000000E+00  1.653411681E+03  1.653411681E+03  0.000000000E+00  0.00000E+00  9.000E+00
      21    -1     0     0   501   502  0.000000000E+00  0.000000000E+00 -4.646975723E+02  4.646975723E+02  0.000000000E+00  0.00000E+00  9.000E+00
      25     1     1     2     0     0  1.645173010E+02  5.395693656E+01 -2.859135500E+02  3.568597083E+02  1.250000000E+02  0.00000E+00  9.000E+00
      25     1     1     2     0     0 -1.830288411E+02 -5.926644870E+01 -5.138805962E+01  2.351123164E+02  1.250000000E+02  0.00000E+00  9.000E+00
      21     1     1     2   511   502  1.851154014E+01  5.309512134E+00  1.526015718E+03  1.526137228E+03  3.051757812E-05  0.00000E+00  9.000E+00
#rwgt            1           1   3.8171613730776231E-002           1      496369           0
</event>
<event>
      5   9999  3.79277E-02  1.64764E+01 -1.00000E+00  1.73627E-01
      21    -1     0     0   502   501  0.000000000E+00  0.000000000E+00  2.729268217E+02  2.729268217E+02  0.000000000E+00  0.00000E+00  9.000E+00
       3    -1     0     0   501     0  0.000000000E+00  0.000000000E+00 -3.639414110E+02  3.639414110E+02  0.000000000E+00  0.00000E+00  9.000E+00
      25     1     1     2     0     0 -5.372777574E+01  7.898490259E+01  3.703781977E+01  1.616232929E+02  1.250000000E+02  0.00000E+00  9.000E+00
      25     1     1     2     0     0  6.874793018E+01 -7.221241627E+01  1.364674397E+02  2.102124474E+02  1.250000000E+02  0.00000E+00  9.000E+00
       3     1     1     2   502     0 -1.502015444E+01 -6.772486318E+00 -2.645198488E+02  2.650324923E+02  0.000000000E+00  0.00000E+00  9.000E+00
#rwgt            1           1   3.4012726582696641E-002           1      496586           0
</event>
<event>
      5   9999  3.79277E-02  4.71414E+01 -1.00000E+00  1.40550E-01
      21    -1     0     0   502   501  0.000000000E+00  0.000000000E+00  1.651468671E+02  1.651468671E+02  0.000000000E+00  0.00000E+00  9.000E+00
      21    -1     0     0   501   511  0.000000000E+00  0.000000000E+00 -3.577689713E+02  3.577689713E+02  0.000000000E+00  0.00000E+00  9.000E+00
      25     1     1     2     0     0  1.035044279E+02 -4.049444872E+01 -2.042775283E+02  2.640213543E+02  1.250000000E+02  0.00000E+00  9.000E+00
      25     1     1     2     0     0 -1.505188499E+02  3.703660870E+01  4.108102011E+01  2.033231044E+02  1.250000000E+02  0.00000E+00  9.000E+00
      21     1     1     2   502   511  4.701442205E+01  3.457840022E+00 -2.942559608E+01  5.557137971E+01  4.768371582E-07  0.00000E+00  9.000E+00
#rwgt            1           1   4.3207774457676047E-002           1      496770           0
</event>
<event>
      5   9999  3.79277E-02  7.73042E+01 -1.00000E+00  1.29074E-01
      21    -1     0     0   502   512  0.000000000E+00  0.000000000E+00  1.073687823E+02  1.073687823E+02  0.000000000E+00  0.00000E+00  9.000E+00
      21    -1     0     0   501   502  0.000000000E+00  0.000000000E+00 -1.625555659E+03  1.625555659E+03  0.000000000E+00  0.00000E+00  9.000E+00
      25     1     1     2     0     0 -5.847556588E+01 -1.628888679E+02 -1.285140423E+03  1.302752119E+03  1.250000000E+02  0.00000E+00  9.000E+00
      25     1     1     2     0     0  6.818521671E+01  8.619688541E+01 -2.898507451E+02  3.342418006E+02  1.250000000E+02  0.00000E+00  9.000E+00
      21     1     1     2   501   512 -9.709650821E+00  7.669198253E+01  5.680429176E+01  9.593052207E+01  2.132480600E-06  0.00000E+00  9.000E+00
#rwgt            1           1   3.6430093510570485E-002           1      496945           0
</event>
<event>
      5   9999  3.79277E-02  6.43163E+01 -1.00000E+00  1.33111E-01
      21    -1     0     0   502   501  0.000000000E+00  0.000000000E+00  3.876342309E+02  3.876342309E+02  0.000000000E+00  0.00000E+00  9.000E+00
      21    -1     0     0   501   511  0.000000000E+00  0.000000000E+00 -5.885497885E+02  5.885497885E+02  0.000000000E+00  0.00000E+00  9.000E+00
      25     1     1     2     0     0 -1.606535165E+02 -5.949733137E+01 -3.880647586E+01  2.155931988E+02  1.250000000E+02  0.00000E+00  9.000E+00
      25     1     1     2     0     0  9.974072264E+01  3.885214675E+01  2.740768388E+02  3.196886214E+02  1.250000000E+02  0.00000E+00  9.000E+00
      21     1     1     2   502   511  6.091279384E+01  2.064518462E+01 -4.361859205E+02  4.409021993E+02  0.000000000E+00  0.00000E+00  9.000E+00
#rwgt            1           1   2.1334973295865870E-002           1      497028           0
</event>
<event>
      5   9999  3.79277E-02  3.29954E+01 -1.00000E+00  1.50223E-01
      21    -1     0     0   502   512  0.000000000E+00  0.000000000E+00  5.250042966E+02  5.250042966E+02  0.000000000E+00  0.00000E+00  9.000E+00
      21    -1     0     0   501   502  0.000000000E+00  0.000000000E+00 -1.656223660E+02  1.656223660E+02  0.000000000E+00  0.00000E+00  9.000E+00
      25     1     1     2     0     0 -1.159848217E+02 -1.326968399E+02 -3.611953521E+01  2.190674577E+02  1.250000000E+02  0.00000E+00  9.000E+00
      25     1     1     2     0     0  9.782673586E+01  1.051472913E+02  2.113045169E+02  2.844303464E+02  1.250000000E+02  0.00000E+00  9.000E+00
      21     1     1     2   501   512  1.815808586E+01  2.754954860E+01  1.841969489E+02  1.871288586E+02  0.000000000E+00  0.00000E+00  9.000E+00
#rwgt            1           1   5.0111667385641601E-002           1      497266           0
</event>
<event>
      5   9999  3.79277E-02  2.55675E+01 -1.00000E+00  1.58024E-01
      21    -1     0     0   502   511  0.000000000E+00  0.000000000E+00  2.276457967E+03  2.276457967E+03  0.000000000E+00  0.00000E+00  9.000E+00
      21    -1     0     0   501   502  0.000000000E+00  0.000000000E+00 -2.000610327E+01  2.000610327E+01  0.000000000E+00  0.00000E+00  9.000E+00
      25     1     1     2     0     0  6.691118602E+01 -1.318103141E+02  8.043833549E+02  8.273503776E+02  1.250000000E+02  0.00000E+00  9.000E+00
      25     1     1     2     0     0 -8.463465041E+01  1.133826708E+02  1.097132059E+03  1.113257566E+03  1.250000000E+02  0.00000E+00  9.000E+00
      21     1     1     2   501   511  1.772346438E+01  1.842764331E+01  3.549364499E+02  3.558561264E+02  5.394796609E-06  0.00000E+00  9.000E+00
#rwgt            1           1   7.7376459084663771E-002           1      497467           0
</event>
<event>
      5   9999  3.79277E-02  5.36906E+01 -1.00000E+00  1.37334E-01
      21    -1     0     0   502   501  0.000000000E+00  0.000000000E+00  1.581368146E+02  1.581368146E+02  0.000000000E+00  0.00000E+00  9.000E+00
       2    -1     0     0   501     0  0.000000000E+00  0.000000000E+00 -1.505116074E+03  1.505116074E+03  0.000000000E+00  0.00000E+00  9.000E+00
      25     1     1     2     0     0 -1.992521146E+02  3.337297069E+01 -6.127126153E+02  6.571582072E+02  1.250000000E+02  0.00000E+00  9.000E+00
      25     1     1     2     0     0  1.604476208E+02 -7.047939218E+01  4.918519525E+01  2.208052698E+02  1.250000000E+02  0.00000E+00  9.000E+00
       2     1     1     2   502     0  3.880449378E+01  3.710642149E+01 -7.834518396E+02  7.852894117E+02  1.078959322E-05  0.00000E+00  9.000E+00
#rwgt            1           1   2.9287866216402544E-002           1      497773           0
</event>
<event>
      5   9999  3.79277E-02  5.78902E+01 -1.00000E+00  1.35539E-01
      21    -1     0     0   502   501  0.000000000E+00  0.000000000E+00  1.935882233E+02  1.935882233E+02  0.000000000E+00  0.00000E+00  9.000E+00
      21    -1     0     0   511   502  0.000000000E+00  0.000000000E+00 -3.073638902E+02  3.073638902E+02  0.000000000E+00  0.00000E+00  9.000E+00
      25     1     1     2     0     0  4.761004565E+01 -1.237409600E+01  1.291522923E+02  1.863468521E+02  1.250000000E+02  0.00000E+00  9.000E+00
      25     1     1     2     0     0 -4.666482167E+01 -4.550841275E+01 -1.570929663E+02  2.110730235E+02  1.250000000E+02  0.00000E+00  9.000E+00
      21     1     1     2   511   501 -9.452239756E-01  5.788250875E+01 -8.583499290E+01  1.035322378E+02  1.651812370E-06  0.00000E+00  9.000E+00
#rwgt            1           1   5.0923471143975794E-002           1      497883           0
</event>
<event>
      5   9999  3.79277E-02  4.22924E+01 -1.00000E+00  1.43355E-01
      21    -1     0     0   512   501  0.000000000E+00  0.000000000E+00  1.164504632E+02  1.164504632E+02  0.000000000E+00  0.00000E+00  9.000E+00
      21    -1     0     0   501   502  0.000000000E+00  0.000000000E+00 -8.781742666E+02  8.781742666E+02  0.000000000E+00  0.00000E+00  9.000E+00
      25     1     1     2     0     0  3.694101965E+01 -5.426888454E+01 -1.683859814E+02  2.197466484E+02  1.250000000E+02  0.00000E+00  9.000E+00
      25     1     1     2     0     0 -2.810292082E+00  2.929411269E+01 -6.727550478E+02  6.849017426E+02  1.250000000E+02  0.00000E+00  9.000E+00
      21     1     1     2   512   502 -3.413072756E+01  2.497477185E+01  7.941722573E+01  8.997633875E+01  1.651812370E-06  0.00000E+00  9.000E+00
#rwgt            1           1   2.3124064773391850E-002           1      498020           0
</event>
<event>
      5   9999  3.79277E-02  1.02994E+01 -1.00000E+00  1.94287E-01
      21    -1     0     0   511   501  0.000000000E+00  0.000000000E+00  1.484176242E+03  1.484176242E+03  0.000000000E+00  0.00000E+00  9.000E+00
      21    -1     0     0   501   502  0.000000000E+00  0.000000000E+00 -2.815740977E+01  2.815740977E+01  0.000000000E+00  0.00000E+00  9.000E+00
      25     1     1     2     0     0  1.060680421E+02  7.900909643E+01  9.590114334E+02  9.761253998E+02  1.250000000E+02  0.00000E+00  9.000E+00
      25     1     1     2     0     0 -1.118100145E+02 -8.755942452E+01  4.512365659E+02  4.892929292E+02  1.250000000E+02  0.00000E+00  9.000E+00
      21     1     1     2   511   502  5.741972362E+00  8.550328086E+00  4.577083275E+01  4.691532252E+01  6.743495762E-07  0.00000E+00  9.000E+00
#rwgt            1           1   4.5935877328456137E-002           1      498148           0
</event>
<event>
      5   9999  3.79277E-02  9.31237E+01 -1.00000E+00  1.25236E-01
      21    -1     0     0   502   501  0.000000000E+00  0.000000000E+00  1.396251417E+02  1.396251417E+02  0.000000000E+00  0.00000E+00  9.000E+00
       1    -1     0     0   501     0  0.000000000E+00  0.000000000E+00 -6.771607333E+02  6.771607333E+02  0.000000000E+00  0.00000E+00  9.000E+00
      25     1     1     2     0     0  1.086711874E+02 -7.446477328E+01 -1.611797202E+02  2.428133679E+02  1.250000000E+02  0.00000E+00  9.000E+00
      25     1     1     2     0     0 -5.853794118E+01 -4.012479182E+00  4.282323211E+01  1.445739249E+02  1.250000000E+02  0.00000E+00  9.000E+00
       1     1     1     2   502     0 -5.013324626E+01  7.847725246E+01 -4.191791036E+02  4.293985822E+02  0.000000000E+00  0.00000E+00  9.000E+00
#rwgt            1           1   2.7643243316841048E-002           1      498380           0
</event>
<event>
      5   9999  3.79277E-02  1.84529E+02 -1.00000E+00  1.12936E-01
      21    -1     0     0   502   511  0.000000000E+00  0.000000000E+00  5.484253497E+02  5.484253497E+02  0.000000000E+00  0.00000E+00  9.000E+00
      21    -1     0     0   501   502  0.000000000E+00  0.000000000E+00 -1.794549965E+02  1.794549965E+02  0.000000000E+00  0.00000E+00  9.000E+00
      25     1     1     2     0     0 -1.265274775E+01 -1.566856797E+02  4.492046644E+00  2.008872140E+02  1.250000000E+02  0.00000E+00  9.000E+00
      25     1     1     2     0     0  1.055321733E+02 -2.764636266E+00  6.672741169E+01  1.766981333E+02  1.250000000E+02  0.00000E+00  9.000E+00
      21     1     1     2   501   511 -9.287942559E+01  1.594503160E+02  2.977508949E+02  3.502949990E+02  6.607249480E-06  0.00000E+00  9.000E+00
#rwgt            1           1   2.9925339971348500E-002           1      498507           0
</event>
<event>
      5   9999  3.79277E-02  3.37566E+01 -1.00000E+00  1.49564E-01
      21    -1     0     0   502   501  0.000000000E+00  0.000000000E+00  4.836968184E+02  4.836968184E+02  0.000000000E+00  0.00000E+00  9.000E+00
      21    -1     0     0   501   512  0.000000000E+00  0.000000000E+00 -1.904422835E+02  1.904422835E+02  0.000000000E+00  0.00000E+00  9.000E+00
      25     1     1     2     0     0  1.552005802E+02 -8.636967735E+01 -4.002354311E+01  2.208479686E+02  1.250000000E+02  0.00000E+00  9.000E+00
      25     1     1     2     0     0 -1.755568721E+02  1.132978924E+02  3.406712346E+02  4.187344240E+02  1.250000000E+02  0.00000E+00  9.000E+00
      21     1     1     2   502   512  2.035629191E+01 -2.692821507E+01 -7.393156575E+00  3.455670920E+01  7.907449699E-07  0.00000E+00  9.000E+00
#rwgt            1           1   3.0868942941971098E-002           1      498568           0
</event>
<event>
      5   9999  3.79277E-02  3.60411E+01 -1.00000E+00  1.47704E-01
      21    -1     0     0   502   501  0.000000000E+00  0.000000000E+00  1.387321220E+02  1.387321220E+02  0.000000000E+00  0.00000E+00  9.000E+00
      21    -1     0     0   511   502  0.000000000E+00  0.000000000E+00 -1.155334486E+03  1.155334486E+03  0.000000000E+00  0.00000E+00  9.000E+00
      25     1     1     2     0     0  3.083564968E+01 -1.513496880E+02  3.545715843E+01  2.018409657E+02  1.250000000E+02  0.00000E+00  9.000E+00
      25     1     1     2     0     0 -3.692019674E+01  1.158259046E+02 -3.680231439E+02  4.072404394E+02  1.250000000E+02  0.00000E+00  9.000E+00
      21     1     1     2   511   501  6.084547064E+00  3.552378339E+01 -6.840363790E+02  6.849852032E+02  7.629394531E-06  0.00000E+00  9.000E+00
#rwgt            1           1   3.4762471300488269E-002           1      498682           0
</event>
<event>
      5   9999  3.79277E-02  4.48738E+01 -1.00000E+00  1.41810E-01
      21    -1     0     0   502   501  0.000000000E+00  0.000000000E+00  1.463929978E+02  1.463929978E+02  0.000000000E+00  0.00000E+00  9.000E+00
       2    -1     0     0   501     0  0.000000000E+00  0.000000000E+00 -3.260984515E+02  3.260984515E+02  0.000000000E+00  0.00000E+00  9.000E+00
      25     1     1     2     0     0  4.759619551E+01  5.372448075E+01  6.978390208E+01  1.601452798E+02  1.250000000E+02  0.00000E+00  9.000E+00
      25     1     1     2     0     0 -6.688723969E+01 -1.320889439E+01 -2.004649063E+02  2.458852505E+02  1.250000000E+02  0.00000E+00  9.000E+00
       2     1     1     2   502     0  1.929104418E+01 -4.051558636E+01 -4.902444941E+01  6.646091907E+01  6.743495762E-07  0.00000E+00  9.000E+00
#rwgt            1           1   4.3784247629336186E-002           1      498945           0
</event>
<event>
      5   9999  3.79277E-02  3.55887E+00 -1.00000E+00  2.76031E-01
      21    -1     0     0   502   511  0.000000000E+00  0.000000000E+00  8.082847336E+01  8.082847336E+01  0.000000000E+00  0.00000E+00  9.000E+00
      21    -1     0     0   501   502  0.000000000E+00  0.000000000E+00 -2.570825868E+03  2.570825868E+03  0.000000000E+00  0.00000E+00  9.000E+00
      25     1     1     2     0     0  1.287326912E+02 -3.825263837E+01 -1.825335850E+03  1.834533002E+03  1.250000000E+02  0.00000E+00  9.000E+00
      25     1     1     2     0     0 -1.321218133E+02  3.716664683E+01 -7.292129185E+02  7.524719355E+02  1.250000000E+02  0.00000E+00  9.000E+00
      21     1     1     2   501   511  3.389122073E+00  1.085991541E+00  6.455137397E+01  6.464940377E+01  5.309833873E-06  0.00000E+00  9.000E+00
#rwgt            1           1   5.0256721043240582E-002           1      499046           0
</event>
<event>
      5   9999  3.79277E-02  2.79517E+01 -1.00000E+00  1.55204E-01
       2    -1     0     0   502     0  0.000000000E+00  0.000000000E+00  6.922148475E+01  6.922148475E+01  0.000000000E+00  0.00000E+00  9.000E+00
      21    -1     0     0   501   502  0.000000000E+00  0.000000000E+00 -9.138957724E+02  9.138957724E+02  0.000000000E+00  0.00000E+00  9.000E+00
      25     1     1     2     0     0 -2.440773774E+01 -5.936317178E+00 -7.462520649E+02  7.570654674E+02  1.250000000E+02  0.00000E+00  9.000E+00
      25     1     1     2     0     0  3.555209673E+01 -1.969768403E+01 -1.293160143E+02  1.843897554E+02  1.250000000E+02  0.00000E+00  9.000E+00
       2     1     1     2   501     0 -1.114435899E+01  2.563400121E+01  3.089379152E+01  4.166203439E+01  1.118282261E-06  0.00000E+00  9.000E+00
#rwgt            1           1   4.7853011972946780E-002           1      499428           0
</event>
<event>
      5   9999  3.79277E-02  5.32937E+01 -1.00000E+00  1.37513E-01
      21    -1     0     0   502   501  0.000000000E+00  0.000000000E+00  2.058129839E+02  2.058129839E+02  0.000000000E+00  0.00000E+00  9.000E+00
      21    -1     0     0   501   511  0.000000000E+00  0.000000000E+00 -7.114303144E+02  7.114303144E+02  0.000000000E+00  0.00000E+00  9.000E+00
      25     1     1     2     0     0 -9.523184815E+00  1.113382218E+02 -2.747056846E+01  1.699015092E+02  1.250000000E+02  0.00000E+00  9.000E+00
      25     1     1     2     0     0  3.732627239E+01 -1.568047819E+02  5.522098616E+01  2.113181193E+02  1.250000000E+02  0.00000E+00  9.000E+00
      21     1     1     2   502   511 -2.780308758E+01  4.546656010E+01 -5.333677482E+02  5.360236698E+02  0.000000000E+00  0.00000E+00  9.000E+00
#rwgt            1           1   2.9970448924366025E-002           1      499688           0
</event>
<event>
      5   9999  3.79277E-02  4.52187E+01 -1.00000E+00  1.41613E-01
      21    -1     0     0   502   501  0.000000000E+00  0.000000000E+00  1.221050043E+03  1.221050043E+03  0.000000000E+00  0.00000E+00  9.000E+00
      21    -1     0     0   512   502  0.000000000E+00  0.000000000E+00 -2.976619698E+02  2.976619698E+02  0.000000000E+00  0.00000E+00  9.000E+00
      25     1     1     2     0     0  2.489336400E+02 -9.294430529E-01  4.869086239E+02  5.609579565E+02  1.250000000E+02  0.00000E+00  9.000E+00
      25     1     1     2     0     0 -2.158905165E+02 -2.993942661E+01  6.722585683E+02  7.176779689E+02  1.250000000E+02  0.00000E+00  9.000E+00
      21     1     1     2   512   501 -3.304312342E+01  3.086886967E+01 -2.357791187E+02  2.400760878E+02  4.672030912E-06  0.00000E+00  9.000E+00
#rwgt            1           1   4.0588144404586003E-002           1      499816           0
</event>
<event>
      5   9999  3.79277E-02  1.01164E+02 -1.00000E+00  1.23602E-01
      21    -1     0     0   502   501  0.000000000E+00  0.000000000E+00  1.708451829E+02  1.708451829E+02  0.000000000E+00  0.00000E+00  9.000E+00
      -1    -1     0     0     0   502  0.000000000E+00  0.000000000E+00 -7.260812774E+02  7.260812774E+02  0.000000000E+00  0.00000E+00  9.000E+00
      25     1     1     2     0     0  8.402971299E+01  2.252390267E+02 -3.030746839E+01  2.726484081E+02  1.250000000E+02  0.00000E+00  9.000E+00
      25     1     1     2     0     0 -1.578249533E+00 -1.666223014E+02 -2.198354607E+02  3.028499826E+02  1.250000000E+02  0.00000E+00  9.000E+00
      -1     1     1     2     0   501 -8.245146346E+01 -5.861672534E+01 -3.050931655E+02  3.214280696E+02  5.394796609E-06  0.00000E+00  9.000E+00
#rwgt            2          10   3.7337280154684470E-005           1      499889           0
</event>
<event>
      5   9999  3.79277E-02  2.58277E+01 -1.00000E+00  1.57699E-01
      21    -1     0     0   502   501  0.000000000E+00  0.000000000E+00  3.084921738E+02  3.084921738E+02  0.000000000E+00  0.00000E+00  9.000E+00
       2    -1     0     0   501     0  0.000000000E+00  0.000000000E+00 -2.330896853E+03  2.330896853E+03  0.000000000E+00  0.00000E+00  9.000E+00
      25     1     1     2     0     0  1.245277256E+02  2.454404863E+02 -2.573860421E+01  3.033737999E+02  1.250000000E+02  0.00000E+00  9.000E+00
      25     1     1     2     0     0 -9.954496631E+01 -2.519929141E+02  3.834484317E+01  3.008404163E+02  1.250000000E+02  0.00000E+00  9.000E+00
       2     1     1     2   502     0 -2.498275928E+01  6.552427849E+00 -2.035010918E+03  2.035174810E+03  4.825252777E-05  0.00000E+00  9.000E+00
#rwgt            1           1   2.5677663676063833E-002           1      499998           0
</event>
<event>
      5   9999  3.79277E-02  9.28466E+01 -1.00000E+00  1.25295E-01
      21    -1     0     0   502   501  0.000000000E+00  0.000000000E+00  6.092382042E+02  6.092382042E+02  0.000000000E+00  0.00000E+00  9.000E+00
      21    -1     0     0   501   511  0.000000000E+00  0.000000000E+00 -1.205443394E+02  1.205443394E+02  0.000000000E+00  0.00000E+00  9.000E+00
      25     1     1     2     0     0  8.545795092E+01  1.458568817E+02  2.589138736E+02  3.335246397E+02  1.250000000E+02  0.00000E+00  9.000E+00
      25     1     1     2     0     0 -3.974990436E+00 -1.903655306E+02  1.836284908E+02  2.925735094E+02  1.250000000E+02  0.00000E+00  9.000E+00
      21     1     1     2   502   511 -8.148296049E+01  4.450864884E+01  4.615150037E+01  1.036843945E+02  2.132480600E-06  0.00000E+00  9.000E+00
#rwgt            1           1   4.4214278218284928E-002           1      500120           0
</event>
<event>
      5   9999 -3.79277E-02  1.25408E+02 -1.00000E+00  1.19561E-01
      21    -1     0     0   502   501  0.000000000E+00  0.000000000E+00  1.716216710E+03  1.716216710E+03  0.000000000E+00  0.00000E+00  9.000E+00
      21    -1     0     0   512   502  0.000000000E+00  0.000000000E+00 -6.206462815E+01  6.206462815E+01  0.000000000E+00  0.00000E+00  9.000E+00
      25     1     1     2     0     0  1.596472813E+01 -7.028324361E+01  1.064761027E+03  1.074493207E+03  1.250000000E+02  0.00000E+00  9.000E+00
      25     1     1     2     0     0  7.201730306E+01  1.596499415E+02  5.145911477E+02  5.577666583E+02  1.250000000E+02  0.00000E+00  9.000E+00
      21     1     1     2   512   501 -8.798203119E+01 -8.936669792E+01  7.479990729E+01  1.460214732E+02  6.031565972E-06  0.00000E+00  9.000E+00
#rwgt            1           1  -8.9595962741084556E-002           1      500220           0
</event>
<event>
      5   9999 -3.79277E-02  3.95084E+01 -1.00000E+00  1.45174E-01
      21    -1     0     0   511   501  0.000000000E+00  0.000000000E+00  8.063583979E+02  8.063583979E+02  0.000000000E+00  0.00000E+00  9.000E+00
      21    -1     0     0   501   502  0.000000000E+00  0.000000000E+00 -2.376572303E+02  2.376572303E+02  0.000000000E+00  0.00000E+00  9.000E+00
      25     1     1     2     0     0 -2.245220577E+01  2.011369904E+02  7.719184018E+00  2.380016308E+02  1.250000000E+02  0.00000E+00  9.000E+00
      25     1     1     2     0     0  1.354984628E+00 -2.345409289E+02  2.320310293E+01  2.667858079E+02  1.250000000E+02  0.00000E+00  9.000E+00
      21     1     1     2   511   502  2.109722114E+01  3.340393856E+01  5.377788806E+02  5.392281895E+02  7.629394531E-06  0.00000E+00  9.000E+00
#rwgt            1           1 -0.21482052687691569                1      500543           0
</event>
<event>
      5   9999  3.79277E-02  6.95140E+01 -1.00000E+00  1.31374E-01
      21    -1     0     0   502   501  0.000000000E+00  0.000000000E+00  3.680526102E+02  3.680526102E+02  0.000000000E+00  0.00000E+00  9.000E+00
       3    -1     0     0   501     0  0.000000000E+00  0.000000000E+00 -2.860443093E+02  2.860443093E+02  0.000000000E+00  0.00000E+00  9.000E+00
      25     1     1     2     0     0  9.167632708E+01  4.173727657E+01  1.792508899E+02  2.406292392E+02  1.250000000E+02  0.00000E+00  9.000E+00
      25     1     1     2     0     0 -1.184602612E+02 -1.058841688E+02  8.432855204E+01  2.190447337E+02  1.250000000E+02  0.00000E+00  9.000E+00
       3     1     1     2   502     0  2.678393409E+01  6.414689218E+01 -1.815711411E+02  1.944229466E+02  2.697398305E-06  0.00000E+00  9.000E+00
#rwgt            1           1   4.5873091521858034E-002           1      500655           0
</event>
<event>
      5   9999  3.79277E-02  7.73322E+01 -1.00000E+00  1.29066E-01
      21    -1     0     0   502   501  0.000000000E+00  0.000000000E+00  7.563100242E+02  7.563100242E+02  0.000000000E+00  0.00000E+00  9.000E+00
       2    -1     0     0   501     0  0.000000000E+00  0.000000000E+00 -5.106719407E+02  5.106719407E+02  0.000000000E+00  0.00000E+00  9.000E+00
      25     1     1     2     0     0  2.177493730E+02  1.117403000E+02  6.013668521E+02  6.611866415E+02  1.250000000E+02  0.00000E+00  9.000E+00
      25     1     1     2     0     0 -1.949574121E+02 -1.856375140E+02 -6.352201621E+01  3.035287889E+02  1.250000000E+02  0.00000E+00  9.000E+00
       2     1     1     2   502     0 -2.279196087E+01  7.389721402E+01 -2.922067524E+02  3.022665344E+02  3.814697266E-06  0.00000E+00  9.000E+00
#rwgt            1           1   3.9541856099519504E-002           1      500908           0
</event>
<event>
      5   9999  3.79277E-02  1.88076E+01 -1.00000E+00  1.68602E-01
      21    -1     0     0   502   501  0.000000000E+00  0.000000000E+00  3.710354417E+01  3.710354417E+01  0.000000000E+00  0.00000E+00  9.000E+00
      21    -1     0     0   511   502  0.000000000E+00  0.000000000E+00 -1.347460938E+03  1.347460938E+03  0.000000000E+00  0.00000E+00  9.000E+00
      25     1     1     2     0     0  3.612347441E+01  1.388978100E+01 -1.048621421E+03  1.056754331E+03  1.250000000E+02  0.00000E+00  9.000E+00
      25     1     1     2     0     0 -4.459541981E+01  2.901666194E+00 -1.031513568E+02  1.681141682E+02  1.250000000E+02  0.00000E+00  9.000E+00
      21     1     1     2   511   501  8.471945402E+00 -1.679144720E+01 -1.585846165E+02  1.596959835E+02  3.303624740E-06  0.00000E+00  9.000E+00
#rwgt            1           1   5.0842372567441285E-002           1      501031           0
</event>
<event>
      5   9999  3.79277E-02  3.06148E+01 -1.00000E+00  1.52430E-01
      21    -1     0     0   512   501  0.000000000E+00  0.000000000E+00  3.433045135E+02  3.433045135E+02  0.000000000E+00  0.00000E+00  9.000E+00
      21    -1     0     0   501   502  0.000000000E+00  0.000000000E+00 -1.968939001E+02  1.968939001E+02  0.000000000E+00  0.00000E+00  9.000E+00
      25     1     1     2     0     0  9.704063067E+01  8.448721616E+01 -1.178252134E+02  2.146223535E+02  1.250000000E+02  0.00000E+00  9.000E+00
      25     1     1     2     0     0 -7.454723804E+01 -6.371920167E+01  2.104624534E+02  2.636984483E+02  1.250000000E+02  0.00000E+00  9.000E+00
      21     1     1     2   512   502 -2.249339263E+01 -2.076801449E+01  5.377337348E+01  6.187761173E+01  1.168007728E-06  0.00000E+00  9.000E+00
#rwgt            1           1   2.6743292947276200E-002           1      501326           0
</event>
<event>
      5   9999  3.79277E-02  6.93693E+01 -1.00000E+00  1.31420E-01
      21    -1     0     0   511   501  0.000000000E+00  0.000000000E+00  1.496047029E+03  1.496047029E+03  0.000000000E+00  0.00000E+00  9.000E+00
      21    -1     0     0   501   502  0.000000000E+00  0.000000000E+00 -8.558767769E+01  8.558767769E+01  0.000000000E+00  0.00000E+00  9.000E+00
      25     1     1     2     0     0  7.906788985E+01  1.052137449E+02  1.198475634E+02  2.175088545E+02  1.250000000E+02  0.00000E+00  9.000E+00
      25     1     1     2     0     0 -2.918733330E+01 -1.534219135E+02  2.453399147E+02  3.165546679E+02  1.250000000E+02  0.00000E+00  9.000E+00
      21     1     1     2   511   502 -4.988055655E+01  4.820816863E+01  1.045271873E+03  1.047571184E+03  0.000000000E+00  0.00000E+00  9.000E+00
#rwgt            1           1   3.7807509601966265E-002           1      501420           0
</event>
<event>
      5   9999  3.79277E-02  1.84984E+02 -1.00000E+00  1.12896E-01
      21    -1     0     0   512   501  0.000000000E+00  0.000000000E+00  7.453641993E+02  7.453641993E+02  0.000000000E+00  0.00000E+00  9.000E+00
      21    -1     0     0   501   502  0.000000000E+00  0.000000000E+00 -1.799054482E+02  1.799054482E+02  0.000000000E+00  0.00000E+00  9.000E+00
      25     1     1     2     0     0  1.150367471E+02 -7.698571367E+01  2.301163013E+02  2.962073014E+02  1.250000000E+02  0.00000E+00  9.000E+00
      25     1     1     2     0     0 -8.210759739E+01  2.590154496E+02  7.267545496E+01  3.077943833E+02  1.250000000E+02  0.00000E+00  9.000E+00
      21     1     1     2   512   502 -3.292914973E+01 -1.820297359E+02  2.626669949E+02  3.212679627E+02  0.000000000E+00  0.00000E+00  9.000E+00
#rwgt            2          11   1.9094803314078873E-003           1      501600           0
</event>
<event>
      5   9999  3.79277E-02  4.00785E+01 -1.00000E+00  1.44787E-01
      -1    -1     0     0     0   501  0.000000000E+00  0.000000000E+00  2.987533011E+03  2.987533011E+03  0.000000000E+00  0.00000E+00  9.000E+00
      21    -1     0     0   501   502  0.000000000E+00  0.000000000E+00 -4.837818522E+02  4.837818522E+02  0.000000000E+00  0.00000E+00  9.000E+00
      25     1     1     2     0     0 -9.836720866E+01 -2.954316016E+02  7.518546721E+01  3.438514119E+02  1.250000000E+02  0.00000E+00  9.000E+00
      25     1     1     2     0     0  5.863605198E+01  3.006964298E+02 -2.709423523E+02  4.276579098E+02  1.250000000E+02  0.00000E+00  9.000E+00
      -1     1     1     2     0   502  3.973115668E+01 -5.264828182E+00  2.699508044E+03  2.699805542E+03  3.051757812E-05  0.00000E+00  9.000E+00
#rwgt            1           1   2.8717640010307063E-002           1      501740           0
</event>
<event>
      5   9999  3.79277E-02  1.20680E+02 -1.00000E+00  1.20264E-01
      21    -1     0     0   511   501  0.000000000E+00  0.000000000E+00  1.307915357E+03  1.307915357E+03  0.000000000E+00  0.00000E+00  9.000E+00
      21    -1     0     0   501   502  0.000000000E+00  0.000000000E+00 -6.124037213E+02  6.124037213E+02  0.000000000E+00  0.00000E+00  9.000E+00
      25     1     1     2     0     0 -4.060049793E+01 -2.296099288E+01 -4.672550295E+02  4.859299025E+02  1.250000000E+02  0.00000E+00  9.000E+00
      25     1     1     2     0     0  1.577218702E+02  5.204992024E+01 -5.148766240E+01  2.141526603E+02  1.250000000E+02  0.00000E+00  9.000E+00
      21     1     1     2   511   502 -1.171213723E+02 -2.908892737E+01  1.214254327E+03  1.220236515E+03  2.157918644E-05  0.00000E+00  9.000E+00
#rwgt            1           1   3.6511422641817039E-002           1      502038           0
</event>
<event>
      5   9999  3.79277E-02  9.17600E+01 -1.00000E+00  1.25531E-01
      21    -1     0     0   502   512  0.000000000E+00  0.000000000E+00  4.400588182E+02  4.400588182E+02  0.000000000E+00  0.00000E+00  9.000E+00
      21    -1     0     0   501   502  0.000000000E+00  0.000000000E+00 -2.886015511E+02  2.886015511E+02  0.000000000E+00  0.00000E+00  9.000E+00
      25     1     1     2     0     0  8.030065537E+01  1.658257623E+01 -2.146933977E+02  2.616131344E+02  1.250000000E+02  0.00000E+00  9.000E+00
      25     1     1     2     0     0 -2.053803756E+00 -6.451296713E+01  3.454275338E+02  3.729763024E+02  1.250000000E+02  0.00000E+00  9.000E+00
      21     1     1     2   501   512 -7.824685161E+01  4.793039091E+01  2.072313097E+01  9.407093237E+01  5.331201500E-07  0.00000E+00  9.000E+00
#rwgt            1           1   4.6968963012578795E-002           1      502145           0
</event>
<event>
      5   9999  3.79277E-02  3.29000E+01 -1.00000E+00  1.50308E-01
      21    -1     0     0   502   501  0.000000000E+00  0.000000000E+00  2.104689102E+01  2.104689102E+01  0.000000000E+00  0.00000E+00  9.000E+00
       1    -1     0     0   501     0  0.000000000E+00  0.000000000E+00 -3.085493178E+03  3.085493178E+03  0.000000000E+00  0.00000E+00  9.000E+00
      25     1     1     2     0     0  6.893330376E+01 -4.283602554E+01 -7.741850873E+02  7.883998191E+02  1.250000000E+02  0.00000E+00  9.000E+00
      25     1     1     2     0     0 -9.062771670E+01  1.810212846E+01 -4.241703391E+02  4.517593902E+02  1.250000000E+02  0.00000E+00  9.000E+00
       1     1     1     2   502     0  2.169441294E+01  2.473389708E+01 -1.866090861E+03  1.866380860E+03  2.157918644E-05  0.00000E+00  9.000E+00
#rwgt            1           1   7.0263134601589325E-002           1      502322           0
</event>
<event>
      5   9999 -3.79277E-02  4.72359E+01 -1.00000E+00  1.40500E-01
      21    -1     0     0   502   511  0.000000000E+00  0.000000000E+00  1.211803956E+03  1.211803956E+03  0.000000000E+00  0.00000E+00  9.000E+00
      21    -1     0     0   501   502  0.000000000E+00  0.000000000E+00 -3.796860118E+01  3.796860118E+01  0.000000000E+00  0.00000E+00  9.000E+00
      25     1     1     2     0     0  2.842122093E+01 -1.307981967E+02  6.983403702E+02  7.219558204E+02  1.250000000E+02  0.00000E+00  9.000E+00
      25     1     1     2     0     0 -2.956554427E+01  8.357620882E+01  2.207403436E+02  2.687199349E+02  1.250000000E+02  0.00000E+00  9.000E+00
      21     1     1     2   501   511  1.144323344E+00  4.722198788E+01  2.547546410E+02  2.590968019E+02  2.697398305E-06  0.00000E+00  9.000E+00
#rwgt            1           1 -0.13073682835106412                1      502573           0
</event>
<event>
      5   9999  3.79277E-02  9.32142E+01 -1.00000E+00  1.25216E-01
      21    -1     0     0   502   501  0.000000000E+00  0.000000000E+00  8.340315858E+02  8.340315858E+02  0.000000000E+00  0.00000E+00  9.000E+00
      21    -1     0     0   512   502  0.000000000E+00  0.000000000E+00 -1.718390297E+02  1.718390297E+02  0.000000000E+00  0.00000E+00  9.000E+00
      25     1     1     2     0     0  6.556366465E+01 -1.129649811E+01  3.160745578E+01  1.450869955E+02  1.250000000E+02  0.00000E+00  9.000E+00
      25     1     1     2     0     0  1.956800626E+01 -2.667045684E+01  7.200590200E+02  7.315765253E+02  1.250000000E+02  0.00000E+00  9.000E+00
      21     1     1     2   512   501 -8.513167091E+01  3.796695495E+01 -8.947391962E+01  1.292070948E+02  2.697398305E-06  0.00000E+00  9.000E+00
#rwgt            1           1   4.0303136337569857E-002           1      502698           0
</event>
<event>
      5   9999  3.79277E-02  3.22840E+01 -1.00000E+00  1.50859E-01
      21    -1     0     0   502   511  0.000000000E+00  0.000000000E+00  6.215393292E+01  6.215393292E+01  0.000000000E+00  0.00000E+00  9.000E+00
      21    -1     0     0   501   502  0.000000000E+00  0.000000000E+00 -1.169761449E+03  1.169761449E+03  0.000000000E+00  0.00000E+00  9.000E+00
      25     1     1     2     0     0  1.037187170E+02  1.547611706E+02 -3.179194949E+02  3.891097498E+02  1.250000000E+02  0.00000E+00  9.000E+00
      25     1     1     2     0     0 -1.320403097E+02 -1.392645892E+02 -7.734913935E+02  8.066865594E+02  1.250000000E+02  0.00000E+00  9.000E+00
      21     1     1     2   501   511  2.832159268E+01 -1.549658145E+01 -1.619662724E+01  3.611907228E+01  4.129530925E-07  0.00000E+00  9.000E+00
#rwgt            1           1   2.5033960936534354E-002           1      502755           0
</event>
<event>
      5   9999  3.79277E-02  1.32542E+01 -1.00000E+00  1.82600E-01
      21    -1     0     0   502   512  0.000000000E+00  0.000000000E+00  2.093029588E+02  2.093029588E+02  0.000000000E+00  0.00000E+00  9.000E+00
      21    -1     0     0   501   502  0.000000000E+00  0.000000000E+00 -1.672195867E+02  1.672195867E+02  0.000000000E+00  0.00000E+00  9.000E+00
      25     1     1     2     0     0  7.206584198E+01 -9.445253115E+01  2.028638689E+01  1.736413076E+02  1.250000000E+02  0.00000E+00  9.000E+00
      25     1     1     2     0     0 -6.142790485E+01  1.023588083E+02 -5.072704372E+00  1.729203443E+02  1.250000000E+02  0.00000E+00  9.000E+00
      21     1     1     2   501   512 -1.063793713E+01 -7.906277144E+00  2.686968958E+01  2.996089356E+01  0.000000000E+00  0.00000E+00  9.000E+00
#rwgt            1           1   2.4586729457878091E-002           1      502870           0
</event>
<event>
      5   9999  3.79277E-02  1.52708E+02 -1.00000E+00  1.16086E-01
      21    -1     0     0   502   511  0.000000000E+00  0.000000000E+00  2.850325039E+02  2.850325039E+02  0.000000000E+00  0.00000E+00  9.000E+00
      21    -1     0     0   501   502  0.000000000E+00  0.000000000E+00 -4.379490441E+02  4.379490441E+02  0.000000000E+00  0.00000E+00  9.000E+00
      25     1     1     2     0     0 -1.447195228E+02 -3.861090168E+00 -2.220022810E+02  2.930335494E+02  1.250000000E+02  0.00000E+00  9.000E+00
      25     1     1     2     0     0  9.529212129E+01  1.483485865E+02 -6.608560494E+01  2.260092889E+02  1.250000000E+02  0.00000E+00  9.000E+00
      21     1     1     2   501   511  4.942740148E+01 -1.444874963E+02  1.351713458E+02  2.039387098E+02  3.814697266E-06  0.00000E+00  9.000E+00
#rwgt            1           1   3.6072529292136210E-002           1      503357           0
</event>
<event>
      5   9999  3.79277E-02  4.51843E+01 -1.00000E+00  1.41632E-01
      21    -1     0     0   502   512  0.000000000E+00  0.000000000E+00  1.084059951E+02  1.084059951E+02  0.000000000E+00  0.00000E+00  9.000E+00
      21    -1     0     0   501   502  0.000000000E+00  0.000000000E+00 -6.482283405E+02  6.482283405E+02  0.000000000E+00  0.00000E+00  9.000E+00
      25     1     1     2     0     0  1.298121425E+00  1.262190644E+01 -5.574039966E+02  5.713888457E+02  1.250000000E+02  0.00000E+00  9.000E+00
      25     1     1     2     0     0  4.384668384E+01 -1.073315867E+01  3.398190629E+01  1.371769016E+02  1.250000000E+02  0.00000E+00  9.000E+00
      21     1     1     2   501   512 -4.514480526E+01 -1.888747769E+00 -1.640025506E+01  4.806858825E+01  6.307962682E-07  0.00000E+00  9.000E+00
#rwgt            1           1   4.0765012928218845E-002           1      503402           0
</event>
<event>
      5   9999  3.79277E-02  1.80710E+01 -1.00000E+00  1.70087E-01
       2    -1     0     0   502     0  0.000000000E+00  0.000000000E+00  1.333850409E+03  1.333850409E+03  0.000000000E+00  0.00000E+00  9.000E+00
      21    -1     0     0   501   502  0.000000000E+00  0.000000000E+00 -1.873197850E+02  1.873197850E+02  0.000000000E+00  0.00000E+00  9.000E+00
      25     1     1     2     0     0 -1.242322521E+02 -1.551413662E+02  3.573306672E+01  2.374959958E+02  1.250000000E+02  0.00000E+00  9.000E+00
      25     1     1     2     0     0  1.419749210E+02  1.517123079E+02  8.385683998E+01  2.565744963E+02  1.250000000E+02  0.00000E+00  9.000E+00
       2     1     1     2   501     0 -1.774266886E+01  3.429058248E+00  1.026940717E+03  1.027099702E+03  0.000000000E+00  0.00000E+00  9.000E+00
#rwgt            1           1   3.5889161703740187E-002           1      503514           0
</event>
<event>
      5   9999  3.79277E-02  3.00717E+01 -1.00000E+00  1.52968E-01
      21    -1     0     0   502   501  0.000000000E+00  0.000000000E+00  5.268179507E+02  5.268179507E+02  0.000000000E+00  0.00000E+00  9.000E+00
      21    -1     0     0   501   511  0.000000000E+00  0.000000000E+00 -1.405910983E+02  1.405910983E+02  0.000000000E+00  0.00000E+00  9.000E+00
      25     1     1     2     0     0 -6.627693313E+01  1.929236800E+02  1.817037259E+02  3.004220734E+02  1.250000000E+02  0.00000E+00  9.000E+00
      25     1     1     2     0     0  8.356770911E+01 -2.175273124E+02  2.083741007E+02  3.366696593E+02  1.250000000E+02  0.00000E+00  9.000E+00
      21     1     1     2   502   511 -1.729077598E+01  2.460363246E+01 -3.850974282E+00  3.031731629E+01  4.420398764E-07  0.00000E+00  9.000E+00
#rwgt            1           1   3.9731188787205676E-002           1      503707           0
</event>
<event>
      5   9999  3.79277E-02  1.09977E+02 -1.00000E+00  1.21998E-01
      21    -1     0     0   502   501  0.000000000E+00  0.000000000E+00  7.207786240E+02  7.207786240E+02  0.000000000E+00  0.00000E+00  9.000E+00
      21    -1     0     0   512   502  0.000000000E+00  0.000000000E+00 -1.144860127E+02  1.144860127E+02  0.000000000E+00  0.00000E+00  9.000E+00
      25     1     1     2     0     0  4.446779201E+01 -1.761043585E+01  3.352867659E+01  1.379734907E+02  1.250000000E+02  0.00000E+00  9.000E+00
      25     1     1     2     0     0  5.747692410E+01  5.886754323E+01  5.678147094E+02  5.872031408E+02  1.250000000E+02  0.00000E+00  9.000E+00
      21     1     1     2   512   501 -1.019447161E+02 -4.125710738E+01  4.949225397E+00  1.100880052E+02  2.354194839E-06  0.00000E+00  9.000E+00
#rwgt            1           1   5.2500909589614862E-002           1      503962           0
</event>
<event>
      5   9999  3.79277E-02  9.40040E+00 -1.00000E+00  1.98913E-01
      21    -1     0     0   511   501  0.000000000E+00  0.000000000E+00  2.700632497E+02  2.700632497E+02  0.000000000E+00  0.00000E+00  9.000E+00
      21    -1     0     0   501   502  0.000000000E+00  0.000000000E+00 -1.455432723E+02  1.455432723E+02  0.000000000E+00  0.00000E+00  9.000E+00
      25     1     1     2     0     0  1.797180087E+01 -6.191817670E-02  1.168890048E+02  1.720785545E+02  1.250000000E+02  0.00000E+00  9.000E+00
      25     1     1     2     0     0 -9.281154884E+00  3.645242247E+00 -8.431197441E+01  1.511057135E+02  1.250000000E+02  0.00000E+00  9.000E+00
      21     1     1     2   511   502 -8.690645981E+00 -3.583324070E+00  9.194294695E+01  9.242225399E+01  0.000000000E+00  0.00000E+00  9.000E+00
#rwgt            1           1   3.6818716307750410E-002           1      504025           0
</event>
<event>
      5   9999  3.79277E-02  7.61428E+01 -1.00000E+00  1.29397E-01
      21    -1     0     0   502   501  0.000000000E+00  0.000000000E+00  2.446759961E+02  2.446759961E+02  0.000000000E+00  0.00000E+00  9.000E+00
      21    -1     0     0   501   512  0.000000000E+00  0.000000000E+00 -6.891099443E+02  6.891099443E+02  0.000000000E+00  0.00000E+00  9.000E+00
      25     1     1     2     0     0  2.511390525E+02  1.013102503E+02 -3.644511879E+02  4.709397614E+02  1.250000000E+02  0.00000E+00  9.000E+00
      25     1     1     2     0     0 -2.507825237E+02 -1.774522416E+02  2.561487491E+01  3.326594265E+02  1.250000000E+02  0.00000E+00  9.000E+00
      21     1     1     2   502   512 -3.565287686E-01  7.614199134E+01 -1.055976352E+02  1.301867525E+02  1.907348633E-06  0.00000E+00  9.000E+00
#rwgt            1           1   4.7458289603923114E-002           1      504269           0
</event>
<event>
      5   9999  3.79277E-02  2.36891E+01 -1.00000E+00  1.60523E-01
      21    -1     0     0   502   501  0.000000000E+00  0.000000000E+00  2.904779266E+02  2.904779266E+02  0.000000000E+00  0.00000E+00  9.000E+00
      21    -1     0     0   511   502  0.000000000E+00  0.000000000E+00 -1.587732552E+03  1.587732552E+03  0.000000000E+00  0.00000E+00  9.000E+00
      25     1     1     2     0     0 -6.468281217E+01 -1.717921959E+02 -3.615046656E+01  2.250072910E+02  1.250000000E+02  0.00000E+00  9.000E+00
      25     1     1     2     0     0  8.218609738E+01  1.558295334E+02  1.364153196E+02  2.554829495E+02  1.250000000E+02  0.00000E+00  9.000E+00
      21     1     1     2   511   501 -1.750328521E+01  1.596266251E+01 -1.397519478E+03  1.397720238E+03  0.000000000E+00  0.00000E+00  9.000E+00
#rwgt            1           1   3.1002243910267704E-002           1      504421           0
</event>
<event>
      5   9999  3.79277E-02  7.09578E+01 -1.00000E+00  1.30922E-01
      21    -1     0     0   502   512  0.000000000E+00  0.000000000E+00  1.497240846E+03  1.497240846E+03  0.000000000E+00  0.00000E+00  9.000E+00
      21    -1     0     0   501   502  0.000000000E+00  0.000000000E+00 -1.582871846E+02  1.582871846E+02  0.000000000E+00  0.00000E+00  9.000E+00
      25     1     1     2     0     0  1.882840971E+02  1.962847521E+02  4.890437356E+01  3.033071757E+02  1.250000000E+02  0.00000E+00  9.000E+00
      25     1     1     2     0     0 -2.545294537E+02 -1.708570382E+02  9.897062919E+02  1.043609560E+03  1.250000000E+02  0.00000E+00  9.000E+00
      21     1     1     2   501   512  6.624535663E+01 -2.542771389E+01  3.003429963E+02  3.086112949E+02  6.607249480E-06  0.00000E+00  9.000E+00
#rwgt            1           1   2.2521916965350348E-002           1      504602           0
</event>
<event>
      5   9999  3.79277E-02  3.74780E+01 -1.00000E+00  1.46616E-01
       2    -1     0     0   502     0  0.000000000E+00  0.000000000E+00  4.516972178E+03  4.516972178E+03  0.000000000E+00  0.00000E+00  9.000E+00
      21    -1     0     0   501   502  0.000000000E+00  0.000000000E+00 -3.301032753E+01  3.301032753E+01  0.000000000E+00  0.00000E+00  9.000E+00
      25     1     1     2     0     0 -2.919135580E+01 -1.589633356E+02  6.319218904E+02  6.641323309E+02  1.250000000E+02  0.00000E+00  9.000E+00
      25     1     1     2     0     0  4.659494240E+00  1.872968452E+02  7.384157072E+02  7.720003729E+02  1.250000000E+02  0.00000E+00  9.000E+00
       2     1     1     2   501     0  2.453186156E+01 -2.833350958E+01  3.113624253E+03  3.113849802E+03  4.315837288E-05  0.00000E+00  9.000E+00
#rwgt            1           1   5.9011547731276856E-002           1      504808           0
</event>
<event>
      5   9999  3.79277E-02  4.53911E+01 -1.00000E+00  1.41515E-01
      21    -1     0     0   502   501  0.000000000E+00  0.000000000E+00  5.624863198E+01  5.624863198E+01  0.000000000E+00  0.00000E+00  9.000E+00
       2    -1     0     0   501     0  0.000000000E+00  0.000000000E+00 -4.231932802E+03  4.231932802E+03  0.000000000E+00  0.00000E+00  9.000E+00
      25     1     1     2     0     0  5.587731759E+01  9.835064571E+01 -1.284277838E+02  2.119288083E+02  1.250000000E+02  0.00000E+00  9.000E+00
      25     1     1     2     0     0 -1.012680093E+02 -9.854692222E+01 -6.057828528E+02  6.344797635E+02  1.250000000E+02  0.00000E+00  9.000E+00
       2     1     1     2   502     0  4.539069172E+01  1.962765087E-01 -3.441473534E+03  3.441772862E+03  4.315837288E-05  0.00000E+00  9.000E+00
#rwgt            1           1   4.0900476648821710E-002           1      504877           0
</event>
<event>
      5   9999  3.79277E-02  3.81556E+01 -1.00000E+00  1.46123E-01
      21    -1     0     0   502   511  0.000000000E+00  0.000000000E+00  5.913947094E+02  5.913947094E+02  0.000000000E+00  0.00000E+00  9.000E+00
      21    -1     0     0   501   502  0.000000000E+00  0.000000000E+00 -8.228808559E+01  8.228808559E+01  0.000000000E+00  0.00000E+00  9.000E+00
      25     1     1     2     0     0  1.482204459E+02  6.669270898E+01  3.244448541E+02  3.838055254E+02  1.250000000E+02  0.00000E+00  9.000E+00
      25     1     1     2     0     0 -1.101870173E+02 -6.974343248E+01  1.273131427E+02  2.209953878E+02  1.250000000E+02  0.00000E+00  9.000E+00
      21     1     1     2   501   511 -3.803342858E+01  3.050723496E+00  5.734862700E+01  6.888188167E+01  6.743495762E-07  0.00000E+00  9.000E+00
#rwgt            1           1   3.8901658633797742E-002           1      504986           0
</event>
<event>
      5   9999  3.79277E-02  5.80093E+01 -1.00000E+00  1.35491E-01
      21    -1     0     0   502   501  0.000000000E+00  0.000000000E+00  5.537740238E+02  5.537740238E+02  0.000000000E+00  0.00000E+00  9.000E+00
      21    -1     0     0   512   502  0.000000000E+00  0.000000000E+00 -1.659695212E+02  1.659695212E+02  0.000000000E+00  0.00000E+00  9.000E+00
      25     1     1     2     0     0  1.081985457E+02  8.501661827E+01  4.552220822E+02  4.917183084E+02  1.250000000E+02  0.00000E+00  9.000E+00
      25     1     1     2     0     0 -5.088866310E+01 -7.603571775E+01 -6.993412627E+01  1.699613733E+02  1.250000000E+02  0.00000E+00  9.000E+00
      21     1     1     2   512   501 -5.730988258E+01 -8.980900515E+00  2.516546615E+00  5.806386330E+01  4.833124501E-07  0.00000E+00  9.000E+00
#rwgt            1           1   4.8055930263590237E-002           1      505158           0
</event>
<event>
      5   9999  3.79277E-02  2.20865E+01 -1.00000E+00  1.62890E-01
      21    -1     0     0   502   501  0.000000000E+00  0.000000000E+00  2.664649672E+01  2.664649672E+01  0.000000000E+00  0.00000E+00  9.000E+00
      21    -1     0     0   501   511  0.000000000E+00  0.000000000E+00 -2.168158800E+03  2.168158800E+03  0.000000000E+00  0.00000E+00  9.000E+00
      25     1     1     2     0     0 -1.489633969E+02  1.442720863E+01 -4.617518905E+02  5.012365173E+02  1.250000000E+02  0.00000E+00  9.000E+00
      25     1     1     2     0     0  1.409121173E+02  6.139574478E+00 -1.353020825E+03  1.366083553E+03  1.250000000E+02  0.00000E+00  9.000E+00
      21     1     1     2   502   511  8.051279574E+00 -2.056678311E+01 -3.267395872E+02  3.274852265E+02  6.607249480E-06  0.00000E+00  9.000E+00
#rwgt            1           1   2.6478506992711644E-002           1      505332           0
</event>
<event>
      5   9999  3.79277E-02  3.93997E+01 -1.00000E+00  1.45249E-01
      21    -1     0     0   512   501  0.000000000E+00  0.000000000E+00  3.824572961E+02  3.824572961E+02  0.000000000E+00  0.00000E+00  9.000E+00
      21    -1     0     0   501   502  0.000000000E+00  0.000000000E+00 -1.099733593E+03  1.099733593E+03  0.000000000E+00  0.00000E+00  9.000E+00
      25     1     1     2     0     0 -7.897974534E+01 -4.156094533E+02 -4.528268965E+02  6.321757794E+02  1.250000000E+02  0.00000E+00  9.000E+00
      25     1     1     2     0     0  9.157099491E+01  3.782758822E+02 -4.802377658E+02  6.306593390E+02  1.250000000E+02  0.00000E+00  9.000E+00
      21     1     1     2   512   502 -1.259124958E+01  3.733357110E+01  2.157883659E+02  2.193557703E+02  3.814697266E-06  0.00000E+00  9.000E+00
#rwgt            1           1  0.24857841195157931                1      505599           0
</event>
<event>
      5   9999  3.79277E-02  4.82498E+01 -1.00000E+00  1.39964E-01
      21    -1     0     0   502   501  0.000000000E+00  0.000000000E+00  3.966806053E+02  3.966806053E+02  0.000000000E+00  0.00000E+00  9.000E+00
       2    -1     0     0   501     0  0.000000000E+00  0.000000000E+00 -1.439266853E+02  1.439266853E+02  0.000000000E+00  0.00000E+00  9.000E+00
      25     1     1     2     0     0  1.317331630E+02  3.596917664E+01  1.790441991E+02  2.575446236E+02  1.250000000E+02  0.00000E+00  9.000E+00
      25     1     1     2     0     0 -1.014371949E+02  1.583459370E+00  1.314355321E+02  2.078275991E+02  1.250000000E+02  0.00000E+00  9.000E+00
       2     1     1     2   502     0 -3.029596812E+01 -3.755263601E+01 -5.772581131E+01  7.523506794E+01  9.536743164E-07  0.00000E+00  9.000E+00
#rwgt            1           1   2.6566892039640844E-002           1      505772           0
</event>
<event>
      5   9999  3.79277E-02  6.10664E+01 -1.00000E+00  1.34296E-01
      21    -1     0     0   511   501  0.000000000E+00  0.000000000E+00  5.126329774E+02  5.126329774E+02  0.000000000E+00  0.00000E+00  9.000E+00
      21    -1     0     0   501   502  0.000000000E+00  0.000000000E+00 -3.246584606E+02  3.246584606E+02  0.000000000E+00  0.00000E+00  9.000E+00
      25     1     1     2     0     0 -2.204796485E+02 -3.911161299E+01  8.343734857E+01  2.696808944E+02  1.250000000E+02  0.00000E+00  9.000E+00
      25     1     1     2     0     0  1.598751291E+02  3.161535613E+01 -1.821305869E+02  2.745107253E+02  1.250000000E+02  0.00000E+00  9.000E+00
      21     1     1     2   511   502  6.060451941E+01  7.496256854E+00  2.866677551E+02  2.930998183E+02  0.000000000E+00  0.00000E+00  9.000E+00
#rwgt            1           1   3.1384927505554230E-002           1      505842           0
</event>
<event>
      5   9999 -3.79277E-02  2.78449E+01 -1.00000E+00  1.55323E-01
      21    -1     0     0   502   501  0.000000000E+00  0.000000000E+00  1.454366689E+02  1.454366689E+02  0.000000000E+00  0.00000E+00  9.000E+00
      21    -1     0     0   501   512  0.000000000E+00  0.000000000E+00 -9.825354824E+02  9.825354824E+02  0.000000000E+00  0.00000E+00  9.000E+00
      25     1     1     2     0     0 -2.648282806E+02  4.156275630E+01 -4.231486190E+02  5.162763162E+02  1.250000000E+02  0.00000E+00  9.000E+00
      25     1     1     2     0     0  2.735035022E+02 -1.510370962E+01 -1.326463604E+02  3.290172407E+02  1.250000000E+02  0.00000E+00  9.000E+00
      21     1     1     2   502   512 -8.675221609E+00 -2.645904668E+01 -2.813038341E+02  2.826785943E+02  3.814697266E-06  0.00000E+00  9.000E+00
#rwgt            1           1 -0.12644892817198325                1      505946           0
</event>
<event>
      5   9999  3.79277E-02  1.46453E+02 -1.00000E+00  1.16807E-01
      21    -1     0     0   502   501  0.000000000E+00  0.000000000E+00  1.211945640E+03  1.211945640E+03  0.000000000E+00  0.00000E+00  9.000E+00
      21    -1     0     0   511   502  0.000000000E+00  0.000000000E+00 -4.104749640E+02  4.104749640E+02  0.000000000E+00  0.00000E+00  9.000E+00
      25     1     1     2     0     0  2.693367045E+02 -3.906592778E+02  3.428575157E+02  5.986093950E+02  1.250000000E+02  0.00000E+00  9.000E+00
      25     1     1     2     0     0 -1.384640823E+02  4.563918324E+02  6.289524256E+02  7.991695442E+02  1.250000000E+02  0.00000E+00  9.000E+00
      21     1     1     2   511   501 -1.308726223E+02 -6.573255456E+01 -1.703392656E+02  2.246416644E+02  3.303624740E-06  0.00000E+00  9.000E+00
#rwgt            1           1  0.20366995008512140                1      506119           0
</event>
<event>
      5   9999  3.79277E-02  1.11348E+02 -1.00000E+00  1.21764E-01
      21    -1     0     0   502   512  0.000000000E+00  0.000000000E+00  1.375687153E+02  1.375687153E+02  0.000000000E+00  0.00000E+00  9.000E+00
      21    -1     0     0   501   502  0.000000000E+00  0.000000000E+00 -1.080779895E+03  1.080779895E+03  0.000000000E+00  0.00000E+00  9.000E+00
      25     1     1     2     0     0 -9.311118463E+01  7.816275503E+01 -1.228381090E+01  1.747998884E+02  1.250000000E+02  0.00000E+00  9.000E+00
      25     1     1     2     0     0  1.836974708E+02 -1.341336237E+01 -9.012236616E+02  9.283069359E+02  1.250000000E+02  0.00000E+00  9.000E+00
      21     1     1     2   501   512 -9.058628613E+01 -6.474939266E+01 -2.970370765E+01  1.152417864E+02  1.651812370E-06  0.00000E+00  9.000E+00
#rwgt            1           1   3.5254068216725429E-002           1      506255           0
</event>
<event>
      5   9999  3.79277E-02  3.47667E+01 -1.00000E+00  1.48721E-01
      21    -1     0     0   502   501  0.000000000E+00  0.000000000E+00  1.333815718E+03  1.333815718E+03  0.000000000E+00  0.00000E+00  9.000E+00
      21    -1     0     0   501   511  0.000000000E+00  0.000000000E+00 -6.152533812E+01  6.152533812E+01  0.000000000E+00  0.00000E+00  9.000E+00
      25     1     1     2     0     0 -4.516531605E+01 -4.955934571E+01  5.733774935E+01  1.529988628E+02  1.250000000E+02  0.00000E+00  9.000E+00
      25     1     1     2     0     0  5.582773113E+01  8.265073033E+01  1.187022758E+03  1.197746177E+03  1.250000000E+02  0.00000E+00  9.000E+00
      21     1     1     2   502   511 -1.066241508E+01 -3.309138462E+01  2.792987329E+01  4.459601612E+01  7.539457465E-07  0.00000E+00  9.000E+00
#rwgt            1           1   4.5253511395208758E-002           1      506327           0
</event>
<event>
      5   9999  3.79277E-02  3.83461E+01 -1.00000E+00  1.45987E-01
      21    -1     0     0   502   501  0.000000000E+00  0.000000000E+00  1.294819771E+02  1.294819771E+02  0.000000000E+00  0.00000E+00  9.000E+00
      21    -1     0     0   512   502  0.000000000E+00  0.000000000E+00 -4.824389177E+02  4.824389177E+02  0.000000000E+00  0.00000E+00  9.000E+00
      25     1     1     2     0     0  2.230936103E+00 -1.436591744E+02 -8.839065269E+00  1.906464386E+02  1.250000000E+02  0.00000E+00  9.000E+00
      25     1     1     2     0     0  3.211355873E+01  1.266039434E+02 -1.892337335E+02  2.617140520E+02  1.250000000E+02  0.00000E+00  9.000E+00
      21     1     1     2   512   501 -3.434449484E+01  1.705523101E+01 -1.548841418E+02  1.595604042E+02  2.697398305E-06  0.00000E+00  9.000E+00
#rwgt            1           1   2.9446232678276868E-002           1      506449           0
</event>
<event>
      5   9999  3.79277E-02  1.84267E+01 -1.00000E+00  1.69360E-01
      21    -1     0     0   511   501  0.000000000E+00  0.000000000E+00  1.130922491E+03  1.130922491E+03  0.000000000E+00  0.00000E+00  9.000E+00
      21    -1     0     0   501   502  0.000000000E+00  0.000000000E+00 -1.361725398E+02  1.361725398E+02  0.000000000E+00  0.00000E+00  9.000E+00
      25     1     1     2     0     0 -1.268010943E+02  2.255990351E+00  7.481647345E+01  1.931479011E+02  1.250000000E+02  0.00000E+00  9.000E+00
      25     1     1     2     0     0  1.429378021E+02 -1.115255461E+01  4.069618742E+01  1.945167715E+02  1.250000000E+02  0.00000E+00  9.000E+00
      21     1     1     2   511   502 -1.613670777E+01  8.896564255E+00  8.792372899E+02  8.794303577E+02  0.000000000E+00  0.00000E+00  9.000E+00
#rwgt            1           1   2.1417547791187590E-002           1      506603           0
</event>
<event>
      5   9999  3.79277E-02  2.06915E+01 -1.00000E+00  1.65160E-01
      21    -1     0     0   512   501  0.000000000E+00  0.000000000E+00  5.719841124E+01  5.719841124E+01  0.000000000E+00  0.00000E+00  9.000E+00
      21    -1     0     0   501   502  0.000000000E+00  0.000000000E+00 -1.372431477E+03  1.372431477E+03  0.000000000E+00  0.00000E+00  9.000E+00
      25     1     1     2     0     0  2.085008239E+02 -4.229657458E+01 -4.282519986E+02  4.942533441E+02  1.250000000E+02  0.00000E+00  9.000E+00
      25     1     1     2     0     0 -2.248471804E+02  5.498261333E+01 -8.690601188E+02  9.080032117E+02  1.250000000E+02  0.00000E+00  9.000E+00
      21     1     1     2   512   502  1.634635644E+01 -1.268603875E+01 -1.792094865E+01  2.737333280E+01  4.129530925E-07  0.00000E+00  9.000E+00
#rwgt            1           1   4.6316870023677320E-002           1      506800           0
</event>
<event>
      5   9999  3.79277E-02  4.39291E+01 -1.00000E+00  1.42361E-01
      21    -1     0     0   502   501  0.000000000E+00  0.000000000E+00  9.304166439E+01  9.304166439E+01  0.000000000E+00  0.00000E+00  9.000E+00
      21    -1     0     0   501   511  0.000000000E+00  0.000000000E+00 -2.002867416E+03  2.002867416E+03  0.000000000E+00  0.00000E+00  9.000E+00
      25     1     1     2     0     0 -8.632632430E+01 -2.010025720E+01 -1.595527544E+03  1.602869114E+03  1.250000000E+02  0.00000E+00  9.000E+00
      25     1     1     2     0     0  4.672950178E+01  3.912273950E+01  3.303855316E+01  1.429362833E+02  1.250000000E+02  0.00000E+00  9.000E+00
      21     1     1     2   502   511  3.959682251E+01 -1.902248230E+01 -3.473367606E+02  3.501036824E+02  0.000000000E+00  0.00000E+00  9.000E+00
#rwgt            1           1   5.2187625364154659E-002           1      507049           0
</event>
<event>
      5   9999  3.79277E-02  3.19167E+01 -1.00000E+00  1.51195E-01
      21    -1     0     0   502   501  0.000000000E+00  0.000000000E+00  3.363440910E+02  3.363440910E+02  0.000000000E+00  0.00000E+00  9.000E+00
      21    -1     0     0   501   512  0.000000000E+00  0.000000000E+00 -2.979561909E+02  2.979561909E+02  0.000000000E+00  0.00000E+00  9.000E+00
      25     1     1     2     0     0 -5.268423462E+01  2.141798312E+02  1.553841894E+02  2.973514335E+02  1.250000000E+02  0.00000E+00  9.000E+00
      25     1     1     2     0     0  7.506992516E+01 -2.369296926E+02 -8.300214036E+01  2.903197000E+02  1.250000000E+02  0.00000E+00  9.000E+00
      21     1     1     2   502   512 -2.238569054E+01  2.274986133E+01 -3.399414892E+01  4.662914852E+01  0.000000000E+00  0.00000E+00  9.000E+00
#rwgt            1           1   3.7709641902797360E-002           1      507253           0
</event>
<event>
      5   9999  3.79277E-02  6.17500E+00 -1.00000E+00  2.23550E-01
      21    -1     0     0   502   511  0.000000000E+00  0.000000000E+00  4.302879495E+02  4.302879495E+02  0.000000000E+00  0.00000E+00  9.000E+00
      21    -1     0     0   501   502  0.000000000E+00  0.000000000E+00 -2.061869218E+02  2.061869218E+02  0.000000000E+00  0.00000E+00  9.000E+00
      25     1     1     2     0     0  1.653831738E+02  1.819150930E+01  6.175429031E+01  2.170739910E+02  1.250000000E+02  0.00000E+00  9.000E+00
      25     1     1     2     0     0 -1.592106242E+02 -1.836544186E+01 -4.810013179E+01  2.088634363E+02  1.250000000E+02  0.00000E+00  9.000E+00
      21     1     1     2   501   511 -6.172549537E+00  1.739325632E-01  2.104468691E+02  2.105374440E+02  2.697398305E-06  0.00000E+00  9.000E+00
#rwgt            1           1   4.4381816632998186E-002           1      507522           0
</event>
<event>
      5   9999  3.79277E-02  1.83502E+02 -1.00000E+00  1.13026E-01
      21    -1     0     0   502   501  0.000000000E+00  0.000000000E+00  6.733563853E+02  6.733563853E+02  0.000000000E+00  0.00000E+00  9.000E+00
      21    -1     0     0   501   512  0.000000000E+00  0.000000000E+00 -3.299000642E+02  3.299000642E+02  0.000000000E+00  0.00000E+00  9.000E+00
      25     1     1     2     0     0 -2.151994071E+02 -2.144856088E+02  4.004878204E+02  5.180061346E+02  1.250000000E+02  0.00000E+00  9.000E+00
      25     1     1     2     0     0  2.025368130E+02  3.142114862E+01  8.343775620E+01  2.541560709E+02  1.250000000E+02  0.00000E+00  9.000E+00
      21     1     1     2   502   512  1.266259410E+01  1.830644602E+02 -1.404692555E+02  2.310942440E+02  4.264961200E-06  0.00000E+00  9.000E+00
#rwgt            1           1   3.1902797598550449E-002           1      508063           0
</event>
<event>
      5   9999 -3.79277E-02  4.36302E+01 -1.00000E+00  1.42539E-01
      21    -1     0     0   502   501  0.000000000E+00  0.000000000E+00  2.498051975E+03  2.498051975E+03  0.000000000E+00  0.00000E+00  9.000E+00
      21    -1     0     0   501   511  0.000000000E+00  0.000000000E+00 -3.842713942E+01  3.842713942E+01  0.000000000E+00  0.00000E+00  9.000E+00
      25     1     1     2     0     0 -6.436436198E+01  1.388213069E+02  3.221336192E+02  3.779010385E+02  1.250000000E+02  0.00000E+00  9.000E+00
      25     1     1     2     0     0  9.002665048E+01 -1.741063887E+02  2.018451935E+03  2.031795031E+03  1.250000000E+02  0.00000E+00  9.000E+00
      21     1     1     2   502   511 -2.566228850E+01  3.528508187E+01  1.190392814E+02  1.267830453E+02  1.348699152E-06  0.00000E+00  9.000E+00
#rwgt            1           1 -0.15539191586045073                1      508157           0
</event>
<event>
      5   9999  3.79277E-02  5.16856E+01 -1.00000E+00  1.38259E-01
      21    -1     0     0   502   501  0.000000000E+00  0.000000000E+00  6.072870735E+02  6.072870735E+02  0.000000000E+00  0.00000E+00  9.000E+00
       2    -1     0     0   501     0  0.000000000E+00  0.000000000E+00 -2.248365665E+03  2.248365665E+03  0.000000000E+00  0.00000E+00  9.000E+00
      25     1     1     2     0     0 -1.624902645E+02 -1.956432214E+02  2.526039822E+02  3.796223491E+02  1.250000000E+02  0.00000E+00  9.000E+00
      25     1     1     2     0     0  1.805690973E+02  2.440638827E+02  1.981990021E+02  3.835103938E+02  1.250000000E+02  0.00000E+00  9.000E+00
       2     1     1     2   502     0 -1.807883274E+01 -4.842066128E+01 -2.091881575E+03  2.092519995E+03  0.000000000E+00  0.00000E+00  9.000E+00
#rwgt            1           1   2.8510603133569644E-002           1      508336           0
</event>
<event>
      5   9999  3.79277E-02  3.93998E+01 -1.00000E+00  1.45249E-01
      21    -1     0     0   502   511  0.000000000E+00  0.000000000E+00  2.048880521E+02  2.048880521E+02  0.000000000E+00  0.00000E+00  9.000E+00
      21    -1     0     0   501   502  0.000000000E+00  0.000000000E+00 -3.932794158E+02  3.932794158E+02  0.000000000E+00  0.00000E+00  9.000E+00
      25     1     1     2     0     0 -1.964028253E+02 -1.059181748E+02 -1.072047733E+02  2.773275914E+02  1.250000000E+02  0.00000E+00  9.000E+00
      25     1     1     2     0     0  2.259305258E+02  7.983255417E+01 -7.808331645E+01  2.813180469E+02  1.250000000E+02  0.00000E+00  9.000E+00
      21     1     1     2   501   511 -2.952770050E+01  2.608562061E+01 -3.103274024E+00  3.952182953E+01  1.007124498E-06  0.00000E+00  9.000E+00
#rwgt            1           1   4.1482724494240446E-002           1      508431           0
</event>
</LesHouchesEvents>
 #Random number generator exit values:            1        508528             0
