<LesHouchesEvents version="3.0">
<!--
file generated with POWHEG-BOX-V2
Input file powheg.input contained:
! ggHH production parameters:
mtdep 2              ! 0: Higgs effective field theory (HEFT)

hmass 125            ! Higgs boson mass
topmass 173          ! top quark mass (THIS VALUE IS HARD CODED IN THE VIRTUAL
hdecaymode -1        ! PDG code for Higgs boson decay products (it affects only the SMC)
!                      allowed values are:
!                      0 all decay channels open
!                      1-6 d dbar, u ubar,..., t tbar (as in HERWIG)
!                      7-9 e+ e-, mu+ mu-, tau+ tau-
!                      10  W+W-
!                      11  ZZ
!                      12  gamma gamma
!                      -1  all decay channels closed

! general parameters:
numevts  3000        ! number of events to be generated
ih1         1        ! hadron 1 (1 for protons, -1 for antiprotons)
ih2         1        ! hadron 2 (1 for protons, -1 for antiprotons)
ebeam1 7000d0        ! energy of beam 1
ebeam2 7000d0        ! energy of beam 2
! To be set only if using LHA pdfs
lhans1 90200         ! pdf set for hadron 1 (LHA numbering)
lhans2 90200 	     ! pdf set for hadron 2 (LHA numbering)
! To be set only if using internal mlm pdf
# ndns1 131          ! pdf set for hadron 1 (mlm numbering)
# ndns2 131          ! pdf set for hadron 2 (mlm numbering)
! To be set only if using different pdf sets for the two incoming hadrons
! QCDLambda5 0.25    ! for not equal pdf sets

! Parameters to allow or not the use of stored data
use-old-grid    1    ! if 1 use old grid if file pwggrids.dat is present (<> 1 regenerate)
use-old-ubound  1    ! if 1 use norm of upper bounding function stored in pwgubound.dat, if present;
!
ncall1  10000        ! number of calls for initializing the integration grid
itmx1       3        ! number of iterations for initializing the integration grid
ncall2  10000        ! number of calls for computing the integral and finding upper bound
itmx2       3        ! number of iterations for computing the integral and finding upper bound
foldcsi     1        ! number of folds on csi integration
foldy       1        ! number of folds on  y  integration
foldphi     1        ! number of folds on phi integration
nubound 10000        ! number of bbarra calls to setup norm of upper bounding function
# icsimax   1        ! <= 100, number of csi subdivision when computing the upper bounds
# iymax     1        ! <= 100, number of y subdivision when computing the upper bounds
# xupbound 2d0       ! increase upper bound for radiation generation

! OPTIONAL PARAMETERS

! scale settings:
#fixedscale   1      ! (dafault 0) Use muren = mufac = 2*m_H
facscfact   1d0      ! (default 1d0) fac scale factor: mufact = muref * facscfact
renscfact   1d0      ! (default 1d0) ren scale factor: muren  = muref * renscfact

! Born, plots and powheg strategy:
#bornonly         1  ! (default 0) if 1 do Born only
# testplots 1
fastbtlbound      1  ! fast evaluation of Btilde upper bounds
storemintupb      1  ! store function calls in binary file for more precise generation
ubexcess_correct  1  ! corrects for error in upper bound estimate
storeinfo_rwgt    1  ! store info to allow for reweighting
softtest          0  ! no check of the soft limit in the real
colltest          0  ! no check of the collinear limit in the real

! PARAMETERS needed for ggHH
hdamp           250

! PARAMETERS for parallel runnning
! -- non parallel (for testing purposes only)
#iseed    547        !  Start the random number generator with seed iseed
#rand1     0         !  skipping  rand2*100000000+rand1 numbers.
#rand2     0         !  (see RM48 short writeup in CERNLIB)

! -- parallel
manyseeds 1          ! Used to perform multiple runs with different random
                     ! seeds in the same directory.
                     ! If set to 1, the program asks for an integer j;
                     ! The file pwgseeds.dat at line j is read, and the
                     ! integer at line j is used to initialize the random
                     ! sequence for the generation of the event.
                     ! The event file is called pwgevents-'j'.lhe
parallelstage 4
xgriditeration 1
maxseeds    1000

! PARAMETERS for reweighting
#rwl_file 'reweight_setup.xml'


! PARAMETERS for Pythia8
#py8tune  xxx
#py8hepmc 1
#py8nohad 1
#py8nompi 1
End of powheg.input content
PDF package: lha
 Random number generator initialized with:           10             0             0
-->
<init>
     2212     2212  7.00000E+03  7.00000E+03     -1     -1     -1     -1     -4      1
  3.38081E-02  5.61572E-05  1.00000E+00   9999
</init>
<event>
      5   9999  3.79277E-02  7.49930E+01 -1.00000E+00  1.29723E-01
      21    -1     0     0   502   501  0.000000000E+00  0.000000000E+00  1.669910962E+02  1.669910962E+02  0.000000000E+00  0.00000E+00  9.000E+00
       2    -1     0     0   501     0  0.000000000E+00  0.000000000E+00 -1.012386297E+03  1.012386297E+03  0.000000000E+00  0.00000E+00  9.000E+00
      25     1     1     2     0     0  1.550987486E+02  7.425519027E+01 -3.794465844E+02  4.349415656E+02  1.250000000E+02  0.00000E+00  9.000E+00
      25     1     1     2     0     0 -1.477103278E+02  3.730060806E-01  6.810813618E+01  2.051394606E+02  1.250000000E+02  0.00000E+00  9.000E+00
       2     1     1     2   502     0 -7.388420753E+00 -7.462819635E+01 -5.340567522E+02  5.392963666E+02  0.000000000E+00  0.00000E+00  9.000E+00
#rwgt            1           1   3.9139557591278400E-002          10           1           0
</event>
<event>
      5   9999  3.79277E-02  4.66391E+01 -1.00000E+00  1.40822E-01
      21    -1     0     0   502   511  0.000000000E+00  0.000000000E+00  2.045715813E+02  2.045715813E+02  0.000000000E+00  0.00000E+00  9.000E+00
      21    -1     0     0   501   502  0.000000000E+00  0.000000000E+00 -3.251856585E+02  3.251856585E+02  0.000000000E+00  0.00000E+00  9.000E+00
      25     1     1     2     0     0 -1.200362022E+02 -5.219098204E+01 -2.133937009E+02  2.798114723E+02  1.250000000E+02  0.00000E+00  9.000E+00
      25     1     1     2     0     0  8.661254347E+01  8.471881729E+01  1.029035698E+02  2.022205612E+02  1.250000000E+02  0.00000E+00  9.000E+00
      21     1     1     2   501   511  3.342365878E+01 -3.252783525E+01 -1.012394608E+01  4.772520630E+01  7.817075878E-07  0.00000E+00  9.000E+00
#rwgt            1           1   3.2249429842572543E-002          10         199           0
</event>
<event>
      5   9999  3.79277E-02  2.12685E+01 -1.00000E+00  1.64195E-01
      21    -1     0     0   502   501  0.000000000E+00  0.000000000E+00  9.159866459E+01  9.159866459E+01  0.000000000E+00  0.00000E+00  9.000E+00
       2    -1     0     0   501     0  0.000000000E+00  0.000000000E+00 -2.133966702E+03  2.133966702E+03  0.000000000E+00  0.00000E+00  9.000E+00
      25     1     1     2     0     0  3.808265908E+01 -3.709190612E+01  2.622256319E+01  1.383427672E+02  1.250000000E+02  0.00000E+00  9.000E+00
      25     1     1     2     0     0 -1.942450307E+01  4.730076794E+01 -4.840055729E+02  5.024948443E+02  1.250000000E+02  0.00000E+00  9.000E+00
       2     1     1     2   502     0 -1.865815600E+01 -1.020886182E+01 -1.584585028E+03  1.584727755E+03  0.000000000E+00  0.00000E+00  9.000E+00
#rwgt            1           1   4.1903922068503782E-002          10         449           0
</event>
<event>
      5   9999  3.79277E-02  4.74899E+01 -1.00000E+00  1.40364E-01
       2    -1     0     0   502     0  0.000000000E+00  0.000000000E+00  1.064204153E+03  1.064204153E+03  0.000000000E+00  0.00000E+00  9.000E+00
      21    -1     0     0   501   502  0.000000000E+00  0.000000000E+00 -1.456603116E+02  1.456603116E+02  0.000000000E+00  0.00000E+00  9.000E+00
      25     1     1     2     0     0 -1.023404285E+02  6.008746574E+01  1.393294866E+02  2.216343220E+02  1.250000000E+02  0.00000E+00  9.000E+00
      25     1     1     2     0     0  1.185868194E+02 -1.047119073E+02 -5.870865863E+00  2.017099014E+02  1.250000000E+02  0.00000E+00  9.000E+00
       2     1     1     2   501     0 -1.624639094E+01  4.462444154E+01  7.850852211E+02  7.865202416E+02  0.000000000E+00  0.00000E+00  9.000E+00
#rwgt            1           1   4.4710294666810403E-002          10         649           0
</event>
<event>
      5   9999  3.79277E-02  3.96662E+01 -1.00000E+00  1.45066E-01
      21    -1     0     0   511   501  0.000000000E+00  0.000000000E+00  1.368527077E+02  1.368527077E+02  0.000000000E+00  0.00000E+00  9.000E+00
      21    -1     0     0   501   502  0.000000000E+00  0.000000000E+00 -3.249720182E+02  3.249720182E+02  0.000000000E+00  0.00000E+00  9.000E+00
      25     1     1     2     0     0  1.864786494E+01  1.147148437E+02 -1.723921718E+02  2.425928670E+02  1.250000000E+02  0.00000E+00  9.000E+00
      25     1     1     2     0     0 -5.337914978E+01 -9.555380396E+01 -4.235008924E+01  1.714595962E+02  1.250000000E+02  0.00000E+00  9.000E+00
      21     1     1     2   511   502  3.473128484E+01 -1.916103976E+01  2.662295052E+01  4.777226272E+01  1.066240300E-06  0.00000E+00  9.000E+00
#rwgt            1           1   3.0519262697446970E-002          10         766           0
</event>
<event>
      5   9999  3.79277E-02  1.42519E+01 -1.00000E+00  1.79503E-01
      21    -1     0     0   502   501  0.000000000E+00  0.000000000E+00  9.489077145E+01  9.489077145E+01  0.000000000E+00  0.00000E+00  9.000E+00
      21    -1     0     0   512   502  0.000000000E+00  0.000000000E+00 -6.997083419E+02  6.997083419E+02  0.000000000E+00  0.00000E+00  9.000E+00
      25     1     1     2     0     0 -5.692021729E+01 -1.220233627E+02 -2.251082641E+02  2.905655567E+02  1.250000000E+02  0.00000E+00  9.000E+00
      25     1     1     2     0     0  7.103547324E+01  1.239924073E+02 -8.337391767E+01  2.073556502E+02  1.250000000E+02  0.00000E+00  9.000E+00
      21     1     1     2   512   501 -1.411525595E+01 -1.969044574E+00 -2.963353886E+02  2.966779064E+02  5.394796609E-06  0.00000E+00  9.000E+00
#rwgt            1           1   4.0889628536400296E-002          10         898           0
</event>
<event>
      5   9999  3.79277E-02  7.42904E+01 -1.00000E+00  1.29926E-01
      21    -1     0     0   511   501  0.000000000E+00  0.000000000E+00  1.865039315E+03  1.865039315E+03  0.000000000E+00  0.00000E+00  9.000E+00
      21    -1     0     0   501   502  0.000000000E+00  0.000000000E+00 -5.422480934E+01  5.422480934E+01  0.000000000E+00  0.00000E+00  9.000E+00
      25     1     1     2     0     0  1.778971641E+02 -7.698841338E+01  3.058661429E+02  3.830844739E+02  1.250000000E+02  0.00000E+00  9.000E+00
      25     1     1     2     0     0 -1.974885338E+02  5.327791823E+00  1.159383315E+03  1.182719231E+03  1.250000000E+02  0.00000E+00  9.000E+00
      21     1     1     2   511   502  1.959136973E+01  7.166062156E+01  3.455650471E+02  3.534604196E+02  3.814697266E-06  0.00000E+00  9.000E+00
#rwgt            1           1   3.7230277406207511E-002          10        1146           0
</event>
<event>
      5   9999  3.79277E-02  4.21318E+01 -1.00000E+00  1.43455E-01
      21    -1     0     0   502   501  0.000000000E+00  0.000000000E+00  5.800352375E+02  5.800352375E+02  0.000000000E+00  0.00000E+00  9.000E+00
      21    -1     0     0   512   502  0.000000000E+00  0.000000000E+00 -3.041776513E+02  3.041776513E+02  0.000000000E+00  0.00000E+00  9.000E+00
      25     1     1     2     0     0  6.536849552E+00 -9.805883177E+01  5.031196012E+02  5.276481764E+02  1.250000000E+02  0.00000E+00  9.000E+00
      25     1     1     2     0     0 -1.606134339E+01  5.701772025E+01 -1.383148822E+01  1.390154568E+02  1.250000000E+02  0.00000E+00  9.000E+00
      21     1     1     2   512   501  9.524493842E+00  4.104111152E+01 -2.134305269E+02  2.175492556E+02  3.814697266E-06  0.00000E+00  9.000E+00
#rwgt            1           1   5.2747763253280774E-002          10        1382           0
</event>
<event>
      5   9999  3.79277E-02  8.54898E+01 -1.00000E+00  1.26970E-01
       2    -1     0     0   502     0  0.000000000E+00  0.000000000E+00  1.508366423E+03  1.508366423E+03  0.000000000E+00  0.00000E+00  9.000E+00
      21    -1     0     0   501   502  0.000000000E+00  0.000000000E+00 -4.871008660E+02  4.871008660E+02  0.000000000E+00  0.00000E+00  9.000E+00
      25     1     1     2     0     0  9.492389121E+01  3.389325220E+02  4.617422686E+01  3.763546981E+02  1.250000000E+02  0.00000E+00  9.000E+00
      25     1     1     2     0     0 -1.304956629E+01 -3.143336771E+02 -2.311047962E+02  4.098906910E+02  1.250000000E+02  0.00000E+00  9.000E+00
       2     1     1     2   501     0 -8.187432492E+01 -2.459884486E+01  1.206196126E+03  1.209221900E+03  0.000000000E+00  0.00000E+00  9.000E+00
#rwgt            1           1   2.8144335168998946E-002          10        1605           0
</event>
<event>
      5   9999 -3.79277E-02  5.76625E+01 -1.00000E+00  1.35632E-01
      21    -1     0     0   502   511  0.000000000E+00  0.000000000E+00  3.278553768E+02  3.278553768E+02  0.000000000E+00  0.00000E+00  9.000E+00
      21    -1     0     0   501   502  0.000000000E+00  0.000000000E+00 -4.336638306E+02  4.336638306E+02  0.000000000E+00  0.00000E+00  9.000E+00
      25     1     1     2     0     0 -4.376536418E+01 -1.581161882E+02 -8.885103265E+01  2.245788104E+02  1.250000000E+02  0.00000E+00  9.000E+00
      25     1     1     2     0     0  9.552695581E+00  1.117001110E+02 -2.476196426E+02  2.991799729E+02  1.250000000E+02  0.00000E+00  9.000E+00
      21     1     1     2   501   511  3.421266860E+01  4.641607711E+01  2.306622214E+02  2.377604241E+02  2.697398305E-06  0.00000E+00  9.000E+00
#rwgt            1           1  -3.4356426294975276E-002          10        2015           0
</event>
<event>
      5   9999  3.79277E-02  1.85963E+01 -1.00000E+00  1.69020E-01
      21    -1     0     0   502   512  0.000000000E+00  0.000000000E+00  9.072978196E+02  9.072978196E+02  0.000000000E+00  0.00000E+00  9.000E+00
      21    -1     0     0   501   502  0.000000000E+00  0.000000000E+00 -4.801149225E+01  4.801149225E+01  0.000000000E+00  0.00000E+00  9.000E+00
      25     1     1     2     0     0  5.819137583E+01  6.875699527E+01  6.944247640E+02  7.113118257E+02  1.250000000E+02  0.00000E+00  9.000E+00
      25     1     1     2     0     0 -4.564685790E+01 -8.248501163E+01  1.261932986E+02  2.010899336E+02  1.250000000E+02  0.00000E+00  9.000E+00
      21     1     1     2   501   512 -1.254451793E+01  1.372801636E+01  3.866826477E+01  4.290755252E+01  4.768371582E-07  0.00000E+00  9.000E+00
#rwgt            1           1   4.8688116604905789E-002          10        2184           0
</event>
<event>
      5   9999  3.79277E-02  1.33191E+02 -1.00000E+00  1.18477E-01
      21    -1     0     0   502   511  0.000000000E+00  0.000000000E+00  7.702516074E+01  7.702516074E+01  0.000000000E+00  0.00000E+00  9.000E+00
      21    -1     0     0   501   502  0.000000000E+00  0.000000000E+00 -1.699653077E+03  1.699653077E+03  0.000000000E+00  0.00000E+00  9.000E+00
      25     1     1     2     0     0 -3.734330127E+01 -2.144916632E+02 -4.958511401E+02  5.557828253E+02  1.250000000E+02  0.00000E+00  9.000E+00
      25     1     1     2     0     0 -7.748346003E+01  2.819790144E+02 -9.333754223E+02  9.860682178E+02  1.250000000E+02  0.00000E+00  9.000E+00
      21     1     1     2   501   511  1.148267613E+02 -6.748735115E+01 -1.934013538E+02  2.348271946E+02  0.000000000E+00  0.00000E+00  9.000E+00
#rwgt            1           1   3.7776261969800932E-002          10        2346           0
</event>
<event>
      5   9999  3.79277E-02  2.17389E+01 -1.00000E+00  1.63436E-01
      21    -1     0     0   502   501  0.000000000E+00  0.000000000E+00  2.459222759E+02  2.459222759E+02  0.000000000E+00  0.00000E+00  9.000E+00
      21    -1     0     0   501   512  0.000000000E+00  0.000000000E+00 -5.456021405E+02  5.456021405E+02  0.000000000E+00  0.00000E+00  9.000E+00
      25     1     1     2     0     0 -3.296335979E+01  2.606309671E+02 -1.214537553E+02  3.152635386E+02  1.250000000E+02  0.00000E+00  9.000E+00
      25     1     1     2     0     0  5.041143957E+01 -2.476640030E+02  1.447693093E+01  2.823355329E+02  1.250000000E+02  0.00000E+00  9.000E+00
      21     1     1     2   502   512 -1.744807978E+01 -1.296696408E+01 -1.927030403E+02  1.939253449E+02  2.697398305E-06  0.00000E+00  9.000E+00
#rwgt            1           1   4.0332483975812163E-002          10        2394           0
</event>
<event>
      5   9999 -3.79277E-02  1.98444E+01 -1.00000E+00  1.66650E-01
      21    -1     0     0   502   501  0.000000000E+00  0.000000000E+00  1.665271890E+02  1.665271890E+02  0.000000000E+00  0.00000E+00  9.000E+00
      21    -1     0     0   511   502  0.000000000E+00  0.000000000E+00 -9.960880854E+02  9.960880854E+02  0.000000000E+00  0.00000E+00  9.000E+00
      25     1     1     2     0     0  8.042790022E+01 -3.541339031E+02 -3.519669019E+02  5.209464161E+02  1.250000000E+02  0.00000E+00  9.000E+00
      25     1     1     2     0     0 -9.374189059E+01  3.688490652E+02 -4.184196645E+02  5.792557212E+02  1.250000000E+02  0.00000E+00  9.000E+00
      21     1     1     2   511   501  1.331399037E+01 -1.471516213E+01 -5.917433010E+01  6.241313707E+01  0.000000000E+00  0.00000E+00  9.000E+00
#rwgt            1           1 -0.13576305406718581               10        2652           0
</event>
<event>
      5   9999  3.79277E-02  1.16109E+01 -1.00000E+00  1.88546E-01
      21    -1     0     0   512   501  0.000000000E+00  0.000000000E+00  5.568261466E+02  5.568261466E+02  0.000000000E+00  0.00000E+00  9.000E+00
      21    -1     0     0   501   502  0.000000000E+00  0.000000000E+00 -8.208311610E+01  8.208311610E+01  0.000000000E+00  0.00000E+00  9.000E+00
      25     1     1     2     0     0  1.790485490E+01 -1.567347528E+02  1.636446036E+02  2.594049399E+02  1.250000000E+02  0.00000E+00  9.000E+00
      25     1     1     2     0     0 -2.904375876E+01  1.600114489E+02  2.870876158E+02  3.528335342E+02  1.250000000E+02  0.00000E+00  9.000E+00
      21     1     1     2   512   502  1.113890386E+01 -3.276696099E+00  2.401081099E+01  2.667078853E+01  4.768371582E-07  0.00000E+00  9.000E+00
#rwgt            1           1   4.5059331482345789E-002          10        2928           0
</event>
<event>
      5   9999  3.79277E-02  1.30871E+01 -1.00000E+00  1.83153E-01
      21    -1     0     0   502   511  0.000000000E+00  0.000000000E+00  1.498364105E+03  1.498364105E+03  0.000000000E+00  0.00000E+00  9.000E+00
      21    -1     0     0   501   502  0.000000000E+00  0.000000000E+00 -3.703473464E+01  3.703473464E+01  0.000000000E+00  0.00000E+00  9.000E+00
      25     1     1     2     0     0  2.817785360E+01  2.423397835E+01  1.011329588E+02  1.650277325E+02  1.250000000E+02  0.00000E+00  9.000E+00
      25     1     1     2     0     0 -3.701818805E+01 -1.458402014E+01  8.549496796E+02  8.649549089E+02  1.250000000E+02  0.00000E+00  9.000E+00
      21     1     1     2   501   511  8.840334458E+00 -9.649958215E+00  5.052467319E+02  5.054161981E+02  5.394796609E-06  0.00000E+00  9.000E+00
#rwgt            1           1   4.0264816916933829E-002          10        3099           0
</event>
<event>
      5   9999 -3.79277E-02  7.43317E+01 -1.00000E+00  1.29914E-01
      21    -1     0     0   502   501  0.000000000E+00  0.000000000E+00  3.750439416E+02  3.750439416E+02  0.000000000E+00  0.00000E+00  9.000E+00
      21    -1     0     0   501   512  0.000000000E+00  0.000000000E+00 -1.660486062E+02  1.660486062E+02  0.000000000E+00  0.00000E+00  9.000E+00
      25     1     1     2     0     0  7.032948359E+01 -1.249229891E+02  1.551826417E+02  2.454763568E+02  1.250000000E+02  0.00000E+00  9.000E+00
      25     1     1     2     0     0  4.495673437E-01  1.476283659E+02  8.952254594E+01  2.131516426E+02  1.250000000E+02  0.00000E+00  9.000E+00
      21     1     1     2   502   512 -7.077905094E+01 -2.270537684E+01 -3.570985229E+01  8.246454838E+01  1.784161275E-06  0.00000E+00  9.000E+00
#rwgt            1           1  -9.3125093502347323E-002          10        3272           0
</event>
<event>
      5   9999  3.79277E-02  1.09204E+01 -1.00000E+00  1.91438E-01
       2    -1     0     0   502     0  0.000000000E+00  0.000000000E+00  3.090022971E+03  3.090022971E+03  0.000000000E+00  0.00000E+00  9.000E+00
      21    -1     0     0   501   502  0.000000000E+00  0.000000000E+00 -1.447236463E+02  1.447236463E+02  0.000000000E+00  0.00000E+00  9.000E+00
      25     1     1     2     0     0 -8.636837538E+01 -1.917395870E+02  6.483064989E+02  6.929284826E+02  1.250000000E+02  0.00000E+00  9.000E+00
      25     1     1     2     0     0  9.643986925E+01  1.875182622E+02  3.309384611E-01  2.451302848E+02  1.250000000E+02  0.00000E+00  9.000E+00
       2     1     1     2   501     0 -1.007149387E+01  4.221324804E+00  2.296661887E+03  2.296687850E+03  3.051757812E-05  0.00000E+00  9.000E+00
#rwgt            1           1   4.3093071095588451E-002          10        3434           0
</event>
<event>
      5   9999  3.79277E-02  4.18422E+01 -1.00000E+00  1.43638E-01
      21    -1     0     0   502   511  0.000000000E+00  0.000000000E+00  2.336892898E+02  2.336892898E+02  0.000000000E+00  0.00000E+00  9.000E+00
      21    -1     0     0   501   502  0.000000000E+00  0.000000000E+00 -6.905781449E+02  6.905781449E+02  0.000000000E+00  0.00000E+00  9.000E+00
      25     1     1     2     0     0  3.224167523E+02  1.815779699E+02 -2.654637213E+02  4.722489901E+02  1.250000000E+02  0.00000E+00  9.000E+00
      25     1     1     2     0     0 -2.815156067E+02 -1.904021157E+02 -1.926177891E+02  4.101592558E+02  1.250000000E+02  0.00000E+00  9.000E+00
      21     1     1     2   501   511 -4.090114556E+01  8.824145811E+00  1.192655258E+00  4.185918877E+01  7.641840818E-07  0.00000E+00  9.000E+00
#rwgt            1           1   3.2005182962972049E-002          10        3822           0
</event>
<event>
      5   9999  3.79277E-02  1.01778E+02 -1.00000E+00  1.23485E-01
      21    -1     0     0   502   501  0.000000000E+00  0.000000000E+00  4.300352865E+02  4.300352865E+02  0.000000000E+00  0.00000E+00  9.000E+00
      21    -1     0     0   501   512  0.000000000E+00  0.000000000E+00 -2.132621894E+02  2.132621894E+02  0.000000000E+00  0.00000E+00  9.000E+00
      25     1     1     2     0     0  7.338093570E+01 -2.059817660E+02  2.309169836E+02  3.417029455E+02  1.250000000E+02  0.00000E+00  9.000E+00
      25     1     1     2     0     0  9.364592104E+00  1.467209308E+02 -3.888105751E+01  1.968539147E+02  1.250000000E+02  0.00000E+00  9.000E+00
      21     1     1     2   502   512 -8.274552780E+01  5.926083516E+01  2.473717095E+01  1.047406157E+02  1.815741803E-06  0.00000E+00  9.000E+00
#rwgt            1           1   4.0766777533883816E-002          10        4011           0
</event>
<event>
      5   9999  3.79277E-02  1.25174E+02 -1.00000E+00  1.19595E-01
      21    -1     0     0   502   511  0.000000000E+00  0.000000000E+00  1.016685420E+02  1.016685420E+02  0.000000000E+00  0.00000E+00  9.000E+00
      21    -1     0     0   501   502  0.000000000E+00  0.000000000E+00 -7.506719394E+02  7.506719394E+02  0.000000000E+00  0.00000E+00  9.000E+00
      25     1     1     2     0     0  7.008724055E+01 -1.452138439E+02 -3.784115052E+02  4.299064422E+02  1.250000000E+02  0.00000E+00  9.000E+00
      25     1     1     2     0     0  5.508611899E+01  1.449556992E+02 -1.694487197E+02  2.615043094E+02  1.250000000E+02  0.00000E+00  9.000E+00
      21     1     1     2   501   511 -1.251733595E+02  2.581447549E-01 -1.011431726E+02  1.609297298E+02  2.336015456E-06  0.00000E+00  9.000E+00
#rwgt            1           1   3.6884502391532709E-002          10        4104           0
</event>
<event>
      5   9999 -3.79277E-02  3.54040E+01 -1.00000E+00  1.48206E-01
      21    -1     0     0   502   512  0.000000000E+00  0.000000000E+00  5.147863770E+02  5.147863770E+02  0.000000000E+00  0.00000E+00  9.000E+00
      21    -1     0     0   501   502  0.000000000E+00  0.000000000E+00 -2.032409564E+02  2.032409564E+02  0.000000000E+00  0.00000E+00  9.000E+00
      25     1     1     2     0     0  1.515755425E+02  2.643843131E+01 -5.026072943E+01  2.045122898E+02  1.250000000E+02  0.00000E+00  9.000E+00
      25     1     1     2     0     0 -1.586922556E+02 -6.111974921E+01  7.416891062E+01  2.237071368E+02  1.250000000E+02  0.00000E+00  9.000E+00
      21     1     1     2   501   512  7.116713104E+00  3.468131790E+01  2.876372394E+02  2.898079069E+02  0.000000000E+00  0.00000E+00  9.000E+00
#rwgt            1           1 -0.18228221602725120               10        4227           0
</event>
<event>
      5   9999  3.79277E-02  5.60808E+01 -1.00000E+00  1.36290E-01
      21    -1     0     0   502   501  0.000000000E+00  0.000000000E+00  1.698188609E+02  1.698188609E+02  0.000000000E+00  0.00000E+00  9.000E+00
      21    -1     0     0   511   502  0.000000000E+00  0.000000000E+00 -4.579731588E+02  4.579731588E+02  0.000000000E+00  0.00000E+00  9.000E+00
      25     1     1     2     0     0  3.152254836E+01 -9.543748952E+01 -2.192886501E+02  2.716882359E+02  1.250000000E+02  0.00000E+00  9.000E+00
      25     1     1     2     0     0 -7.300939184E+01  1.331720426E+02  6.805877258E+01  2.081397625E+02  1.250000000E+02  0.00000E+00  9.000E+00
      21     1     1     2   511   501  4.148684349E+01 -3.773455307E+01 -1.369244204E+02  1.479640212E+02  0.000000000E+00  0.00000E+00  9.000E+00
#rwgt            1           1   3.9528024065305839E-002          10        4551           0
</event>
<event>
      5   9999  3.79277E-02  1.33075E+01 -1.00000E+00  1.82426E-01
      21    -1     0     0   512   501  0.000000000E+00  0.000000000E+00  2.258151584E+02  2.258151584E+02  0.000000000E+00  0.00000E+00  9.000E+00
      21    -1     0     0   501   502  0.000000000E+00  0.000000000E+00 -1.581501165E+02  1.581501165E+02  0.000000000E+00  0.00000E+00  9.000E+00
      25     1     1     2     0     0  7.156600599E+01 -3.456643951E+01 -7.746147840E+01  1.671580467E+02  1.250000000E+02  0.00000E+00  9.000E+00
      25     1     1     2     0     0 -6.202338038E+01  2.529137275E+01  1.107233735E+02  1.799200342E+02  1.250000000E+02  0.00000E+00  9.000E+00
      21     1     1     2   512   502 -9.542625604E+00  9.275066763E+00  3.440314685E+01  3.688719399E+01  0.000000000E+00  0.00000E+00  9.000E+00
#rwgt            1           1   4.1793926991098046E-002          10        4626           0
</event>
<event>
      5   9999  3.79277E-02  9.94517E+00 -1.00000E+00  1.96034E-01
      21    -1     0     0   502   501  0.000000000E+00  0.000000000E+00  2.582840812E+02  2.582840812E+02  0.000000000E+00  0.00000E+00  9.000E+00
      21    -1     0     0   501   511  0.000000000E+00  0.000000000E+00 -2.442713630E+02  2.442713630E+02  0.000000000E+00  0.00000E+00  9.000E+00
      25     1     1     2     0     0  8.576666066E+01 -1.908912694E+02  5.144856154E+01  2.491331999E+02  1.250000000E+02  0.00000E+00  9.000E+00
      25     1     1     2     0     0 -7.582149287E+01  1.909027374E+02 -3.372246281E+01  2.428064217E+02  1.250000000E+02  0.00000E+00  9.000E+00
      21     1     1     2   502   511 -9.945167793E+00 -1.146803935E-02 -3.713380590E+00  1.061582259E+01  2.598106231E-07  0.00000E+00  9.000E+00
#rwgt            1           1   4.1994757379037392E-002          10        4842           0
</event>
<event>
      5   9999  3.79277E-02  3.48013E+01 -1.00000E+00  1.48693E-01
      21    -1     0     0   502   501  0.000000000E+00  0.000000000E+00  3.752060035E+02  3.752060035E+02  0.000000000E+00  0.00000E+00  9.000E+00
      21    -1     0     0   512   502  0.000000000E+00  0.000000000E+00 -4.296148199E+02  4.296148199E+02  0.000000000E+00  0.00000E+00  9.000E+00
      25     1     1     2     0     0  1.137410209E+02 -2.705913453E+02  1.883727896E+02  3.704942696E+02  1.250000000E+02  0.00000E+00  9.000E+00
      25     1     1     2     0     0 -1.447995463E+02  2.548909668E+02 -1.897617406E+02  3.709054216E+02  1.250000000E+02  0.00000E+00  9.000E+00
      21     1     1     2   512   501  3.105852540E+01  1.570037845E+01 -5.301986538E+01  6.342113219E+01  6.743495762E-07  0.00000E+00  9.000E+00
#rwgt            1           1   3.8232271032677435E-002          10        5108           0
</event>
<event>
      5   9999  3.79277E-02  2.92191E+01 -1.00000E+00  1.53840E-01
      21    -1     0     0   502   501  0.000000000E+00  0.000000000E+00  1.282392951E+02  1.282392951E+02  0.000000000E+00  0.00000E+00  9.000E+00
      21    -1     0     0   511   502  0.000000000E+00  0.000000000E+00 -5.151663729E+02  5.151663729E+02  0.000000000E+00  0.00000E+00  9.000E+00
      25     1     1     2     0     0  8.862913731E+01  5.617967577E+00 -3.594560668E+02  3.907945106E+02  1.250000000E+02  0.00000E+00  9.000E+00
      25     1     1     2     0     0 -9.433222656E+01  2.303917600E+01  5.306069547E+01  1.669425350E+02  1.250000000E+02  0.00000E+00  9.000E+00
      21     1     1     2   511   501  5.703089248E+00 -2.865714357E+01 -8.053170646E+01  8.566862232E+01  1.348699152E-06  0.00000E+00  9.000E+00
#rwgt            1           1   4.2809312261684815E-002          10        5404           0
</event>
<event>
      5   9999  3.79277E-02  2.21960E+01 -1.00000E+00  1.62720E-01
       2    -1     0     0   502     0  0.000000000E+00  0.000000000E+00  1.962659876E+03  1.962659876E+03  0.000000000E+00  0.00000E+00  9.000E+00
      21    -1     0     0   501   502  0.000000000E+00  0.000000000E+00 -3.543371233E+02  3.543371233E+02  0.000000000E+00  0.00000E+00  9.000E+00
      25     1     1     2     0     0  2.425678999E+02  1.125950675E+02 -1.617283432E+02  3.365975227E+02  1.250000000E+02  0.00000E+00  9.000E+00
      25     1     1     2     0     0 -2.322393710E+02 -1.322415817E+02  1.019587904E+02  3.121595046E+02  1.250000000E+02  0.00000E+00  9.000E+00
       2     1     1     2   501     0 -1.032852886E+01  1.964651413E+01  1.668092306E+03  1.668239972E+03  2.157918644E-05  0.00000E+00  9.000E+00
#rwgt            1           1   3.7199793461190830E-002          10        5611           0
</event>
<event>
      5   9999 -3.79277E-02  3.68059E+01 -1.00000E+00  1.47118E-01
      21    -1     0     0   502   501  0.000000000E+00  0.000000000E+00  3.411492010E+02  3.411492010E+02  0.000000000E+00  0.00000E+00  9.000E+00
      21    -1     0     0   501   511  0.000000000E+00  0.000000000E+00 -5.579337560E+02  5.579337560E+02  0.000000000E+00  0.00000E+00  9.000E+00
      25     1     1     2     0     0  4.691710276E+01  3.638410481E+02  9.401556253E+01  3.988050260E+02  1.250000000E+02  0.00000E+00  9.000E+00
      25     1     1     2     0     0 -3.569776133E+01 -3.287868219E+02 -2.939879023E+02  4.598140832E+02  1.250000000E+02  0.00000E+00  9.000E+00
      21     1     1     2   502   511 -1.121934143E+01 -3.505422611E+01 -1.681221524E+01  4.046384771E+01  8.920806376E-07  0.00000E+00  9.000E+00
#rwgt            1           1 -0.10885068184893648               10        5826           0
</event>
<event>
      5   9999  3.79277E-02  4.88496E+01 -1.00000E+00  1.39655E-01
      21    -1     0     0   512   501  0.000000000E+00  0.000000000E+00  1.766153601E+02  1.766153601E+02  0.000000000E+00  0.00000E+00  9.000E+00
      21    -1     0     0   501   502  0.000000000E+00  0.000000000E+00 -1.122552808E+03  1.122552808E+03  0.000000000E+00  0.00000E+00  9.000E+00
      25     1     1     2     0     0  1.131880419E+02  6.141439808E+01 -5.219169165E+02  5.519107979E+02  1.250000000E+02  0.00000E+00  9.000E+00
      25     1     1     2     0     0 -1.073819259E+02 -1.291103050E+01 -5.699150968E+02  5.934018792E+02  1.250000000E+02  0.00000E+00  9.000E+00
      21     1     1     2   512   502 -5.806115980E+00 -4.850336757E+01  1.458945658E+02  1.538554905E+02  3.303624740E-06  0.00000E+00  9.000E+00
#rwgt            1           1   4.6869647619780373E-002          10        5972           0
</event>
<event>
      5   9999  3.79277E-02  7.80551E+01 -1.00000E+00  1.28869E-01
       2    -1     0     0   502     0  0.000000000E+00  0.000000000E+00  1.347046256E+02  1.347046256E+02  0.000000000E+00  0.00000E+00  9.000E+00
      21    -1     0     0   501   502  0.000000000E+00  0.000000000E+00 -4.316579634E+02  4.316579634E+02  0.000000000E+00  0.00000E+00  9.000E+00
      25     1     1     2     0     0  8.395866950E+01 -1.079065034E+02 -2.311985122E+02  2.962610736E+02  1.250000000E+02  0.00000E+00  9.000E+00
      25     1     1     2     0     0 -8.330841407E+00  1.272205182E+02 -2.010271437E+01  1.796763265E+02  1.250000000E+02  0.00000E+00  9.000E+00
       2     1     1     2   501     0 -7.562782809E+01 -1.931401474E+01 -4.565211114E+01  9.042518897E+01  1.784161275E-06  0.00000E+00  9.000E+00
#rwgt            1           1   4.6877476119818226E-002          10        6074           0
</event>
<event>
      5   9999  3.79277E-02  2.81962E+01 -1.00000E+00  1.54934E-01
      21    -1     0     0   502   501  0.000000000E+00  0.000000000E+00  2.472272660E+02  2.472272660E+02  0.000000000E+00  0.00000E+00  9.000E+00
      21    -1     0     0   501   511  0.000000000E+00  0.000000000E+00 -4.143535186E+02  4.143535186E+02  0.000000000E+00  0.00000E+00  9.000E+00
      25     1     1     2     0     0  4.583803557E+01  2.367335155E+02 -2.458524005E+02  3.663499498E+02  1.250000000E+02  0.00000E+00  9.000E+00
      25     1     1     2     0     0 -2.877333963E+01 -2.142875223E+02  8.913646748E+01  2.651742015E+02  1.250000000E+02  0.00000E+00  9.000E+00
      21     1     1     2   502   511 -1.706469593E+01 -2.244599315E+01 -1.041031951E+01  3.005663335E+01  4.129530925E-07  0.00000E+00  9.000E+00
#rwgt            1           1   4.5447017404812155E-002          10        6117           0
</event>
<event>
      5   9999  3.79277E-02  3.21613E+01 -1.00000E+00  1.50971E-01
      21    -1     0     0   502   501  0.000000000E+00  0.000000000E+00  1.605888408E+03  1.605888408E+03  0.000000000E+00  0.00000E+00  9.000E+00
      21    -1     0     0   501   512  0.000000000E+00  0.000000000E+00 -3.571946589E+01  3.571946589E+01  0.000000000E+00  0.00000E+00  9.000E+00
      25     1     1     2     0     0  1.481586640E+02  3.575115432E+01  4.618679152E+02  5.021713909E+02  1.250000000E+02  0.00000E+00  9.000E+00
      25     1     1     2     0     0 -1.216676392E+02 -5.398784317E+01  1.083617745E+03  1.098894953E+03  1.250000000E+02  0.00000E+00  9.000E+00
      21     1     1     2   502   512 -2.649102481E+01  1.823668884E+01  2.468328235E+01  4.054152986E+01  1.305872339E-06  0.00000E+00  9.000E+00
#rwgt            1           1  0.10977399489106246               10        6288           0
</event>
<event>
      5   9999  3.79277E-02  2.67595E+01 -1.00000E+00  1.56570E-01
      21    -1     0     0   511   501  0.000000000E+00  0.000000000E+00  1.025849890E+02  1.025849890E+02  0.000000000E+00  0.00000E+00  9.000E+00
      21    -1     0     0   501   502  0.000000000E+00  0.000000000E+00 -5.720323696E+02  5.720323696E+02  0.000000000E+00  0.00000E+00  9.000E+00
      25     1     1     2     0     0  5.411967153E+01 -1.404775720E+02 -3.383106243E+02  3.908221662E+02  1.250000000E+02  0.00000E+00  9.000E+00
      25     1     1     2     0     0 -2.738152936E+01  1.415466769E+02 -1.566068678E+02  2.468520224E+02  1.250000000E+02  0.00000E+00  9.000E+00
      21     1     1     2   511   502 -2.673814217E+01 -1.069104841E+00  2.547011156E+01  3.694317007E+01  8.259061849E-07  0.00000E+00  9.000E+00
#rwgt            1           1  0.10766601820872811               10        6454           0
</event>
<event>
      5   9999  3.79277E-02  1.26781E+02 -1.00000E+00  1.19364E-01
      21    -1     0     0   502   501  0.000000000E+00  0.000000000E+00  2.621122914E+01  2.621122914E+01  0.000000000E+00  0.00000E+00  9.000E+00
       2    -1     0     0   501     0  0.000000000E+00  0.000000000E+00 -4.246142837E+03  4.246142837E+03  0.000000000E+00  0.00000E+00  9.000E+00
      25     1     1     2     0     0  1.263540347E+01 -2.538592528E+02 -1.934607913E+03  1.955233221E+03  1.250000000E+02  0.00000E+00  9.000E+00
      25     1     1     2     0     0 -1.960271380E+01  1.272702836E+02 -1.956332312E+03  1.964546539E+03  1.250000000E+02  0.00000E+00  9.000E+00
       2     1     1     2   502     0  6.967310321E+00  1.265889692E+02 -3.289913835E+02  3.525743056E+02  0.000000000E+00  0.00000E+00  9.000E+00
#rwgt            2          13   3.8401584273109631E-005          10        6573           0
</event>
<event>
      5   9999  3.79277E-02  1.74433E+02 -1.00000E+00  1.13854E-01
      21    -1     0     0   502   501  0.000000000E+00  0.000000000E+00  4.453444495E+02  4.453444495E+02  0.000000000E+00  0.00000E+00  9.000E+00
       3    -1     0     0   501     0  0.000000000E+00  0.000000000E+00 -4.309565775E+02  4.309565775E+02  0.000000000E+00  0.00000E+00  9.000E+00
      25     1     1     2     0     0 -2.222100471E+02  6.400804116E+01  3.278301190E+02  4.202046183E+02  1.250000000E+02  0.00000E+00  9.000E+00
      25     1     1     2     0     0  4.779167127E+01 -6.625178282E+01 -9.679206453E+01  1.779523709E+02  1.250000000E+02  0.00000E+00  9.000E+00
       3     1     1     2   502     0  1.744183758E+02  2.243741654E+00 -2.166501824E+02  2.781440378E+02  4.672030912E-06  0.00000E+00  9.000E+00
#rwgt            1           1   3.9612802406090830E-002          10        6607           0
</event>
<event>
      5   9999  3.79277E-02  3.34311E+01 -1.00000E+00  1.49844E-01
      21    -1     0     0   502   501  0.000000000E+00  0.000000000E+00  9.636575604E+02  9.636575604E+02  0.000000000E+00  0.00000E+00  9.000E+00
      21    -1     0     0   511   502  0.000000000E+00  0.000000000E+00 -9.536957867E+01  9.536957867E+01  0.000000000E+00  0.00000E+00  9.000E+00
      25     1     1     2     0     0 -2.142007613E+01 -1.523655912E+02  8.187227056E+02  8.423811262E+02  1.250000000E+02  0.00000E+00  9.000E+00
      25     1     1     2     0     0  2.431667939E+01  1.190602484E+02  5.494326636E+01  1.827851366E+02  1.250000000E+02  0.00000E+00  9.000E+00
      21     1     1     2   511   501 -2.896603261E+00  3.330534272E+01 -5.377990235E+00  3.386087629E+01  3.908537939E-07  0.00000E+00  9.000E+00
#rwgt            1           1   4.6243414069726249E-002          10        6665           0
</event>
<event>
      5   9999  3.79277E-02  8.98731E+01 -1.00000E+00  1.25950E-01
      21    -1     0     0   512   501  0.000000000E+00  0.000000000E+00  4.119766449E+02  4.119766449E+02  0.000000000E+00  0.00000E+00  9.000E+00
      21    -1     0     0   501   502  0.000000000E+00  0.000000000E+00 -1.865563916E+03  1.865563916E+03  0.000000000E+00  0.00000E+00  9.000E+00
      25     1     1     2     0     0 -9.152037983E+01  1.021204184E+02 -1.266758251E+03  1.280275761E+03  1.250000000E+02  0.00000E+00  9.000E+00
      25     1     1     2     0     0  1.319146105E+01 -1.461857420E+02 -5.710271057E+02  6.026949819E+02  1.250000000E+02  0.00000E+00  9.000E+00
      21     1     1     2   512   502  7.832891878E+01  4.406532357E+01  3.841980852E+02  3.945698176E+02  0.000000000E+00  0.00000E+00  9.000E+00
#rwgt            1           1  0.13614801852368671               10        6759           0
</event>
<event>
      5   9999  3.79277E-02  4.13555E+01 -1.00000E+00  1.43948E-01
      21    -1     0     0   502   501  0.000000000E+00  0.000000000E+00  7.282415641E+02  7.282415641E+02  0.000000000E+00  0.00000E+00  9.000E+00
      21    -1     0     0   511   502  0.000000000E+00  0.000000000E+00 -8.049870749E+01  8.049870749E+01  0.000000000E+00  0.00000E+00  9.000E+00
      25     1     1     2     0     0 -1.671763443E+02 -1.841504474E+01  1.464077841E+02  2.556311468E+02  1.250000000E+02  0.00000E+00  9.000E+00
      25     1     1     2     0     0  1.350748586E+02 -7.657415975E+00  4.557197463E+02  4.915377306E+02  1.250000000E+02  0.00000E+00  9.000E+00
      21     1     1     2   511   501  3.210148570E+01  2.607246072E+01  4.561532624E+01  6.157139417E+01  6.743495762E-07  0.00000E+00  9.000E+00
#rwgt            2          11   3.2225433031450043E-003          10        6901           0
</event>
<event>
      5   9999  3.79277E-02  1.70620E+02 -1.00000E+00  1.14219E-01
      21    -1     0     0   512   501  0.000000000E+00  0.000000000E+00  2.471281138E+02  2.471281138E+02  0.000000000E+00  0.00000E+00  9.000E+00
      21    -1     0     0   501   502  0.000000000E+00  0.000000000E+00 -3.562656483E+02  3.562656483E+02  0.000000000E+00  0.00000E+00  9.000E+00
      25     1     1     2     0     0 -2.059029981E+02 -1.070574082E+02 -6.177918853E+01  2.707378832E+02  1.250000000E+02  0.00000E+00  9.000E+00
      25     1     1     2     0     0  4.392760080E+01  5.343684017E+01 -7.247680265E+01  1.601968068E+02  1.250000000E+02  0.00000E+00  9.000E+00
      21     1     1     2   512   502  1.619753973E+02  5.362056805E+01  2.511845663E+01  1.724590720E+02  3.724217260E-06  0.00000E+00  9.000E+00
#rwgt            1           1   3.9320174812323368E-002          10        7026           0
</event>
<event>
      5   9999  3.79277E-02  1.09656E+02 -1.00000E+00  1.22054E-01
      21    -1     0     0   502   501  0.000000000E+00  0.000000000E+00  6.736167174E+02  6.736167174E+02  0.000000000E+00  0.00000E+00  9.000E+00
      21    -1     0     0   511   502  0.000000000E+00  0.000000000E+00 -1.328073132E+02  1.328073132E+02  0.000000000E+00  0.00000E+00  9.000E+00
      25     1     1     2     0     0 -1.079953387E+02  1.136212714E+01  5.178891328E+02  5.437152241E+02  1.250000000E+02  0.00000E+00  9.000E+00
      25     1     1     2     0     0  5.819943420E+00 -5.117021039E+01  5.866581971E+01  1.473734731E+02  1.250000000E+02  0.00000E+00  9.000E+00
      21     1     1     2   511   501  1.021753952E+02  3.980808326E+01 -3.574554831E+01  1.153353333E+02  1.168007728E-06  0.00000E+00  9.000E+00
#rwgt            1           1   4.0420024918294981E-002          10        7116           0
</event>
<event>
      5   9999  3.79277E-02  7.41561E+01 -1.00000E+00  1.29965E-01
      21    -1     0     0   502   501  0.000000000E+00  0.000000000E+00  8.994679544E+02  8.994679544E+02  0.000000000E+00  0.00000E+00  9.000E+00
      21    -1     0     0   501   512  0.000000000E+00  0.000000000E+00 -1.123151717E+02  1.123151717E+02  0.000000000E+00  0.00000E+00  9.000E+00
      25     1     1     2     0     0  9.644930559E+01  2.294032837E+02  4.857958837E+02  5.599562266E+02  1.250000000E+02  0.00000E+00  9.000E+00
      25     1     1     2     0     0 -2.624679091E+01 -2.055131643E+02  2.885423731E+02  3.765717140E+02  1.250000000E+02  0.00000E+00  9.000E+00
      21     1     1     2   502   512 -7.020251467E+01 -2.389011944E+01  1.281452595E+01  7.525518553E+01  1.966049969E-06  0.00000E+00  9.000E+00
#rwgt            1           1   3.7230355768910053E-002          10        7198           0
</event>
<event>
      5   9999  3.79277E-02  8.57249E+01 -1.00000E+00  1.26913E-01
      -5    -1     0     0     0   501  0.000000000E+00  0.000000000E+00  3.318985790E+02  3.318985790E+02  0.000000000E+00  0.00000E+00  9.000E+00
      21    -1     0     0   501   502  0.000000000E+00  0.000000000E+00 -1.819244121E+03  1.819244121E+03  0.000000000E+00  0.00000E+00  9.000E+00
      25     1     1     2     0     0 -8.731209447E+01 -1.581156324E+02 -1.025443859E+03  1.048705899E+03  1.250000000E+02  0.00000E+00  9.000E+00
      25     1     1     2     0     0  4.333888607E+00  1.365895109E+02 -7.651807160E+02  7.872750506E+02  1.250000000E+02  0.00000E+00  9.000E+00
      -5     1     1     2     0   502  8.297820586E+01  2.152612147E+01  3.032790334E+02  3.151617499E+02  3.814697266E-06  0.00000E+00  9.000E+00
#rwgt            1           1   2.9168486946049770E-002          10        7422           0
</event>
<event>
      5   9999  3.79277E-02  1.78659E+02 -1.00000E+00  1.13462E-01
      21    -1     0     0   502   501  0.000000000E+00  0.000000000E+00  1.061617038E+03  1.061617038E+03  0.000000000E+00  0.00000E+00  9.000E+00
      21    -1     0     0   511   502  0.000000000E+00  0.000000000E+00 -2.682119221E+02  2.682119221E+02  0.000000000E+00  0.00000E+00  9.000E+00
      25     1     1     2     0     0 -2.241331747E+02  7.170043247E+01  6.460662407E+02  6.988585117E+02  1.250000000E+02  0.00000E+00  9.000E+00
      25     1     1     2     0     0  3.721144132E+02 -1.718033420E+02  6.194475834E+01  4.329522813E+02  1.250000000E+02  0.00000E+00  9.000E+00
      21     1     1     2   511   501 -1.479812385E+02  1.001029095E+02  8.539411727E+01  1.980181676E+02  1.348699152E-06  0.00000E+00  9.000E+00
#rwgt            1           1   2.4392425522835628E-002          10        7580           0
</event>
<event>
      5   9999  3.79277E-02  1.32721E+01 -1.00000E+00  1.82542E-01
      21    -1     0     0   502   501  0.000000000E+00  0.000000000E+00  1.345919805E+03  1.345919805E+03  0.000000000E+00  0.00000E+00  9.000E+00
      -1    -1     0     0     0   502  0.000000000E+00  0.000000000E+00 -1.996860573E+02  1.996860573E+02  0.000000000E+00  0.00000E+00  9.000E+00
      25     1     1     2     0     0  3.217621040E+02  1.396793126E+02  1.008105513E+03  1.074682691E+03  1.250000000E+02  0.00000E+00  9.000E+00
      25     1     1     2     0     0 -3.105457141E+02 -1.325840813E+02  1.971002012E+02  4.104761485E+02  1.250000000E+02  0.00000E+00  9.000E+00
      -1     1     1     2     0   501 -1.121638993E+01 -7.095231323E+00 -5.897196633E+01  6.044702245E+01  2.132480600E-06  0.00000E+00  9.000E+00
#rwgt            1           1   3.3361542180988302E-002          10        7705           0
</event>
<event>
      5   9999  3.79277E-02  1.10987E+02 -1.00000E+00  1.21825E-01
      21    -1     0     0   502   501  0.000000000E+00  0.000000000E+00  4.148086249E+02  4.148086249E+02  0.000000000E+00  0.00000E+00  9.000E+00
      21    -1     0     0   511   502  0.000000000E+00  0.000000000E+00 -2.287165894E+02  2.287165894E+02  0.000000000E+00  0.00000E+00  9.000E+00
      25     1     1     2     0     0  1.640177501E+02 -1.363278283E+00  8.851616400E+01  2.244187875E+02  1.250000000E+02  0.00000E+00  9.000E+00
      25     1     1     2     0     0 -1.955275652E+02 -1.050569628E+02  1.507866948E+02  2.960230084E+02  1.250000000E+02  0.00000E+00  9.000E+00
      21     1     1     2   511   501  3.150981512E+01  1.064202411E+02 -5.321082322E+01  1.230834184E+02  1.907348633E-06  0.00000E+00  9.000E+00
#rwgt            1           1   4.3290187983026480E-002          10        7910           0
</event>
<event>
      5   9999 -3.79277E-02  1.55369E+02 -1.00000E+00  1.15792E-01
      21    -1     0     0   502   501  0.000000000E+00  0.000000000E+00  1.958086065E+02  1.958086065E+02  0.000000000E+00  0.00000E+00  9.000E+00
      21    -1     0     0   501   512  0.000000000E+00  0.000000000E+00 -4.693970280E+02  4.693970280E+02  0.000000000E+00  0.00000E+00  9.000E+00
      25     1     1     2     0     0  5.599539476E+00  2.500097175E+02 -1.265711442E+02  3.068899937E+02  1.250000000E+02  0.00000E+00  9.000E+00
      25     1     1     2     0     0  5.029327886E+01 -1.050424269E+02 -6.659535094E+01  1.833664804E+02  1.250000000E+02  0.00000E+00  9.000E+00
      21     1     1     2   502   512 -5.589281834E+01 -1.449672906E+02 -8.042192648E+01  1.749491604E+02  2.132480600E-06  0.00000E+00  9.000E+00
#rwgt            1           1 -0.16341296707350772               10        8025           0
</event>
<event>
      5   9999  3.79277E-02  1.64264E+01 -1.00000E+00  1.73746E-01
      21    -1     0     0   502   501  0.000000000E+00  0.000000000E+00  3.210827215E+02  3.210827215E+02  0.000000000E+00  0.00000E+00  9.000E+00
      21    -1     0     0   511   502  0.000000000E+00  0.000000000E+00 -2.141948033E+02  2.141948033E+02  0.000000000E+00  0.00000E+00  9.000E+00
      25     1     1     2     0     0 -1.258531559E+02  8.703435718E+01  2.115972458E+02  2.895036971E+02  1.250000000E+02  0.00000E+00  9.000E+00
      25     1     1     2     0     0  1.399843389E+02 -7.865959729E+01 -1.057255285E+02  2.293160150E+02  1.250000000E+02  0.00000E+00  9.000E+00
      21     1     1     2   511   501 -1.413118300E+01 -8.374759890E+00  1.016200856E+00  1.645781274E+01  2.053983324E-07  0.00000E+00  9.000E+00
#rwgt            1           1   3.8298660029049560E-002          10        8077           0
</event>
<event>
      5   9999  3.79277E-02  7.52835E+01 -1.00000E+00  1.29640E-01
      21    -1     0     0   502   501  0.000000000E+00  0.000000000E+00  2.800378328E+02  2.800378328E+02  0.000000000E+00  0.00000E+00  9.000E+00
       2    -1     0     0   501     0  0.000000000E+00  0.000000000E+00 -7.527276680E+02  7.527276680E+02  0.000000000E+00  0.00000E+00  9.000E+00
      25     1     1     2     0     0 -8.625809861E+01 -1.215810438E+02 -9.783362111E+01  2.177586444E+02  1.250000000E+02  0.00000E+00  9.000E+00
      25     1     1     2     0     0  3.634677376E+01  1.779411561E+02  1.615605319E+02  2.733330358E+02  1.250000000E+02  0.00000E+00  9.000E+00
       2     1     1     2   502     0  4.991132484E+01 -5.636011232E+01 -5.364167460E+02  5.416738206E+02  7.629394531E-06  0.00000E+00  9.000E+00
#rwgt            1           1   3.7613306323244597E-002          10        8376           0
</event>
<event>
      5   9999  3.79277E-02  7.73212E+01 -1.00000E+00  1.29070E-01
      21    -1     0     0   502   511  0.000000000E+00  0.000000000E+00  1.760733482E+02  1.760733482E+02  0.000000000E+00  0.00000E+00  9.000E+00
      21    -1     0     0   501   502  0.000000000E+00  0.000000000E+00 -4.257636807E+02  4.257636807E+02  0.000000000E+00  0.00000E+00  9.000E+00
      25     1     1     2     0     0  2.167696186E+01 -8.747622261E+01 -3.101206144E+02  3.462972360E+02  1.250000000E+02  0.00000E+00  9.000E+00
      25     1     1     2     0     0 -9.592120963E+01  6.588069164E+01  3.695628641E+01  1.747338293E+02  1.250000000E+02  0.00000E+00  9.000E+00
      21     1     1     2   501   511  7.424424777E+01  2.159553097E+01  2.347399556E+01  8.080596359E+01  1.784161275E-06  0.00000E+00  9.000E+00
#rwgt            1           1   4.4477223516382856E-002          10        8476           0
</event>
<event>
      5   9999  3.79277E-02  2.43627E+01 -1.00000E+00  1.59596E-01
      21    -1     0     0   502   501  0.000000000E+00  0.000000000E+00  7.890103815E+02  7.890103815E+02  0.000000000E+00  0.00000E+00  9.000E+00
      21    -1     0     0   501   512  0.000000000E+00  0.000000000E+00 -4.468512245E+01  4.468512245E+01  0.000000000E+00  0.00000E+00  9.000E+00
      25     1     1     2     0     0  1.369454941E+01 -7.332416635E+01  2.307215668E+02  2.728028875E+02  1.250000000E+02  0.00000E+00  9.000E+00
      25     1     1     2     0     0 -1.442862007E+01  9.767577707E+01  5.123020122E+02  5.364951949E+02  1.250000000E+02  0.00000E+00  9.000E+00
      21     1     1     2   502   512  7.340706596E-01 -2.435161072E+01  1.301680064E+00  2.439742149E+01  1.534168443E-07  0.00000E+00  9.000E+00
#rwgt            1           1  0.35368360400884424               10        8664           0
</event>
<event>
      5   9999  3.79277E-02  1.93760E+01 -1.00000E+00  1.67513E-01
      21    -1     0     0   502   501  0.000000000E+00  0.000000000E+00  6.005568987E+01  6.005568987E+01  0.000000000E+00  0.00000E+00  9.000E+00
       1    -1     0     0   501     0  0.000000000E+00  0.000000000E+00 -5.960378284E+02  5.960378284E+02  0.000000000E+00  0.00000E+00  9.000E+00
      25     1     1     2     0     0  1.240141346E+02  5.505326194E+01 -2.552364711E+02  3.149301882E+02  1.250000000E+02  0.00000E+00  9.000E+00
      25     1     1     2     0     0 -1.048615938E+02 -5.798765317E+01 -2.389443662E+02  2.950897014E+02  1.250000000E+02  0.00000E+00  9.000E+00
       1     1     1     2   502     0 -1.915254083E+01  2.934391232E+00 -4.180130129E+01  4.607362870E+01  0.000000000E+00  0.00000E+00  9.000E+00
#rwgt            1           1   4.4334231519504740E-002          10        8860           0
</event>
<event>
      5   9999  3.79277E-02  7.32675E+01 -1.00000E+00  1.30225E-01
      21    -1     0     0   502   501  0.000000000E+00  0.000000000E+00  7.689978460E+02  7.689978460E+02  0.000000000E+00  0.00000E+00  9.000E+00
      21    -1     0     0   511   502  0.000000000E+00  0.000000000E+00 -2.694314823E+02  2.694314823E+02  0.000000000E+00  0.00000E+00  9.000E+00
      25     1     1     2     0     0 -1.341570216E+02 -7.175506781E+01  5.658660560E+02  5.991463006E+02  1.250000000E+02  0.00000E+00  9.000E+00
      25     1     1     2     0     0  7.247468477E+01  1.112952097E+02  1.337941198E+02  2.261969720E+02  1.250000000E+02  0.00000E+00  9.000E+00
      21     1     1     2   511   501  6.168233680E+01 -3.954014191E+01 -2.000938121E+02  2.130860557E+02  3.814697266E-06  0.00000E+00  9.000E+00
#rwgt            1           1   4.1683064095746299E-002          10        9086           0
</event>
<event>
      5   9999  3.79277E-02  7.95638E+01 -1.00000E+00  1.28465E-01
      -2    -1     0     0     0   501  0.000000000E+00  0.000000000E+00  2.634418809E+02  2.634418809E+02  0.000000000E+00  0.00000E+00  9.000E+00
      21    -1     0     0   501   502  0.000000000E+00  0.000000000E+00 -5.414067190E+02  5.414067190E+02  0.000000000E+00  0.00000E+00  9.000E+00
      25     1     1     2     0     0 -8.142705480E+01 -8.107061536E+00 -4.912619247E+01  1.572719698E+02  1.250000000E+02  0.00000E+00  9.000E+00
      25     1     1     2     0     0  1.051100759E+02  8.406439072E+01 -4.102447247E+02  4.494893592E+02  1.250000000E+02  0.00000E+00  9.000E+00
      -2     1     1     2     0   502 -2.368302109E+01 -7.595732918E+01  1.814060791E+02  1.980872709E+02  0.000000000E+00  0.00000E+00  9.000E+00
#rwgt            1           1   5.6463559486440829E-002          10        9140           0
</event>
<event>
      5   9999  3.79277E-02  4.72560E+01 -1.00000E+00  1.40489E-01
      21    -1     0     0   502   511  0.000000000E+00  0.000000000E+00  5.856631772E+01  5.856631772E+01  0.000000000E+00  0.00000E+00  9.000E+00
      21    -1     0     0   501   502  0.000000000E+00  0.000000000E+00 -7.461031778E+02  7.461031778E+02  0.000000000E+00  0.00000E+00  9.000E+00
      25     1     1     2     0     0  6.824590601E+01 -7.882462693E+01 -5.409717740E+02  5.649303371E+02  1.250000000E+02  0.00000E+00  9.000E+00
      25     1     1     2     0     0 -2.639906081E+01  5.687086391E+01 -9.122382008E+01  1.669670354E+02  1.250000000E+02  0.00000E+00  9.000E+00
      21     1     1     2   501   511 -4.184684520E+01  2.195376302E+01 -5.534126603E+01  7.277212303E+01  6.743495762E-07  0.00000E+00  9.000E+00
#rwgt            1           1   4.1973496701053055E-002          10        9210           0
</event>
<event>
      5   9999  3.79277E-02  2.42405E+01 -1.00000E+00  1.59761E-01
      21    -1     0     0   512   501  0.000000000E+00  0.000000000E+00  1.412603904E+02  1.412603904E+02  0.000000000E+00  0.00000E+00  9.000E+00
      21    -1     0     0   501   502  0.000000000E+00  0.000000000E+00 -1.137943564E+03  1.137943564E+03  0.000000000E+00  0.00000E+00  9.000E+00
      25     1     1     2     0     0  1.491891314E+02  6.995346071E+01 -1.020127542E+02  2.306132815E+02  1.250000000E+02  0.00000E+00  9.000E+00
      25     1     1     2     0     0 -1.731545600E+02 -7.359506482E+01 -9.561684834E+02  9.824876100E+02  1.250000000E+02  0.00000E+00  9.000E+00
      21     1     1     2   512   502  2.396542859E+01  3.641604108E+00  6.149806401E+01  6.610306290E+01  2.336015456E-06  0.00000E+00  9.000E+00
#rwgt            1           1   4.2701777148242276E-002          10        9396           0
</event>
<event>
      5   9999  3.79277E-02  9.72759E+00 -1.00000E+00  1.97154E-01
      21    -1     0     0   502   501  0.000000000E+00  0.000000000E+00  3.945835147E+02  3.945835147E+02  0.000000000E+00  0.00000E+00  9.000E+00
      21    -1     0     0   501   511  0.000000000E+00  0.000000000E+00 -7.819219583E+01  7.819219583E+01  0.000000000E+00  0.00000E+00  9.000E+00
      25     1     1     2     0     0  1.776517620E+01 -4.275184489E+01  3.000135981E+02  3.282932847E+02  1.250000000E+02  0.00000E+00  9.000E+00
      25     1     1     2     0     0 -8.882704371E+00  4.671766044E+01  1.401899241E+01  1.344729504E+02  1.250000000E+02  0.00000E+00  9.000E+00
      21     1     1     2   502   511 -8.882471827E+00 -3.965815555E+00  2.358728299E+00  1.000947541E+01  1.228781231E-07  0.00000E+00  9.000E+00
#rwgt            1           1   4.6417389861218919E-002          10        9582           0
</event>
<event>
      5   9999  3.79277E-02  3.29439E+01 -1.00000E+00  1.50269E-01
      21    -1     0     0   502   501  0.000000000E+00  0.000000000E+00  9.565425811E+01  9.565425811E+01  0.000000000E+00  0.00000E+00  9.000E+00
      21    -1     0     0   501   512  0.000000000E+00  0.000000000E+00 -3.783448636E+02  3.783448636E+02  0.000000000E+00  0.00000E+00  9.000E+00
      25     1     1     2     0     0 -1.375430322E+01 -4.506152923E+01 -2.370940660E+02  2.721365804E+02  1.250000000E+02  0.00000E+00  9.000E+00
      25     1     1     2     0     0 -4.142123922E+00  1.740259656E+01  2.057978637E+01  1.279395762E+02  1.250000000E+02  0.00000E+00  9.000E+00
      21     1     1     2   502   512  1.789642714E+01  2.765893267E+01 -6.617632591E+01  7.392296512E+01  9.536743164E-07  0.00000E+00  9.000E+00
#rwgt            1           1   4.1082453433366681E-002          10        9828           0
</event>
<event>
      5   9999  3.79277E-02  9.42952E+01 -1.00000E+00  1.24986E-01
      21    -1     0     0   502   501  0.000000000E+00  0.000000000E+00  2.395840769E+02  2.395840769E+02  0.000000000E+00  0.00000E+00  9.000E+00
      21    -1     0     0   501   511  0.000000000E+00  0.000000000E+00 -8.667031407E+02  8.667031407E+02  0.000000000E+00  0.00000E+00  9.000E+00
      25     1     1     2     0     0  2.407209074E+02 -5.882681312E+01  6.835422573E+01  2.858399016E+02  1.250000000E+02  0.00000E+00  9.000E+00
      25     1     1     2     0     0 -1.494014647E+02  8.232896844E+01 -1.323423228E+02  2.494761454E+02  1.250000000E+02  0.00000E+00  9.000E+00
      21     1     1     2   502   511 -9.131944263E+01 -2.350215531E+01 -5.631309668E+02  5.709711706E+02  0.000000000E+00  0.00000E+00  9.000E+00
#rwgt            2          11   1.1869620955924586E-003          10        9976           0
</event>
<event>
      5   9999  3.79277E-02  1.50063E+01 -1.00000E+00  1.77366E-01
      21    -1     0     0   502   512  0.000000000E+00  0.000000000E+00  4.979202402E+01  4.979202402E+01  0.000000000E+00  0.00000E+00  9.000E+00
      21    -1     0     0   501   502  0.000000000E+00  0.000000000E+00 -1.022518605E+03  1.022518605E+03  0.000000000E+00  0.00000E+00  9.000E+00
      25     1     1     2     0     0 -2.032239440E+01  1.318476215E+02 -2.209930106E+02  2.868095287E+02  1.250000000E+02  0.00000E+00  9.000E+00
      25     1     1     2     0     0  1.947713994E+01 -1.168651272E+02 -7.509802057E+02  7.704758830E+02  1.250000000E+02  0.00000E+00  9.000E+00
      21     1     1     2   501   512  8.452544680E-01 -1.498249431E+01 -7.533644605E-01  1.502521710E+01  5.711247890E-07  0.00000E+00  9.000E+00
#rwgt            1           1   4.0600149726438765E-002          10       10011           0
</event>
<event>
      5   9999  3.79277E-02  2.33734E+01 -1.00000E+00  1.60971E-01
      21    -1     0     0   511   501  0.000000000E+00  0.000000000E+00  2.956853955E+02  2.956853955E+02  0.000000000E+00  0.00000E+00  9.000E+00
      21    -1     0     0   501   502  0.000000000E+00  0.000000000E+00 -2.502074139E+02  2.502074139E+02  0.000000000E+00  0.00000E+00  9.000E+00
      25     1     1     2     0     0  1.327546820E+02 -1.307217839E+02  1.364897531E+02  2.626146285E+02  1.250000000E+02  0.00000E+00  9.000E+00
      25     1     1     2     0     0 -1.256573767E+02  1.529915342E+02 -1.043798729E+02  2.563519919E+02  1.250000000E+02  0.00000E+00  9.000E+00
      21     1     1     2   511   502 -7.097305322E+00 -2.226975026E+01  1.336810142E+01  2.692618902E+01  0.000000000E+00  0.00000E+00  9.000E+00
#rwgt            1           1   2.8807462073836894E-002          10       10236           0
</event>
<event>
      5   9999  3.79277E-02  7.35705E+01 -1.00000E+00  1.30136E-01
      21    -1     0     0   502   512  0.000000000E+00  0.000000000E+00  2.340519119E+02  2.340519119E+02  0.000000000E+00  0.00000E+00  9.000E+00
      21    -1     0     0   501   502  0.000000000E+00  0.000000000E+00 -2.040015358E+02  2.040015358E+02  0.000000000E+00  0.00000E+00  9.000E+00
      25     1     1     2     0     0  3.817963549E+01 -1.311452407E+02  4.143795032E+01  1.897336619E+02  1.250000000E+02  0.00000E+00  9.000E+00
      25     1     1     2     0     0 -8.531005371E+01  7.465330401E+01 -3.235044185E+01  1.718210469E+02  1.250000000E+02  0.00000E+00  9.000E+00
      21     1     1     2   501   512  4.713041823E+01  5.649193672E+01  2.096286756E+01  7.649873890E+01  1.735713456E-06  0.00000E+00  9.000E+00
#rwgt            1           1   4.2076511326357410E-002          10       10407           0
</event>
<event>
      5   9999  3.79277E-02  1.44697E+02 -1.00000E+00  1.17016E-01
      21    -1     0     0   502   501  0.000000000E+00  0.000000000E+00  9.206299248E+02  9.206299248E+02  0.000000000E+00  0.00000E+00  9.000E+00
      21    -1     0     0   501   511  0.000000000E+00  0.000000000E+00 -1.113677357E+02  1.113677357E+02  0.000000000E+00  0.00000E+00  9.000E+00
      25     1     1     2     0     0 -2.084044164E+01  1.177844111E+02  6.519246217E+02  6.744910703E+02  1.250000000E+02  0.00000E+00  9.000E+00
      25     1     1     2     0     0 -8.880054705E+01 -2.335914404E+01  1.716442092E+01  1.560474419E+02  1.250000000E+02  0.00000E+00  9.000E+00
      21     1     1     2   502   511  1.096409887E+02 -9.442526709E+01  1.401731464E+02  2.014591483E+02  2.697398305E-06  0.00000E+00  9.000E+00
#rwgt            1           1   5.0727974159412825E-002          10       10794           0
</event>
<event>
      5   9999  3.79277E-02  1.69887E+02 -1.00000E+00  1.14290E-01
      21    -1     0     0   512   501  0.000000000E+00  0.000000000E+00  7.082517624E+02  7.082517624E+02  0.000000000E+00  0.00000E+00  9.000E+00
      21    -1     0     0   501   502  0.000000000E+00  0.000000000E+00 -4.052783831E+02  4.052783831E+02  0.000000000E+00  0.00000E+00  9.000E+00
      25     1     1     2     0     0 -7.410949640E+01  1.896028335E+01 -3.116775996E+02  3.444120147E+02  1.250000000E+02  0.00000E+00  9.000E+00
      25     1     1     2     0     0  1.812163307E+02 -1.508306790E+02  2.448825329E+02  3.621901533E+02  1.250000000E+02  0.00000E+00  9.000E+00
      21     1     1     2   512   502 -1.071068343E+02  1.318703956E+02  3.697684461E+02  4.069279775E+02  0.000000000E+00  0.00000E+00  9.000E+00
#rwgt            1           1   4.7245777846402347E-002          10       10869           0
</event>
<event>
      5   9999  3.79277E-02  5.17378E+01 -1.00000E+00  1.38234E-01
      21    -1     0     0   502   511  0.000000000E+00  0.000000000E+00  1.674809939E+02  1.674809939E+02  0.000000000E+00  0.00000E+00  9.000E+00
      21    -1     0     0   501   502  0.000000000E+00  0.000000000E+00 -3.834983674E+02  3.834983674E+02  0.000000000E+00  0.00000E+00  9.000E+00
      25     1     1     2     0     0  7.038109294E+01  1.460657388E+02 -1.927716316E+02  2.812020631E+02  1.250000000E+02  0.00000E+00  9.000E+00
      25     1     1     2     0     0 -1.198002163E+02 -1.307506469E+02 -1.627983358E+01  2.175726464E+02  1.250000000E+02  0.00000E+00  9.000E+00
      21     1     1     2   501   511  4.941912333E+01 -1.531509197E+01 -6.965908351E+00  5.220465182E+01  4.042583694E-07  0.00000E+00  9.000E+00
#rwgt            1           1   4.0557863562695196E-002          10       10977           0
</event>
<event>
      5   9999  3.79277E-02  1.10246E+02 -1.00000E+00  1.21952E-01
      21    -1     0     0   512   501  0.000000000E+00  0.000000000E+00  1.464334733E+02  1.464334733E+02  0.000000000E+00  0.00000E+00  9.000E+00
      21    -1     0     0   501   502  0.000000000E+00  0.000000000E+00 -5.347542210E+02  5.347542210E+02  0.000000000E+00  0.00000E+00  9.000E+00
      25     1     1     2     0     0  4.807265682E+00  6.773231925E+01 -4.102695143E+02  4.342313338E+02  1.250000000E+02  0.00000E+00  9.000E+00
      25     1     1     2     0     0 -2.638090243E+01  4.038216576E+01 -2.605317175E+00  1.340091751E+02  1.250000000E+02  0.00000E+00  9.000E+00
      21     1     1     2   512   502  2.157363675E+01 -1.081144850E+02  2.455408378E+01  1.129471855E+02  8.259061849E-07  0.00000E+00  9.000E+00
#rwgt            1           1   3.6997852851664480E-002          10       11118           0
</event>
<event>
      5   9999  3.79277E-02  6.85298E+01 -1.00000E+00  1.31689E-01
      21    -1     0     0   511   501  0.000000000E+00  0.000000000E+00  1.453583561E+02  1.453583561E+02  0.000000000E+00  0.00000E+00  9.000E+00
      21    -1     0     0   501   502  0.000000000E+00  0.000000000E+00 -4.540457152E+02  4.540457152E+02  0.000000000E+00  0.00000E+00  9.000E+00
      25     1     1     2     0     0  5.470604385E+01  9.559753136E+01 -1.920564058E+02  2.542485049E+02  1.250000000E+02  0.00000E+00  9.000E+00
      25     1     1     2     0     0 -8.969858705E+01 -3.667513370E+01 -1.883557761E+02  2.459548746E+02  1.250000000E+02  0.00000E+00  9.000E+00
      21     1     1     2   511   502  3.499254320E+01 -5.892239767E+01  7.172482288E+01  9.920069175E+01  2.132480600E-06  0.00000E+00  9.000E+00
#rwgt            1           1   4.8033603992230910E-002          10       11167           0
</event>
<event>
      5   9999  3.79277E-02  1.74866E+01 -1.00000E+00  1.71330E-01
      21    -1     0     0   502   501  0.000000000E+00  0.000000000E+00  6.700947173E+01  6.700947173E+01  0.000000000E+00  0.00000E+00  9.000E+00
      21    -1     0     0   512   502  0.000000000E+00  0.000000000E+00 -8.829019507E+02  8.829019507E+02  0.000000000E+00  0.00000E+00  9.000E+00
      25     1     1     2     0     0  1.618530711E+02  8.644482053E+01 -5.450469486E+02  5.885323269E+02  1.250000000E+02  0.00000E+00  9.000E+00
      25     1     1     2     0     0 -1.454731365E+02 -8.032277185E+01 -2.003775034E+02  2.887738301E+02  1.250000000E+02  0.00000E+00  9.000E+00
      21     1     1     2   512   501 -1.637993458E+01 -6.122048681E+00 -7.046802701E+01  7.260526543E+01  0.000000000E+00  0.00000E+00  9.000E+00
#rwgt            1           1   3.2956184365792750E-002          10       11305           0
</event>
<event>
      5   9999  3.79277E-02  2.89725E+01 -1.00000E+00  1.54099E-01
      21    -1     0     0   511   501  0.000000000E+00  0.000000000E+00  1.241300956E+03  1.241300956E+03  0.000000000E+00  0.00000E+00  9.000E+00
      21    -1     0     0   501   502  0.000000000E+00  0.000000000E+00 -7.757618350E+01  7.757618350E+01  0.000000000E+00  0.00000E+00  9.000E+00
      25     1     1     2     0     0 -1.866041045E+02 -8.626266175E+01  6.422853905E+02  6.858701491E+02  1.250000000E+02  0.00000E+00  9.000E+00
      25     1     1     2     0     0  2.153191580E+02  9.011637800E+01  2.638668771E+02  3.738101526E+02  1.250000000E+02  0.00000E+00  9.000E+00
      21     1     1     2   511   502 -2.871505347E+01 -3.853716244E+00  2.575725051E+02  2.591968379E+02  0.000000000E+00  0.00000E+00  9.000E+00
#rwgt            1           1  0.12326560182497803               10       11547           0
</event>
<event>
      5   9999  3.79277E-02  5.09634E+00 -1.00000E+00  2.37077E-01
      21    -1     0     0   502   512  0.000000000E+00  0.000000000E+00  6.449255413E+01  6.449255413E+01  0.000000000E+00  0.00000E+00  9.000E+00
      21    -1     0     0   501   502  0.000000000E+00  0.000000000E+00 -5.101941840E+02  5.101941840E+02  0.000000000E+00  0.00000E+00  9.000E+00
      25     1     1     2     0     0  8.529710022E+01 -1.322082925E+01 -3.003501035E+02  3.365792185E+02  1.250000000E+02  0.00000E+00  9.000E+00
      25     1     1     2     0     0 -9.039332639E+01  1.325553406E+01 -1.599704640E+02  2.226257218E+02  1.250000000E+02  0.00000E+00  9.000E+00
      21     1     1     2   501   512  5.096226171E+00 -3.470480736E-02  1.461893769E+01  1.548179785E+01  3.769728732E-07  0.00000E+00  9.000E+00
#rwgt            1           1   4.6985071294910884E-002          10       11732           0
</event>
<event>
      5   9999  3.79277E-02  9.99958E+01 -1.00000E+00  1.23829E-01
      21    -1     0     0   502   501  0.000000000E+00  0.000000000E+00  3.672398178E+02  3.672398178E+02  0.000000000E+00  0.00000E+00  9.000E+00
      21    -1     0     0   511   502  0.000000000E+00  0.000000000E+00 -3.170561500E+02  3.170561500E+02  0.000000000E+00  0.00000E+00  9.000E+00
      25     1     1     2     0     0  3.907607444E+01  7.204711065E+00 -2.197351329E+02  2.559050138E+02  1.250000000E+02  0.00000E+00  9.000E+00
      25     1     1     2     0     0 -1.198015252E+02  5.180859715E+01  2.740889165E+02  3.283081941E+02  1.250000000E+02  0.00000E+00  9.000E+00
      21     1     1     2   511   501  8.072545081E+01 -5.901330821E+01 -4.170115884E+00  1.000827599E+02  1.799033674E-06  0.00000E+00  9.000E+00
#rwgt            1           1   4.3375995730877207E-002          10       12098           0
</event>
<event>
      5   9999  3.79277E-02  8.26339E+01 -1.00000E+00  1.27672E-01
      21    -1     0     0   512   501  0.000000000E+00  0.000000000E+00  4.689367264E+02  4.689367264E+02  0.000000000E+00  0.00000E+00  9.000E+00
      21    -1     0     0   501   502  0.000000000E+00  0.000000000E+00 -7.704450172E+02  7.704450172E+02  0.000000000E+00  0.00000E+00  9.000E+00
      25     1     1     2     0     0  7.888688863E+01 -4.607809125E+01 -6.692676081E+02  6.869428382E+02  1.250000000E+02  0.00000E+00  9.000E+00
      25     1     1     2     0     0 -2.207647533E+00  7.687838103E+01 -2.690943314E+01  1.492121871E+02  1.250000000E+02  0.00000E+00  9.000E+00
      21     1     1     2   512   502 -7.667924110E+01 -3.080028978E+01  3.946687505E+02  4.032267184E+02  5.394796609E-06  0.00000E+00  9.000E+00
#rwgt            1           1   3.5960675154435282E-002          10       12275           0
</event>
<event>
      5   9999  3.79277E-02  8.28456E+01 -1.00000E+00  1.27619E-01
      21    -1     0     0   502   501  0.000000000E+00  0.000000000E+00  4.895247437E+02  4.895247437E+02  0.000000000E+00  0.00000E+00  9.000E+00
       1    -1     0     0   501     0  0.000000000E+00  0.000000000E+00 -8.054801858E+02  8.054801858E+02  0.000000000E+00  0.00000E+00  9.000E+00
      25     1     1     2     0     0 -7.894989652E+01 -3.148977924E+01  3.726235874E+02  4.021169360E+02  1.250000000E+02  0.00000E+00  9.000E+00
      25     1     1     2     0     0  1.543567975E-01  5.903566992E+00  6.067123318E+01  1.390714725E+02  1.250000000E+02  0.00000E+00  9.000E+00
       1     1     1     2   502     0  7.879553972E+01  2.558621224E+01 -7.492502626E+02  7.538165210E+02  1.078959322E-05  0.00000E+00  9.000E+00
#rwgt            1           1   4.7417691799761269E-002          10       12353           0
</event>
<event>
      5   9999  3.79277E-02  2.06967E+02 -1.00000E+00  1.11109E-01
      21    -1     0     0   502   501  0.000000000E+00  0.000000000E+00  7.134181799E+01  7.134181799E+01  0.000000000E+00  0.00000E+00  9.000E+00
       2    -1     0     0   501     0  0.000000000E+00  0.000000000E+00 -1.778384618E+03  1.778384618E+03  0.000000000E+00  0.00000E+00  9.000E+00
      25     1     1     2     0     0  6.605913023E+01 -1.739372579E+02 -8.167389565E+02  8.469389007E+02  1.250000000E+02  0.00000E+00  9.000E+00
      25     1     1     2     0     0  1.404105345E+02  1.595993010E+02 -3.907610903E+02  4.620674028E+02  1.250000000E+02  0.00000E+00  9.000E+00
       2     1     1     2   502     0 -2.064696647E+02  1.433795696E+01 -4.995427535E+02  5.407201329E+02  5.394796609E-06  0.00000E+00  9.000E+00
#rwgt            1           1   4.4058037348152460E-002          10       12504           0
</event>
<event>
      5   9999  3.79277E-02  7.01069E+01 -1.00000E+00  1.31187E-01
      21    -1     0     0   511   501  0.000000000E+00  0.000000000E+00  1.380665827E+02  1.380665827E+02  0.000000000E+00  0.00000E+00  9.000E+00
      21    -1     0     0   501   502  0.000000000E+00  0.000000000E+00 -5.719546462E+02  5.719546462E+02  0.000000000E+00  0.00000E+00  9.000E+00
      25     1     1     2     0     0  2.316494983E+01  6.482263617E+01 -4.711404343E+02  4.922772571E+02  1.250000000E+02  0.00000E+00  9.000E+00
      25     1     1     2     0     0 -7.039435034E+01 -1.301184728E+01  3.110941786E+01  1.473684790E+02  1.250000000E+02  0.00000E+00  9.000E+00
      21     1     1     2   511   502  4.722940051E+01 -5.181078888E+01  6.142952937E+00  7.037549281E+01  8.301966356E-07  0.00000E+00  9.000E+00
#rwgt            1           1   2.8647758834791735E-002          10       12608           0
</event>
<event>
      5   9999  3.79277E-02  6.38347E+01 -1.00000E+00  1.33281E-01
      21    -1     0     0   512   501  0.000000000E+00  0.000000000E+00  5.672467268E+02  5.672467268E+02  0.000000000E+00  0.00000E+00  9.000E+00
      21    -1     0     0   501   502  0.000000000E+00  0.000000000E+00 -2.616012382E+02  2.616012382E+02  0.000000000E+00  0.00000E+00  9.000E+00
      25     1     1     2     0     0  5.976342894E+00  1.120558372E+02  2.235450848E+01  1.694607665E+02  1.250000000E+02  0.00000E+00  9.000E+00
      25     1     1     2     0     0 -6.135245355E+01 -8.030120222E+01 -1.509335198E+02  2.204956553E+02  1.250000000E+02  0.00000E+00  9.000E+00
      21     1     1     2   512   502  5.537611065E+01 -3.175463501E+01  4.342244998E+02  4.388915433E+02  5.394796609E-06  0.00000E+00  9.000E+00
#rwgt            1           1   4.8673542500207542E-002          10       12781           0
</event>
<event>
      5   9999  3.79277E-02  3.49636E+01 -1.00000E+00  1.48560E-01
      21    -1     0     0   502   501  0.000000000E+00  0.000000000E+00  3.496707608E+02  3.496707608E+02  0.000000000E+00  0.00000E+00  9.000E+00
      21    -1     0     0   501   511  0.000000000E+00  0.000000000E+00 -2.881420772E+02  2.881420772E+02  0.000000000E+00  0.00000E+00  9.000E+00
      25     1     1     2     0     0 -1.803356128E+02  1.970383151E+02  2.170969604E+01  2.957048220E+02  1.250000000E+02  0.00000E+00  9.000E+00
      25     1     1     2     0     0  2.046648407E+02 -1.719276970E+02  6.087565919E+01  3.012933386E+02  1.250000000E+02  0.00000E+00  9.000E+00
      21     1     1     2   502   511 -2.432922790E+01 -2.511061805E+01 -2.105667165E+01  4.081467738E+01  3.371747881E-07  0.00000E+00  9.000E+00
#rwgt            1           1   4.3798213934924494E-002          10       12973           0
</event>
<event>
      5   9999  3.79277E-02  4.55851E+01 -1.00000E+00  1.41406E-01
      21    -1     0     0   502   501  0.000000000E+00  0.000000000E+00  3.171968607E+02  3.171968607E+02  0.000000000E+00  0.00000E+00  9.000E+00
      21    -1     0     0   512   502  0.000000000E+00  0.000000000E+00 -2.507001930E+02  2.507001930E+02  0.000000000E+00  0.00000E+00  9.000E+00
      25     1     1     2     0     0  3.230356686E+01  1.366623921E+02  1.720511177E+02  2.548464575E+02  1.250000000E+02  0.00000E+00  9.000E+00
      25     1     1     2     0     0 -4.479240718E+01 -9.282142281E+01  3.460508072E+01  1.656643833E+02  1.250000000E+02  0.00000E+00  9.000E+00
      21     1     1     2   512   501  1.248884031E+01 -4.384096926E+01 -1.401595306E+02  1.473862129E+02  1.907348633E-06  0.00000E+00  9.000E+00
#rwgt            1           1   4.1363922198298098E-002          10       13163           0
</event>
<event>
      5   9999  3.79277E-02  1.36051E+01 -1.00000E+00  1.81472E-01
      21    -1     0     0   502   511  0.000000000E+00  0.000000000E+00  1.353800428E+02  1.353800428E+02  0.000000000E+00  0.00000E+00  9.000E+00
      21    -1     0     0   501   502  0.000000000E+00  0.000000000E+00 -6.671553242E+02  6.671553242E+02  0.000000000E+00  0.00000E+00  9.000E+00
      25     1     1     2     0     0 -5.769525835E+00 -2.215516755E+02 -7.877853850E+01  2.663634556E+02  1.250000000E+02  0.00000E+00  9.000E+00
      25     1     1     2     0     0  6.241012960E+00  2.351486255E+02 -4.488592257E+02  5.219515599E+02  1.250000000E+02  0.00000E+00  9.000E+00
      21     1     1     2   501   511 -4.714871248E-01 -1.359694999E+01 -4.137517197E+00  1.422035153E+01  1.032382731E-07  0.00000E+00  9.000E+00
#rwgt            1           1   3.5505286227615694E-002          10       13276           0
</event>
<event>
      5   9999  3.79277E-02  4.05397E+01 -1.00000E+00  1.44480E-01
      21    -1     0     0   512   501  0.000000000E+00  0.000000000E+00  2.810890782E+02  2.810890782E+02  0.000000000E+00  0.00000E+00  9.000E+00
      21    -1     0     0   501   502  0.000000000E+00  0.000000000E+00 -3.366760752E+02  3.366760752E+02  0.000000000E+00  0.00000E+00  9.000E+00
      25     1     1     2     0     0 -1.506963695E+02  7.410405356E+01  1.413840085E+02  2.526167936E+02  1.250000000E+02  0.00000E+00  9.000E+00
      25     1     1     2     0     0  1.893733833E+02 -6.195673750E+01 -2.169174068E+02  3.199673062E+02  1.250000000E+02  0.00000E+00  9.000E+00
      21     1     1     2   512   502 -3.867701389E+01 -1.214731606E+01  1.994640118E+01  4.518105367E+01  8.259061849E-07  0.00000E+00  9.000E+00
#rwgt            1           1   6.2538478148593132E-002          10       13506           0
</event>
<event>
      5   9999  3.79277E-02  5.89561E+01 -1.00000E+00  1.35112E-01
      21    -1     0     0   502   511  0.000000000E+00  0.000000000E+00  5.779835615E+01  5.779835615E+01  0.000000000E+00  0.00000E+00  9.000E+00
      21    -1     0     0   501   502  0.000000000E+00  0.000000000E+00 -1.244472906E+03  1.244472906E+03  0.000000000E+00  0.00000E+00  9.000E+00
      25     1     1     2     0     0  1.287981123E+02 -1.552056350E+02 -4.381979776E+02  4.983173792E+02  1.250000000E+02  0.00000E+00  9.000E+00
      25     1     1     2     0     0 -1.170686521E+02  9.742813522E+01 -7.012786554E+02  7.284326073E+02  1.250000000E+02  0.00000E+00  9.000E+00
      21     1     1     2   501   511 -1.172946017E+01  5.777749974E+01 -4.719791671E+01  7.552127551E+01  1.651812370E-06  0.00000E+00  9.000E+00
#rwgt            1           1   3.1384011778251009E-002          10       13650           0
</event>
<event>
      5   9999  3.79277E-02  1.26138E+02 -1.00000E+00  1.19456E-01
      21    -1     0     0   502   501  0.000000000E+00  0.000000000E+00  2.024057338E+02  2.024057338E+02  0.000000000E+00  0.00000E+00  9.000E+00
      21    -1     0     0   512   502  0.000000000E+00  0.000000000E+00 -1.002658994E+03  1.002658994E+03  0.000000000E+00  0.00000E+00  9.000E+00
      25     1     1     2     0     0  6.704467092E+01  3.644504441E+02 -3.442562456E+02  5.210148527E+02  1.250000000E+02  0.00000E+00  9.000E+00
      25     1     1     2     0     0  3.471457662E+01 -2.899125161E+02 -1.463781345E+02  3.497226431E+02  1.250000000E+02  0.00000E+00  9.000E+00
      21     1     1     2   512   501 -1.017592475E+02 -7.453792805E+01 -3.096188798E+02  3.343272318E+02  3.814697266E-06  0.00000E+00  9.000E+00
#rwgt            1           1   3.2997059936042163E-002          10       13715           0
</event>
<event>
      5   9999  3.79277E-02  1.34575E+02 -1.00000E+00  1.18292E-01
      21    -1     0     0   502   501  0.000000000E+00  0.000000000E+00  3.729643852E+03  3.729643852E+03  0.000000000E+00  0.00000E+00  9.000E+00
      21    -1     0     0   501   511  0.000000000E+00  0.000000000E+00 -3.560628809E+01  3.560628809E+01  0.000000000E+00  0.00000E+00  9.000E+00
      25     1     1     2     0     0  1.320721657E+02 -2.023856950E+02  2.758501520E+03  2.771887202E+03  1.250000000E+02  0.00000E+00  9.000E+00
      25     1     1     2     0     0 -1.395257072E+02  6.801730237E+01  5.459529388E+02  5.811913521E+02  1.250000000E+02  0.00000E+00  9.000E+00
      21     1     1     2   502   511  7.453541463E+00  1.343683927E+02  3.895831047E+02  4.121715853E+02  7.629394531E-06  0.00000E+00  9.000E+00
#rwgt            1           1   5.7830802495065989E-003          10       13791           0
</event>
<event>
      5   9999  3.79277E-02  9.63537E+01 -1.00000E+00  1.24558E-01
      21    -1     0     0   502   501  0.000000000E+00  0.000000000E+00  1.133482902E+02  1.133482902E+02  0.000000000E+00  0.00000E+00  9.000E+00
      21    -1     0     0   501   512  0.000000000E+00  0.000000000E+00 -6.904686498E+02  6.904686498E+02  0.000000000E+00  0.00000E+00  9.000E+00
      25     1     1     2     0     0 -1.532081969E+02  9.026959330E+01 -1.901887016E+02  2.888219059E+02  1.250000000E+02  0.00000E+00  9.000E+00
      25     1     1     2     0     0  5.686320034E+01 -8.897120702E+01 -6.019855457E+01  1.743506960E+02  1.250000000E+02  0.00000E+00  9.000E+00
      21     1     1     2   502   512  9.634499660E+01 -1.298386278E+00 -3.267331034E+02  3.406443381E+02  6.607249480E-06  0.00000E+00  9.000E+00
#rwgt            1           1   8.3402739146914456E-002          10       13897           0
</event>
<event>
      5   9999  3.79277E-02  2.56337E+01 -1.00000E+00  1.57941E-01
       2    -1     0     0   502     0  0.000000000E+00  0.000000000E+00  1.381007991E+02  1.381007991E+02  0.000000000E+00  0.00000E+00  9.000E+00
      21    -1     0     0   501   502  0.000000000E+00  0.000000000E+00 -4.722051252E+02  4.722051252E+02  0.000000000E+00  0.00000E+00  9.000E+00
      25     1     1     2     0     0 -1.173698537E+02  1.091621710E+02 -3.323718833E+02  3.895999627E+02  1.250000000E+02  0.00000E+00  9.000E+00
      25     1     1     2     0     0  1.216708033E+02 -8.389183843E+01 -9.861874611E+00  1.938140384E+02  1.250000000E+02  0.00000E+00  9.000E+00
       2     1     1     2   501     0 -4.300949558E+00 -2.527033252E+01  8.129431742E+00  2.689192320E+01  3.769728732E-07  0.00000E+00  9.000E+00
#rwgt            1           1   3.0845103426274324E-002          10       13967           0
</event>
<event>
      5   9999  3.79277E-02  7.74661E+01 -1.00000E+00  1.29030E-01
      21    -1     0     0   502   501  0.000000000E+00  0.000000000E+00  1.240362478E+02  1.240362478E+02  0.000000000E+00  0.00000E+00  9.000E+00
      21    -1     0     0   501   511  0.000000000E+00  0.000000000E+00 -9.376271854E+02  9.376271854E+02  0.000000000E+00  0.00000E+00  9.000E+00
      25     1     1     2     0     0  2.819762599E+02  1.476402663E+01 -2.473610405E+02  3.956527163E+02  1.250000000E+02  0.00000E+00  9.000E+00
      25     1     1     2     0     0 -2.161956698E+02 -5.567754183E+01 -3.310521519E+02  4.184030158E+02  1.250000000E+02  0.00000E+00  9.000E+00
      21     1     1     2   502   511 -6.578059006E+01  4.091351520E+01 -2.351777453E+02  2.476077010E+02  3.814697266E-06  0.00000E+00  9.000E+00
#rwgt            1           1   3.2923724242611772E-002          10       14083           0
</event>
<event>
      5   9999 -3.79277E-02  7.95389E+01 -1.00000E+00  1.28471E-01
      21    -1     0     0   502   501  0.000000000E+00  0.000000000E+00  4.716222745E+02  4.716222745E+02  0.000000000E+00  0.00000E+00  9.000E+00
      21    -1     0     0   512   502  0.000000000E+00  0.000000000E+00 -3.565659322E+02  3.565659322E+02  0.000000000E+00  0.00000E+00  9.000E+00
      25     1     1     2     0     0 -3.089885356E+02 -1.116649866E+02  2.369252245E+02  4.239121918E+02  1.250000000E+02  0.00000E+00  9.000E+00
      25     1     1     2     0     0  2.641577196E+02  4.596387908E+01 -5.618296076E+01  3.011204146E+02  1.250000000E+02  0.00000E+00  9.000E+00
      21     1     1     2   512   501  4.483081603E+01  6.570110755E+01 -6.568592141E+01  1.031556003E+02  9.536743164E-07  0.00000E+00  9.000E+00
#rwgt            1           1 -0.16998776724176864               10       14173           0
</event>
<event>
      5   9999  3.79277E-02  5.74398E+01 -1.00000E+00  1.35723E-01
      21    -1     0     0   502   511  0.000000000E+00  0.000000000E+00  1.178183541E+02  1.178183541E+02  0.000000000E+00  0.00000E+00  9.000E+00
      21    -1     0     0   501   502  0.000000000E+00  0.000000000E+00 -9.901252047E+02  9.901252047E+02  0.000000000E+00  0.00000E+00  9.000E+00
      25     1     1     2     0     0  6.418635811E+00 -6.137573264E+00 -8.895576629E+02  8.983410846E+02  1.250000000E+02  0.00000E+00  9.000E+00
      25     1     1     2     0     0 -2.705684119E+01 -4.746643455E+01 -2.448782601E+01  1.385993820E+02  1.250000000E+02  0.00000E+00  9.000E+00
      21     1     1     2   501   511  2.063820538E+01  5.360400782E+01  4.173863832E+01  7.100309221E+01  2.286830675E-06  0.00000E+00  9.000E+00
#rwgt            1           1   4.8133951616226495E-002          10       14305           0
</event>
<event>
      5   9999  3.79277E-02  1.48752E+01 -1.00000E+00  1.77726E-01
       1    -1     0     0   502     0  0.000000000E+00  0.000000000E+00  1.750341196E+03  1.750341196E+03  0.000000000E+00  0.00000E+00  9.000E+00
      21    -1     0     0   501   502  0.000000000E+00  0.000000000E+00 -2.427524425E+02  2.427524425E+02  0.000000000E+00  0.00000E+00  9.000E+00
      25     1     1     2     0     0  2.620567367E+01  5.617328475E+01 -1.817549827E+02  2.291332560E+02  1.250000000E+02  0.00000E+00  9.000E+00
      25     1     1     2     0     0 -2.577451742E+01 -7.104223237E+01  1.058335585E+02  1.803803388E+02  1.250000000E+02  0.00000E+00  9.000E+00
       1     1     1     2   501     0 -4.311562541E-01  1.486894762E+01  1.583510178E+03  1.583580044E+03  2.157918644E-05  0.00000E+00  9.000E+00
#rwgt            1           1   5.4676262828850929E-002          10       14491           0
</event>
<event>
      5   9999  3.79277E-02  6.14678E+01 -1.00000E+00  1.34145E-01
      21    -1     0     0   502   501  0.000000000E+00  0.000000000E+00  9.072299462E+01  9.072299462E+01  0.000000000E+00  0.00000E+00  9.000E+00
      21    -1     0     0   511   502  0.000000000E+00  0.000000000E+00 -6.319630868E+02  6.319630868E+02  0.000000000E+00  0.00000E+00  9.000E+00
      25     1     1     2     0     0  1.369099844E+02 -6.617679315E+01 -1.181800187E+02  2.295979717E+02  1.250000000E+02  0.00000E+00  9.000E+00
      25     1     1     2     0     0 -8.005358794E+01  8.953587279E+01 -2.152307012E+02  2.763593751E+02  1.250000000E+02  0.00000E+00  9.000E+00
      21     1     1     2   511   501 -5.685639649E+01 -2.335907964E+01 -2.078293723E+02  2.167287346E+02  2.697398305E-06  0.00000E+00  9.000E+00
#rwgt            1           1   3.7849494383923488E-002          10       14775           0
</event>
<event>
      5   9999 -3.79277E-02  7.04766E+01 -1.00000E+00  1.31072E-01
      21    -1     0     0   502   512  0.000000000E+00  0.000000000E+00  1.536635739E+03  1.536635739E+03  0.000000000E+00  0.00000E+00  9.000E+00
      21    -1     0     0   501   502  0.000000000E+00  0.000000000E+00 -3.317441493E+01  3.317441493E+01  0.000000000E+00  0.00000E+00  9.000E+00
      25     1     1     2     0     0 -1.664590561E+01  1.028619239E+02  3.257867433E+02  3.641698280E+02  1.250000000E+02  0.00000E+00  9.000E+00
      25     1     1     2     0     0  8.670074903E+01 -9.516290766E+01  6.923274113E+02  7.152029385E+02  1.250000000E+02  0.00000E+00  9.000E+00
      21     1     1     2   501   512 -7.005484342E+01 -7.699016271E+00  4.853471691E+02  4.904373869E+02  5.394796609E-06  0.00000E+00  9.000E+00
#rwgt            1           1 -0.21098811379316179               10       14856           0
</event>
<event>
      5   9999  3.79277E-02  5.51628E+01 -1.00000E+00  1.36684E-01
      21    -1     0     0   502   501  0.000000000E+00  0.000000000E+00  3.485741072E+01  3.485741072E+01  0.000000000E+00  0.00000E+00  9.000E+00
      21    -1     0     0   501   511  0.000000000E+00  0.000000000E+00 -1.650079163E+03  1.650079163E+03  0.000000000E+00  0.00000E+00  9.000E+00
      25     1     1     2     0     0  4.719127240E+01  1.269839132E+02 -1.099360091E+03  1.114706033E+03  1.250000000E+02  0.00000E+00  9.000E+00
      25     1     1     2     0     0 -6.418980932E+01 -7.450545363E+01 -2.334417566E+02  2.824738005E+02  1.250000000E+02  0.00000E+00  9.000E+00
      21     1     1     2   502   511  1.699853692E+01 -5.247845953E+01 -2.824199046E+02  2.877567402E+02  3.814697266E-06  0.00000E+00  9.000E+00
#rwgt            1           1   4.7091360011446072E-002          10       14896           0
</event>
<event>
      5   9999  3.79277E-02  3.71976E+01 -1.00000E+00  1.46824E-01
       1    -1     0     0   502     0  0.000000000E+00  0.000000000E+00  6.948107135E+02  6.948107135E+02  0.000000000E+00  0.00000E+00  9.000E+00
      21    -1     0     0   501   502  0.000000000E+00  0.000000000E+00 -2.203312580E+02  2.203312580E+02  0.000000000E+00  0.00000E+00  9.000E+00
      25     1     1     2     0     0 -2.637063486E+02  1.507587698E+02  3.876689655E+02  5.081156087E+02  1.250000000E+02  0.00000E+00  9.000E+00
      25     1     1     2     0     0  2.967845588E+02 -1.337442001E+02  4.586300910E+01  3.517058444E+02  1.250000000E+02  0.00000E+00  9.000E+00
       1     1     1     2   501     0 -3.307821011E+01 -1.701456975E+01  4.094748092E+01  5.532051845E+01  9.536743164E-07  0.00000E+00  9.000E+00
#rwgt            1           1  0.22818013345830815               10       15002           0
</event>
<event>
      5   9999  3.79277E-02  1.89107E+02 -1.00000E+00  1.12541E-01
      21    -1     0     0   502   501  0.000000000E+00  0.000000000E+00  3.508055512E+02  3.508055512E+02  0.000000000E+00  0.00000E+00  9.000E+00
      -2    -1     0     0     0   502  0.000000000E+00  0.000000000E+00 -1.395119802E+03  1.395119802E+03  0.000000000E+00  0.00000E+00  9.000E+00
      25     1     1     2     0     0  7.081330601E+01 -5.479135198E+01  3.735258244E+01  1.582303131E+02  1.250000000E+02  0.00000E+00  9.000E+00
      25     1     1     2     0     0 -9.400188926E+01 -1.328881390E+02  2.033045762E+02  2.888829579E+02  1.250000000E+02  0.00000E+00  9.000E+00
      -2     1     1     2     0   501  2.318858324E+01  1.876794910E+02 -1.284971409E+03  1.298812082E+03  0.000000000E+00  0.00000E+00  9.000E+00
#rwgt            2           9   2.2897623743414877E-004          10       15209           0
</event>
<event>
      5   9999  3.79277E-02  5.33947E+01 -1.00000E+00  1.37467E-01
      21    -1     0     0   502   501  0.000000000E+00  0.000000000E+00  1.594688056E+03  1.594688056E+03  0.000000000E+00  0.00000E+00  9.000E+00
      21    -1     0     0   511   502  0.000000000E+00  0.000000000E+00 -2.098588763E+02  2.098588763E+02  0.000000000E+00  0.00000E+00  9.000E+00
      25     1     1     2     0     0  8.742981979E+01  8.774079544E+01  9.080508947E+02  9.249453216E+02  1.250000000E+02  0.00000E+00  9.000E+00
      25     1     1     2     0     0 -9.813402260E+01 -1.400515523E+02  6.576977337E+02  6.909674613E+02  1.250000000E+02  0.00000E+00  9.000E+00
      21     1     1     2   511   501  1.070420281E+01  5.231075684E+01 -1.809194489E+02  1.886341492E+02  3.303624740E-06  0.00000E+00  9.000E+00
#rwgt            1           1   3.6936459671725673E-002          10       15243           0
</event>
<event>
      5   9999 -3.79277E-02  1.90556E+01 -1.00000E+00  1.68121E-01
      21    -1     0     0   512   501  0.000000000E+00  0.000000000E+00  1.863098980E+02  1.863098980E+02  0.000000000E+00  0.00000E+00  9.000E+00
      21    -1     0     0   501   502  0.000000000E+00  0.000000000E+00 -2.367379740E+02  2.367379740E+02  0.000000000E+00  0.00000E+00  9.000E+00
      25     1     1     2     0     0 -1.606660691E+02  5.662063350E+00 -5.513455343E+01  2.109750310E+02  1.250000000E+02  0.00000E+00  9.000E+00
      25     1     1     2     0     0  1.461182819E+02  6.645609341E+00 -1.618954104E-01  1.924051523E+02  1.250000000E+02  0.00000E+00  9.000E+00
      21     1     1     2   512   502  1.454778729E+01 -1.230767269E+01  4.868372821E+00  1.966768863E+01  2.457562462E-07  0.00000E+00  9.000E+00
#rwgt            1           1  -5.6141997538231424E-002          10       15343           0
</event>
<event>
      5   9999  3.79277E-02  3.89003E+01 -1.00000E+00  1.45595E-01
       1    -1     0     0   502     0  0.000000000E+00  0.000000000E+00  7.501910330E+02  7.501910330E+02  0.000000000E+00  0.00000E+00  9.000E+00
      21    -1     0     0   501   502  0.000000000E+00  0.000000000E+00 -2.102182868E+02  2.102182868E+02  0.000000000E+00  0.00000E+00  9.000E+00
      25     1     1     2     0     0 -8.912839816E+01 -9.191549600E+01  1.624181284E+02  2.416546672E+02  1.250000000E+02  0.00000E+00  9.000E+00
      25     1     1     2     0     0  5.068882365E+01  8.594616642E+01 -1.322084687E+02  2.075094686E+02  1.250000000E+02  0.00000E+00  9.000E+00
       1     1     1     2   501     0  3.843957452E+01  5.969329575E+00  5.097630864E+02  5.112451839E+02  7.629394531E-06  0.00000E+00  9.000E+00
#rwgt            1           1   3.9500675306095565E-002          10       15512           0
</event>
<event>
      5   9999  3.79277E-02  6.69090E+00 -1.00000E+00  2.18364E-01
      21    -1     0     0   511   501  0.000000000E+00  0.000000000E+00  2.416581232E+03  2.416581232E+03  0.000000000E+00  0.00000E+00  9.000E+00
      21    -1     0     0   501   502  0.000000000E+00  0.000000000E+00 -2.103972811E+01  2.103972811E+01  0.000000000E+00  0.00000E+00  9.000E+00
      25     1     1     2     0     0  1.473804861E+02  5.632295321E+01  6.710006094E+02  7.005427186E+02  1.250000000E+02  0.00000E+00  9.000E+00
      25     1     1     2     0     0 -1.409503063E+02 -5.447339103E+01  1.542795435E+03  1.555209662E+03  1.250000000E+02  0.00000E+00  9.000E+00
      21     1     1     2   511   502 -6.430179875E+00 -1.849562178E+00  1.817454595E+02  1.818685794E+02  0.000000000E+00  0.00000E+00  9.000E+00
#rwgt            1           1   8.5850949982879801E-002          10       15641           0
</event>
<event>
      5   9999  3.79277E-02  1.13512E+01 -1.00000E+00  1.89602E-01
      21    -1     0     0   502   501  0.000000000E+00  0.000000000E+00  1.902400247E+02  1.902400247E+02  0.000000000E+00  0.00000E+00  9.000E+00
      21    -1     0     0   501   512  0.000000000E+00  0.000000000E+00 -2.655595480E+02  2.655595480E+02  0.000000000E+00  0.00000E+00  9.000E+00
      25     1     1     2     0     0 -6.071110003E+01  1.630960452E+02 -4.834054367E-01  2.142694362E+02  1.250000000E+02  0.00000E+00  9.000E+00
      25     1     1     2     0     0  4.936605316E+01 -1.634704683E+02 -5.496479867E+01  2.186452156E+02  1.250000000E+02  0.00000E+00  9.000E+00
      21     1     1     2   502   512  1.134504687E+01  3.744230956E-01 -1.987131913E+01  2.288492091E+01  2.384185791E-07  0.00000E+00  9.000E+00
#rwgt            1           1   3.7985599712646707E-002          10       15930           0
</event>
<event>
      5   9999  3.79277E-02  3.55673E+01 -1.00000E+00  1.48076E-01
      21    -1     0     0   502   511  0.000000000E+00  0.000000000E+00  9.725246256E+01  9.725246256E+01  0.000000000E+00  0.00000E+00  9.000E+00
      21    -1     0     0   501   502  0.000000000E+00  0.000000000E+00 -4.447632180E+02  4.447632180E+02  0.000000000E+00  0.00000E+00  9.000E+00
      25     1     1     2     0     0  7.100584000E+01 -1.529587730E+01 -3.202020982E+02  3.513263111E+02  1.250000000E+02  0.00000E+00  9.000E+00
      25     1     1     2     0     0 -5.753856301E+01  4.821496842E+01  6.249458573E-02  1.458093732E+02  1.250000000E+02  0.00000E+00  9.000E+00
      21     1     1     2   501   511 -1.346727698E+01 -3.291909112E+01 -2.737115181E+01  4.487999622E+01  5.840038640E-07  0.00000E+00  9.000E+00
#rwgt            1           1   3.1184299275098571E-002          10       16180           0
</event>
<event>
      5   9999 -3.79277E-02  5.31644E+01 -1.00000E+00  1.37572E-01
      21    -1     0     0   502   501  0.000000000E+00  0.000000000E+00  1.507969446E+02  1.507969446E+02  0.000000000E+00  0.00000E+00  9.000E+00
      21    -1     0     0   501   512  0.000000000E+00  0.000000000E+00 -4.136148224E+02  4.136148224E+02  0.000000000E+00  0.00000E+00  9.000E+00
      25     1     1     2     0     0 -1.152277333E+02  2.628168733E+01 -1.905592040E+02  2.567215765E+02  1.250000000E+02  0.00000E+00  9.000E+00
      25     1     1     2     0     0  1.559949825E+02  7.842934573E+00  2.016550638E+01  2.010661429E+02  1.250000000E+02  0.00000E+00  9.000E+00
      21     1     1     2   502   512 -4.076724919E+01 -3.412462190E+01 -9.242418031E+01  1.066240476E+02  1.907348633E-06  0.00000E+00  9.000E+00
#rwgt            1           1  -2.7799894878568175E-002          10       16412           0
</event>
<event>
      5   9999  3.79277E-02  6.95975E+01 -1.00000E+00  1.31348E-01
      21    -1     0     0   502   501  0.000000000E+00  0.000000000E+00  2.373778258E+02  2.373778258E+02  0.000000000E+00  0.00000E+00  9.000E+00
      21    -1     0     0   511   502  0.000000000E+00  0.000000000E+00 -2.893780857E+02  2.893780857E+02  0.000000000E+00  0.00000E+00  9.000E+00
      25     1     1     2     0     0 -3.575889955E+00 -7.256671571E+01  1.456545561E+02  2.052290548E+02  1.250000000E+02  0.00000E+00  9.000E+00
      25     1     1     2     0     0 -6.048800972E+01  9.976287320E+01 -1.829097659E+02  2.503845296E+02  1.250000000E+02  0.00000E+00  9.000E+00
      21     1     1     2   511   501  6.406389967E+01 -2.719615749E+01 -1.474505007E+01  7.114232724E+01  1.052827938E-06  0.00000E+00  9.000E+00
#rwgt            1           1   4.2619924485029576E-002          10       16483           0
</event>
<event>
      5   9999  3.79277E-02  9.86037E+00 -1.00000E+00  1.96466E-01
      21    -1     0     0   502   501  0.000000000E+00  0.000000000E+00  6.222249194E+01  6.222249194E+01  0.000000000E+00  0.00000E+00  9.000E+00
      21    -1     0     0   512   502  0.000000000E+00  0.000000000E+00 -7.356334184E+02  7.356334184E+02  0.000000000E+00  0.00000E+00  9.000E+00
      25     1     1     2     0     0 -7.636670973E+01  1.373963553E+02 -2.852414901E+02  3.488514591E+02  1.250000000E+02  0.00000E+00  9.000E+00
      25     1     1     2     0     0  7.539937101E+01 -1.472091633E+02 -3.279584936E+02  3.879914644E+02  1.250000000E+02  0.00000E+00  9.000E+00
      21     1     1     2   512   501  9.673387163E-01  9.812807939E+00 -6.021094273E+01  6.101298688E+01  6.743495762E-07  0.00000E+00  9.000E+00
#rwgt            1           1   3.9271069918131458E-002          10       16581           0
</event>
<event>
      5   9999  3.79277E-02  3.93467E+01 -1.00000E+00  1.45285E-01
      21    -1     0     0   502   501  0.000000000E+00  0.000000000E+00  1.060885312E+03  1.060885312E+03  0.000000000E+00  0.00000E+00  9.000E+00
      -2    -1     0     0     0   502  0.000000000E+00  0.000000000E+00 -1.876274608E+02  1.876274608E+02  0.000000000E+00  0.00000E+00  9.000E+00
      25     1     1     2     0     0  8.938883312E+00  1.742363071E+02  8.939521021E+02  9.193549670E+02  1.250000000E+02  0.00000E+00  9.000E+00
      25     1     1     2     0     0 -4.636101648E+01 -1.863914663E+02  6.215205460E+01  2.374426256E+02  1.250000000E+02  0.00000E+00  9.000E+00
      -2     1     1     2     0   501  3.742213317E+01  1.215515919E+01 -8.284630555E+01  9.171518026E+01  1.348699152E-06  0.00000E+00  9.000E+00
#rwgt            1           1   4.1226719120490203E-002          10       16876           0
</event>
<event>
      5   9999  3.79277E-02  1.17887E+02 -1.00000E+00  1.20697E-01
      21    -1     0     0   502   501  0.000000000E+00  0.000000000E+00  2.427609790E+02  2.427609790E+02  0.000000000E+00  0.00000E+00  9.000E+00
      21    -1     0     0   511   502  0.000000000E+00  0.000000000E+00 -8.724101120E+02  8.724101120E+02  0.000000000E+00  0.00000E+00  9.000E+00
      25     1     1     2     0     0  1.564920386E+02  1.922664923E+02 -1.479361227E+02  3.145890313E+02  1.250000000E+02  0.00000E+00  9.000E+00
      25     1     1     2     0     0 -3.975775754E+01 -2.087134705E+02  5.374503626E+01  2.523004578E+02  1.250000000E+02  0.00000E+00  9.000E+00
      21     1     1     2   511   501 -1.167342811E+02  1.644697826E+01 -5.354580465E+02  5.482816020E+02  1.078959322E-05  0.00000E+00  9.000E+00
#rwgt            1           1   4.1286031617075038E-002          10       16992           0
</event>
<event>
      5   9999  3.79277E-02  1.51186E+01 -1.00000E+00  1.77062E-01
      21    -1     0     0   502   501  0.000000000E+00  0.000000000E+00  6.896177633E+02  6.896177633E+02  0.000000000E+00  0.00000E+00  9.000E+00
      21    -1     0     0   501   512  0.000000000E+00  0.000000000E+00 -1.803438885E+02  1.803438885E+02  0.000000000E+00  0.00000E+00  9.000E+00
      25     1     1     2     0     0 -1.574236694E+02  1.984236529E+02  4.119013611E+02  4.994415772E+02  1.250000000E+02  0.00000E+00  9.000E+00
      25     1     1     2     0     0  1.581856637E+02 -1.833242276E+02  1.532484677E+02  3.126348821E+02  1.250000000E+02  0.00000E+00  9.000E+00
      21     1     1     2   502   512 -7.619943450E-01 -1.509942528E+01 -5.587595400E+01  5.788519253E+01  9.536743164E-07  0.00000E+00  9.000E+00
#rwgt            1           1   6.1959957173876208E-002          10       17154           0
</event>
<event>
      5   9999  3.79277E-02  1.01110E+02 -1.00000E+00  1.23613E-01
      21    -1     0     0   502   501  0.000000000E+00  0.000000000E+00  2.455991956E+02  2.455991956E+02  0.000000000E+00  0.00000E+00  9.000E+00
      21    -1     0     0   501   511  0.000000000E+00  0.000000000E+00 -7.842466866E+02  7.842466866E+02  0.000000000E+00  0.00000E+00  9.000E+00
      25     1     1     2     0     0  1.051571374E+01  1.890209041E+02 -7.667300370E+01  2.394644690E+02  1.250000000E+02  0.00000E+00  9.000E+00
      25     1     1     2     0     0 -8.944207671E+01 -1.258233093E+02  9.789902143E+01  2.214511428E+02  1.250000000E+02  0.00000E+00  9.000E+00
      21     1     1     2   502   511  7.892636297E+01 -6.319759479E+01 -5.598735087E+02  5.689302703E+02  7.629394531E-06  0.00000E+00  9.000E+00
#rwgt            1           1   4.5901835776265991E-002          10       17386           0
</event>
<event>
      5   9999  3.79277E-02  1.63997E+02 -1.00000E+00  1.14879E-01
      21    -1     0     0   502   501  0.000000000E+00  0.000000000E+00  5.758733539E+02  5.758733539E+02  0.000000000E+00  0.00000E+00  9.000E+00
       2    -1     0     0   501     0  0.000000000E+00  0.000000000E+00 -8.521434733E+02  8.521434733E+02  0.000000000E+00  0.00000E+00  9.000E+00
      25     1     1     2     0     0  6.258235328E+01  1.215146066E+01  2.884995547E+02  3.208133445E+02  1.250000000E+02  0.00000E+00  9.000E+00
      25     1     1     2     0     0 -5.410983215E+01 -1.759291126E+02  2.155818896E+02  3.098055483E+02  1.250000000E+02  0.00000E+00  9.000E+00
       2     1     1     2   502     0 -8.472521136E+00  1.637776520E+02 -7.803515637E+02  7.973979345E+02  0.000000000E+00  0.00000E+00  9.000E+00
#rwgt            1           1   4.8051776078781035E-002          10       17572           0
</event>
<event>
      5   9999  3.79277E-02  1.00022E+02 -1.00000E+00  1.23824E-01
      21    -1     0     0   502   501  0.000000000E+00  0.000000000E+00  1.115294498E+03  1.115294498E+03  0.000000000E+00  0.00000E+00  9.000E+00
      21    -1     0     0   501   511  0.000000000E+00  0.000000000E+00 -1.113891265E+02  1.113891265E+02  0.000000000E+00  0.00000E+00  9.000E+00
      25     1     1     2     0     0 -4.163742235E+01 -1.175187057E+02  8.467052444E+02  8.649156560E+02  1.250000000E+02  0.00000E+00  9.000E+00
      25     1     1     2     0     0  1.416550679E+02  1.184436589E+02  1.300205659E+02  2.581189767E+02  1.250000000E+02  0.00000E+00  9.000E+00
      21     1     1     2   502   511 -1.000176455E+02 -9.249532435E-01  2.717956128E+01  1.036489918E+02  1.877309769E-06  0.00000E+00  9.000E+00
#rwgt            1           1   4.2202187701199344E-002          10       17636           0
</event>
<event>
      5   9999  3.79277E-02  1.31562E+01 -1.00000E+00  1.82923E-01
      21    -1     0     0   502   501  0.000000000E+00  0.000000000E+00  2.321253158E+02  2.321253158E+02  0.000000000E+00  0.00000E+00  9.000E+00
      21    -1     0     0   512   502  0.000000000E+00  0.000000000E+00 -3.574808471E+02  3.574808471E+02  0.000000000E+00  0.00000E+00  9.000E+00
      25     1     1     2     0     0  1.372323813E+02 -1.999382638E+02 -4.273312316E+01  2.761506031E+02  1.250000000E+02  0.00000E+00  9.000E+00
      25     1     1     2     0     0 -1.460460585E+02  2.097057733E+02 -6.561325893E+01  2.919521575E+02  1.250000000E+02  0.00000E+00  9.000E+00
      21     1     1     2   512   501  8.813677166E+00 -9.767509490E+00 -1.700914929E+01  2.150340221E+01  3.371747881E-07  0.00000E+00  9.000E+00
#rwgt            1           1   3.3285577233597763E-002          10       17723           0
</event>
<event>
      5   9999  3.79277E-02  2.90438E+01 -1.00000E+00  1.54023E-01
      21    -1     0     0   502   511  0.000000000E+00  0.000000000E+00  5.549608688E+01  5.549608688E+01  0.000000000E+00  0.00000E+00  9.000E+00
      21    -1     0     0   501   502  0.000000000E+00  0.000000000E+00 -1.581335472E+03  1.581335472E+03  0.000000000E+00  0.00000E+00  9.000E+00
      25     1     1     2     0     0  3.527189322E+01  1.450452579E+02 -1.000822592E+03  1.019584765E+03  1.250000000E+02  0.00000E+00  9.000E+00
      25     1     1     2     0     0 -3.215698892E+01 -1.161689350E+02 -5.513457056E+02  5.780453100E+02  1.250000000E+02  0.00000E+00  9.000E+00
      21     1     1     2   501   511 -3.114904301E+00 -2.887632291E+01  2.632891257E+01  3.920148327E+01  1.066240300E-06  0.00000E+00  9.000E+00
#rwgt            1           1   4.0371288499876187E-002          10       18045           0
</event>
<event>
      5   9999  3.79277E-02  6.60773E+01 -1.00000E+00  1.32502E-01
      21    -1     0     0   502   501  0.000000000E+00  0.000000000E+00  1.090626994E+03  1.090626994E+03  0.000000000E+00  0.00000E+00  9.000E+00
      21    -1     0     0   512   502  0.000000000E+00  0.000000000E+00 -1.205392810E+02  1.205392810E+02  0.000000000E+00  0.00000E+00  9.000E+00
      25     1     1     2     0     0  2.863259929E+01 -1.387910574E+02  8.571667391E+02  8.777485984E+02  1.250000000E+02  0.00000E+00  9.000E+00
      25     1     1     2     0     0  3.575228313E+01  1.239316685E+02  1.690956425E+02  2.466893199E+02  1.250000000E+02  0.00000E+00  9.000E+00
      21     1     1     2   512   501 -6.438488242E+01  1.485938892E+01 -5.617466841E+01  8.672835692E+01  3.371747881E-06  0.00000E+00  9.000E+00
#rwgt            1           1   4.2426793702452774E-002          10       18210           0
</event>
<event>
      5   9999  3.79277E-02  6.32527E+01 -1.00000E+00  1.33490E-01
      21    -1     0     0   502   501  0.000000000E+00  0.000000000E+00  3.208812746E+02  3.208812746E+02  0.000000000E+00  0.00000E+00  9.000E+00
      21    -1     0     0   511   502  0.000000000E+00  0.000000000E+00 -1.634228788E+02  1.634228788E+02  0.000000000E+00  0.00000E+00  9.000E+00
      25     1     1     2     0     0  5.811069333E+01  1.391422038E+02  1.065383530E+02  2.229637329E+02  1.250000000E+02  0.00000E+00  9.000E+00
      25     1     1     2     0     0 -1.030158656E+02 -9.459526839E+01  6.109024997E+01  1.972753203E+02  1.250000000E+02  0.00000E+00  9.000E+00
      21     1     1     2   511   501  4.490517223E+01 -4.454693540E+01 -1.017020713E+01  6.406510017E+01  4.768371582E-07  0.00000E+00  9.000E+00
#rwgt            1           1   4.3275560740568771E-002          10       18348           0
</event>
<event>
      5   9999  3.79277E-02  3.63300E+01 -1.00000E+00  1.47481E-01
      21    -1     0     0   502   501  0.000000000E+00  0.000000000E+00  1.269559504E+02  1.269559504E+02  0.000000000E+00  0.00000E+00  9.000E+00
      21    -1     0     0   512   502  0.000000000E+00  0.000000000E+00 -4.424843114E+02  4.424843114E+02  0.000000000E+00  0.00000E+00  9.000E+00
      25     1     1     2     0     0 -1.599406173E+02  6.388388363E+01 -2.502148067E+02  3.284731361E+02  1.250000000E+02  0.00000E+00  9.000E+00
      25     1     1     2     0     0  1.250517580E+02 -7.401475038E+01 -3.774360865E+01  1.953604501E+02  1.250000000E+02  0.00000E+00  9.000E+00
      21     1     1     2   512   501  3.488885924E+01  1.013086676E+01 -2.756994570E+01  4.560667567E+01  3.371747881E-07  0.00000E+00  9.000E+00
#rwgt            1           1   3.2514903099314867E-002          10       18437           0
</event>
<event>
      5   9999  3.79277E-02  1.95181E+02 -1.00000E+00  1.12035E-01
      21    -1     0     0   502   501  0.000000000E+00  0.000000000E+00  2.937324770E+01  2.937324770E+01  0.000000000E+00  0.00000E+00  9.000E+00
       2    -1     0     0   501     0  0.000000000E+00  0.000000000E+00 -4.474159393E+03  4.474159393E+03  0.000000000E+00  0.00000E+00  9.000E+00
      25     1     1     2     0     0 -2.044608637E+02 -1.972815455E+01 -2.460615664E+03  2.472336525E+03  1.250000000E+02  0.00000E+00  9.000E+00
      25     1     1     2     0     0  3.608321285E+01  1.184425136E+02 -4.268002649E+02  4.616428202E+02  1.250000000E+02  0.00000E+00  9.000E+00
       2     1     1     2   502     0  1.683776509E+02 -9.871435901E+01 -1.557370216E+03  1.569553296E+03  2.157918644E-05  0.00000E+00  9.000E+00
#rwgt            1           1   6.6969678482240488E-002          10       18814           0
</event>
<event>
      5   9999 -3.79277E-02  9.11294E+01 -1.00000E+00  1.25670E-01
      21    -1     0     0   502   501  0.000000000E+00  0.000000000E+00  2.501172704E+02  2.501172704E+02  0.000000000E+00  0.00000E+00  9.000E+00
      21    -1     0     0   501   511  0.000000000E+00  0.000000000E+00 -1.422448351E+03  1.422448351E+03  0.000000000E+00  0.00000E+00  9.000E+00
      25     1     1     2     0     0  2.105335746E+01  1.934144826E+02 -5.635403819E+01  2.380192924E+02  1.250000000E+02  0.00000E+00  9.000E+00
      25     1     1     2     0     0 -1.113421611E+02 -2.057638326E+02  4.581676929E+01  2.691839668E+02  1.250000000E+02  0.00000E+00  9.000E+00
      21     1     1     2   502   511  9.028880360E+01  1.234934994E+01 -1.161793812E+03  1.165362363E+03  2.157918644E-05  0.00000E+00  9.000E+00
#rwgt            1           1  -1.9841482284605506E-002          10       18901           0
</event>
<event>
      5   9999  3.79277E-02  2.83266E+01 -1.00000E+00  1.54792E-01
       2    -1     0     0   502     0  0.000000000E+00  0.000000000E+00  2.858843347E+02  2.858843347E+02  0.000000000E+00  0.00000E+00  9.000E+00
      21    -1     0     0   501   502  0.000000000E+00  0.000000000E+00 -2.301382488E+02  2.301382488E+02  0.000000000E+00  0.00000E+00  9.000E+00
      25     1     1     2     0     0 -1.400451922E+02  1.158502929E+02 -3.746601046E+01  2.237468394E+02  1.250000000E+02  0.00000E+00  9.000E+00
      25     1     1     2     0     0  1.618674388E+02 -1.339108909E+02  6.649485495E+01  2.533372460E+02  1.250000000E+02  0.00000E+00  9.000E+00
       2     1     1     2   501     0 -2.182224663E+01  1.806059806E+01  2.671724138E+01  3.893849813E+01  4.768371582E-07  0.00000E+00  9.000E+00
#rwgt            2          18   1.8299265504510266E-005          10       19085           0
</event>
<event>
      5   9999  3.79277E-02  4.83253E+01 -1.00000E+00  1.39925E-01
      21    -1     0     0   502   511  0.000000000E+00  0.000000000E+00  9.246019399E+02  9.246019399E+02  0.000000000E+00  0.00000E+00  9.000E+00
      21    -1     0     0   501   502  0.000000000E+00  0.000000000E+00 -1.322345677E+03  1.322345677E+03  0.000000000E+00  0.00000E+00  9.000E+00
      25     1     1     2     0     0 -1.067852613E+02 -7.324156529E+01 -4.815428700E+02  5.140777710E+02  1.250000000E+02  0.00000E+00  9.000E+00
      25     1     1     2     0     0  1.535858677E+02  8.528482517E+01 -8.097763504E+02  8.379885785E+02  1.250000000E+02  0.00000E+00  9.000E+00
      21     1     1     2   501   511 -4.680060641E+01 -1.204325989E+01  8.935754837E+02  8.948812670E+02  1.868812365E-05  0.00000E+00  9.000E+00
#rwgt            1           1   3.6337474999474435E-002          10       19149           0
</event>
<event>
      5   9999  3.79277E-02  1.41157E+02 -1.00000E+00  1.17449E-01
      21    -1     0     0   512   501  0.000000000E+00  0.000000000E+00  1.000900441E+02  1.000900441E+02  0.000000000E+00  0.00000E+00  9.000E+00
      21    -1     0     0   501   502  0.000000000E+00  0.000000000E+00 -8.050173552E+02  8.050173552E+02  0.000000000E+00  0.00000E+00  9.000E+00
      25     1     1     2     0     0  7.153909244E+01 -9.128134559E+01 -5.503345257E+02  5.761451345E+02  1.250000000E+02  0.00000E+00  9.000E+00
      25     1     1     2     0     0  6.280171633E+01  4.794882087E+01 -9.485087516E+01  1.756839023E+02  1.250000000E+02  0.00000E+00  9.000E+00
      21     1     1     2   512   502 -1.343408088E+02  4.333252472E+01 -5.974191023E+01  1.532783626E+02  9.536743164E-07  0.00000E+00  9.000E+00
#rwgt            1           1   2.8402617588895371E-002          10       19377           0
</event>
<event>
      5   9999  3.79277E-02  5.52647E+01 -1.00000E+00  1.36639E-01
      21    -1     0     0   502   501  0.000000000E+00  0.000000000E+00  1.007069469E+03  1.007069469E+03  0.000000000E+00  0.00000E+00  9.000E+00
      21    -1     0     0   501   511  0.000000000E+00  0.000000000E+00 -6.080569563E+01  6.080569563E+01  0.000000000E+00  0.00000E+00  9.000E+00
      25     1     1     2     0     0  7.758497286E+01  1.734773161E+02  5.283547870E+02  5.752369843E+02  1.250000000E+02  0.00000E+00  9.000E+00
      25     1     1     2     0     0 -1.024119379E+02 -1.241031272E+02  3.510522086E+02  4.058970859E+02  1.250000000E+02  0.00000E+00  9.000E+00
      21     1     1     2   502   511  2.482696503E+01 -4.937418890E+01  6.685677803E+01  8.674109460E+01  9.536743164E-07  0.00000E+00  9.000E+00
#rwgt            1           1  0.12300895459508815               10       19676           0
</event>
<event>
      5   9999  3.79277E-02  5.30276E+01 -1.00000E+00  1.37634E-01
      21    -1     0     0   512   501  0.000000000E+00  0.000000000E+00  3.045719559E+02  3.045719559E+02  0.000000000E+00  0.00000E+00  9.000E+00
      21    -1     0     0   501   502  0.000000000E+00  0.000000000E+00 -6.753666144E+02  6.753666144E+02  0.000000000E+00  0.00000E+00  9.000E+00
      25     1     1     2     0     0 -1.500422080E+00  7.451649911E+01  9.462246852E+01  1.735896640E+02  1.250000000E+02  0.00000E+00  9.000E+00
      25     1     1     2     0     0 -3.902303092E+01 -1.087185423E+02 -6.199932333E+02  6.429301110E+02  1.250000000E+02  0.00000E+00  9.000E+00
      21     1     1     2   512   502  4.052345300E+01  3.420204318E+01  1.545761063E+02  1.634187953E+02  2.697398305E-06  0.00000E+00  9.000E+00
#rwgt            1           1   3.6271157286943426E-002          10       19799           0
</event>
<event>
      5   9999  3.79277E-02  2.92365E+01 -1.00000E+00  1.53822E-01
      21    -1     0     0   502   501  0.000000000E+00  0.000000000E+00  3.746589732E+02  3.746589732E+02  0.000000000E+00  0.00000E+00  9.000E+00
      21    -1     0     0   501   511  0.000000000E+00  0.000000000E+00 -2.246718832E+02  2.246718832E+02  0.000000000E+00  0.00000E+00  9.000E+00
      25     1     1     2     0     0  9.779772589E+01  1.559847816E+02  2.197851965E+02  3.127717697E+02  1.250000000E+02  0.00000E+00  9.000E+00
      25     1     1     2     0     0 -6.985079279E+01 -1.473975164E+02  5.719723997E+00  2.055793675E+02  1.250000000E+02  0.00000E+00  9.000E+00
      21     1     1     2   502   511 -2.794693310E+01 -8.587265212E+00 -7.551783053E+01  8.097971920E+01  9.536743164E-07  0.00000E+00  9.000E+00
#rwgt            1           1   3.8052972002184715E-002          10       19956           0
</event>
<event>
      5   9999  3.79277E-02  2.40022E+01 -1.00000E+00  1.60087E-01
      21    -1     0     0   502   501  0.000000000E+00  0.000000000E+00  2.266673429E+01  2.266673429E+01  0.000000000E+00  0.00000E+00  9.000E+00
      21    -1     0     0   512   502  0.000000000E+00  0.000000000E+00 -1.479285039E+03  1.479285039E+03  0.000000000E+00  0.00000E+00  9.000E+00
      25     1     1     2     0     0  3.886504408E+01  4.529288877E+01 -9.046068517E+02  9.151505306E+02  1.250000000E+02  0.00000E+00  9.000E+00
      25     1     1     2     0     0 -2.800233662E+01 -6.669634173E+01 -2.927937786E+02  3.264746999E+02  1.250000000E+02  0.00000E+00  9.000E+00
      21     1     1     2   512   501 -1.086270746E+01  2.140345296E+01 -2.592176745E+02  2.603265430E+02  5.394796609E-06  0.00000E+00  9.000E+00
#rwgt            1           1   3.4229209021757009E-002          10       20137           0
</event>
<event>
      5   9999  3.79277E-02  2.63388E+01 -1.00000E+00  1.57072E-01
      21    -1     0     0   511   501  0.000000000E+00  0.000000000E+00  2.632141716E+03  2.632141716E+03  0.000000000E+00  0.00000E+00  9.000E+00
      21    -1     0     0   501   502  0.000000000E+00  0.000000000E+00 -6.017653271E+01  6.017653271E+01  0.000000000E+00  0.00000E+00  9.000E+00
      25     1     1     2     0     0  2.112689600E+02  1.184422230E+02  2.110410443E+03  2.127938056E+03  1.250000000E+02  0.00000E+00  9.000E+00
      25     1     1     2     0     0 -2.309189469E+02 -1.009033957E+02  3.463010374E+02  4.461552015E+02  1.250000000E+02  0.00000E+00  9.000E+00
      21     1     1     2   511   502  1.964998685E+01 -1.753882731E+01  1.152537025E+02  1.182249905E+02  0.000000000E+00  0.00000E+00  9.000E+00
#rwgt            1           1   9.1757106260705878E-002          10       20387           0
</event>
<event>
      5   9999  3.79277E-02  1.12966E+02 -1.00000E+00  1.21492E-01
      21    -1     0     0   502   501  0.000000000E+00  0.000000000E+00  2.642004626E+02  2.642004626E+02  0.000000000E+00  0.00000E+00  9.000E+00
       2    -1     0     0   501     0  0.000000000E+00  0.000000000E+00 -1.293181577E+03  1.293181577E+03  0.000000000E+00  0.00000E+00  9.000E+00
      25     1     1     2     0     0 -6.800504900E+01 -1.296770760E+02  9.634469724E+01  2.152861617E+02  1.250000000E+02  0.00000E+00  9.000E+00
      25     1     1     2     0     0  1.545477698E+02  2.022826878E+02 -8.557811205E+01  2.962294924E+02  1.250000000E+02  0.00000E+00  9.000E+00
       2     1     1     2   502     0 -8.654272079E+01 -7.260561181E+01 -1.039747700E+03  1.045866385E+03  2.157918644E-05  0.00000E+00  9.000E+00
#rwgt            1           1   3.9968172412178517E-002          10       20575           0
</event>
<event>
      5   9999  3.79277E-02  9.72821E+00 -1.00000E+00  1.97151E-01
      21    -1     0     0   502   501  0.000000000E+00  0.000000000E+00  1.144188858E+03  1.144188858E+03  0.000000000E+00  0.00000E+00  9.000E+00
      21    -1     0     0   511   502  0.000000000E+00  0.000000000E+00 -4.974232558E+01  4.974232558E+01  0.000000000E+00  0.00000E+00  9.000E+00
      25     1     1     2     0     0  1.117157401E+02  1.599818047E+02  4.606664339E+02  5.156676718E+02  1.250000000E+02  0.00000E+00  9.000E+00
      25     1     1     2     0     0 -1.137894762E+02 -1.504771888E+02  6.264728634E+02  6.660965980E+02  1.250000000E+02  0.00000E+00  9.000E+00
      21     1     1     2   511   501  2.073736108E+00 -9.504615855E+00  7.307234839E+00  1.216691354E+01  8.429369702E-08  0.00000E+00  9.000E+00
#rwgt            1           1   3.5271574354347683E-002          10       20660           0
</event>
<event>
      5   9999  3.79277E-02  1.86036E+02 -1.00000E+00  1.12804E-01
      21    -1     0     0   502   501  0.000000000E+00  0.000000000E+00  1.361321805E+03  1.361321805E+03  0.000000000E+00  0.00000E+00  9.000E+00
      21    -1     0     0   501   512  0.000000000E+00  0.000000000E+00 -1.585624953E+02  1.585624953E+02  0.000000000E+00  0.00000E+00  9.000E+00
      25     1     1     2     0     0  3.985257599E+01 -1.628186647E+02  9.316786932E+02  9.548551371E+02  1.250000000E+02  0.00000E+00  9.000E+00
      25     1     1     2     0     0  1.365700427E+02  2.218471443E+02  8.334612180E+01  3.007309562E+02  1.250000000E+02  0.00000E+00  9.000E+00
      21     1     1     2   502   512 -1.764226187E+02 -5.902847953E+01  1.877344947E+02  2.642982071E+02  3.814697266E-06  0.00000E+00  9.000E+00
#rwgt            2          11   3.0549918114578501E-003          10       20848           0
</event>
<event>
      5   9999  3.79277E-02  1.55901E+02 -1.00000E+00  1.15733E-01
      21    -1     0     0   502   511  0.000000000E+00  0.000000000E+00  3.865319180E+02  3.865319180E+02  0.000000000E+00  0.00000E+00  9.000E+00
      21    -1     0     0   501   502  0.000000000E+00  0.000000000E+00 -6.409976563E+02  6.409976563E+02  0.000000000E+00  0.00000E+00  9.000E+00
      25     1     1     2     0     0  3.155797128E+01  7.740583039E+01  1.921617899E+02  2.440055770E+02  1.250000000E+02  0.00000E+00  9.000E+00
      25     1     1     2     0     0 -1.824709597E+02 -1.165271546E+02 -5.447070503E+02  5.993371335E+02  1.250000000E+02  0.00000E+00  9.000E+00
      21     1     1     2   501   511  1.509129885E+02  3.912132425E+01  9.807952220E+01  1.841868637E+02  1.348699152E-06  0.00000E+00  9.000E+00
#rwgt            2          11   2.6876523561114307E-003          10       21078           0
</event>
<event>
      5   9999  3.79277E-02  2.51359E+01 -1.00000E+00  1.58575E-01
      21    -1     0     0   502   501  0.000000000E+00  0.000000000E+00  6.112387598E+02  6.112387598E+02  0.000000000E+00  0.00000E+00  9.000E+00
      21    -1     0     0   512   502  0.000000000E+00  0.000000000E+00 -2.290349056E+02  2.290349056E+02  0.000000000E+00  0.00000E+00  9.000E+00
      25     1     1     2     0     0  2.599883230E+02  1.689918607E+02  1.260078544E+02  3.572886179E+02  1.250000000E+02  0.00000E+00  9.000E+00
      25     1     1     2     0     0 -2.423316165E+02 -1.511017710E+02  2.998954930E+02  4.325721493E+02  1.250000000E+02  0.00000E+00  9.000E+00
      21     1     1     2   512   501 -1.765670651E+01 -1.789008972E+01 -4.369949332E+01  5.041289826E+01  1.348699152E-06  0.00000E+00  9.000E+00
#rwgt            1           1   3.2806050159039930E-002          10       21218           0
</event>
<event>
      5   9999  3.79277E-02  6.76701E+01 -1.00000E+00  1.31970E-01
      21    -1     0     0   511   501  0.000000000E+00  0.000000000E+00  2.703062589E+02  2.703062589E+02  0.000000000E+00  0.00000E+00  9.000E+00
      21    -1     0     0   501   502  0.000000000E+00  0.000000000E+00 -1.123610780E+03  1.123610780E+03  0.000000000E+00  0.00000E+00  9.000E+00
      25     1     1     2     0     0 -1.035434969E+02 -4.148373728E+02 -7.439466151E+02  8.671175628E+02  1.250000000E+02  0.00000E+00  9.000E+00
      25     1     1     2     0     0  3.614974539E+01  4.209464700E+02 -1.236825300E+02  4.576298755E+02  1.250000000E+02  0.00000E+00  9.000E+00
      21     1     1     2   511   502  6.739375150E+01 -6.109097147E+00  1.432462392E+01  6.916960070E+01  1.025477084E-06  0.00000E+00  9.000E+00
#rwgt            1           1   4.1501575308887935E-002          10       21457           0
</event>
<event>
      5   9999  3.79277E-02  1.21273E+01 -1.00000E+00  1.86548E-01
      21    -1     0     0   502   501  0.000000000E+00  0.000000000E+00  3.863107940E+02  3.863107940E+02  0.000000000E+00  0.00000E+00  9.000E+00
      21    -1     0     0   501   512  0.000000000E+00  0.000000000E+00 -1.105055784E+02  1.105055784E+02  0.000000000E+00  0.00000E+00  9.000E+00
      25     1     1     2     0     0 -3.610995900E+01  2.749399258E+01  3.213469687E+02  3.477768294E+02  1.250000000E+02  0.00000E+00  9.000E+00
      25     1     1     2     0     0  3.049394000E+01 -1.674546917E+01 -4.074302078E+01  1.359973708E+02  1.250000000E+02  0.00000E+00  9.000E+00
      21     1     1     2   502   512  5.616018996E+00 -1.074852341E+01 -4.798732310E+00  1.304217224E+01  2.980232239E-07  0.00000E+00  9.000E+00
#rwgt            1           1   2.8549939004037368E-002          10       21617           0
</event>
<event>
      5   9999  3.79277E-02  6.65504E+01 -1.00000E+00  1.32342E-01
       2    -1     0     0   502     0  0.000000000E+00  0.000000000E+00  1.607466100E+03  1.607466100E+03  0.000000000E+00  0.00000E+00  9.000E+00
      21    -1     0     0   501   502  0.000000000E+00  0.000000000E+00 -3.873603347E+02  3.873603347E+02  0.000000000E+00  0.00000E+00  9.000E+00
      25     1     1     2     0     0  7.854003674E+01  8.590583516E+01 -3.908402597E+01  1.752167543E+02  1.250000000E+02  0.00000E+00  9.000E+00
      25     1     1     2     0     0 -2.606114790E+01 -1.268317214E+02 -2.505026855E+02  3.084510730E+02  1.250000000E+02  0.00000E+00  9.000E+00
       2     1     1     2   501     0 -5.247888884E+01  4.092588627E+01  1.509692477E+03  1.511158608E+03  3.051757812E-05  0.00000E+00  9.000E+00
#rwgt            1           1   4.9034659109543619E-002          10       21753           0
</event>
<event>
      5   9999  3.79277E-02  4.86366E+01 -1.00000E+00  1.39764E-01
      21    -1     0     0   502   501  0.000000000E+00  0.000000000E+00  3.002006743E+02  3.002006743E+02  0.000000000E+00  0.00000E+00  9.000E+00
      21    -1     0     0   501   511  0.000000000E+00  0.000000000E+00 -5.008898756E+02  5.008898756E+02  0.000000000E+00  0.00000E+00  9.000E+00
      25     1     1     2     0     0 -2.145319914E+02  1.228975356E+02 -4.826103678E+01  2.812150552E+02  1.250000000E+02  0.00000E+00  9.000E+00
      25     1     1     2     0     0  1.711221215E+02 -1.009635999E+02  1.055334723E+02  2.573688846E+02  1.250000000E+02  0.00000E+00  9.000E+00
      21     1     1     2   502   511  4.340986986E+01 -2.193393577E+01 -2.579616367E+02  2.625066101E+02  0.000000000E+00  0.00000E+00  9.000E+00
#rwgt            1           1   3.2505568543481099E-002          10       21875           0
</event>
<event>
      5   9999  3.79277E-02  6.82783E+01 -1.00000E+00  1.31771E-01
      21    -1     0     0   512   501  0.000000000E+00  0.000000000E+00  8.896541941E+02  8.896541941E+02  0.000000000E+00  0.00000E+00  9.000E+00
      21    -1     0     0   501   502  0.000000000E+00  0.000000000E+00 -7.800885458E+01  7.800885458E+01  0.000000000E+00  0.00000E+00  9.000E+00
      25     1     1     2     0     0 -1.078664672E+02 -7.870372702E+01  4.952554765E+02  5.279511705E+02  1.250000000E+02  0.00000E+00  9.000E+00
      25     1     1     2     0     0  1.359116021E+02  1.645103596E+01  9.555489180E+01  2.085625506E+02  1.250000000E+02  0.00000E+00  9.000E+00
      21     1     1     2   512   502 -2.804513495E+01  6.225269106E+01  2.208349712E+02  2.311493276E+02  2.697398305E-06  0.00000E+00  9.000E+00
#rwgt            1           1   4.7403514338530149E-002          10       22137           0
</event>
<event>
      5   9999  3.79277E-02  1.73845E+01 -1.00000E+00  1.71553E-01
      21    -1     0     0   502   511  0.000000000E+00  0.000000000E+00  1.066182627E+02  1.066182627E+02  0.000000000E+00  0.00000E+00  9.000E+00
      21    -1     0     0   501   502  0.000000000E+00  0.000000000E+00 -5.888260426E+02  5.888260426E+02  0.000000000E+00  0.00000E+00  9.000E+00
      25     1     1     2     0     0  1.119069040E+02 -7.677573829E+01 -4.268151768E+02  4.649880260E+02  1.250000000E+02  0.00000E+00  9.000E+00
      25     1     1     2     0     0 -1.222201761E+02  9.077057982E+01 -6.864074456E+01  2.085991884E+02  1.250000000E+02  0.00000E+00  9.000E+00
      21     1     1     2   501   511  1.031327203E+01 -1.399484153E+01  1.324814149E+01  2.185709089E+01  2.384185791E-07  0.00000E+00  9.000E+00
#rwgt            1           1   3.0530435616100190E-002          10       22216           0
</event>
<event>
      5   9999  3.79277E-02  5.49931E+01 -1.00000E+00  1.36757E-01
      21    -1     0     0   512   501  0.000000000E+00  0.000000000E+00  3.115137417E+03  3.115137417E+03  0.000000000E+00  0.00000E+00  9.000E+00
      21    -1     0     0   501   502  0.000000000E+00  0.000000000E+00 -1.551229986E+01  1.551229986E+01  0.000000000E+00  0.00000E+00  9.000E+00
      25     1     1     2     0     0 -8.316318571E+00 -1.094391299E+02  8.198909450E+02  8.365956287E+02  1.250000000E+02  0.00000E+00  9.000E+00
      25     1     1     2     0     0 -2.425304887E+01  1.537503293E+02  1.876014395E+03  1.886606049E+03  1.250000000E+02  0.00000E+00  9.000E+00
      21     1     1     2   512   502  3.256936744E+01 -4.431119933E+01  4.037197772E+02  4.074480391E+02  5.394796609E-06  0.00000E+00  9.000E+00
#rwgt            1           1   4.2358397076835197E-002          10       22428           0
</event>
<event>
      5   9999  3.79277E-02  7.20841E+01 -1.00000E+00  1.30579E-01
      21    -1     0     0   502   501  0.000000000E+00  0.000000000E+00  1.040297588E+03  1.040297588E+03  0.000000000E+00  0.00000E+00  9.000E+00
      -2    -1     0     0     0   502  0.000000000E+00  0.000000000E+00 -2.147787456E+02  2.147787456E+02  0.000000000E+00  0.00000E+00  9.000E+00
      25     1     1     2     0     0  5.743289325E+01  1.004306814E+02  2.161260517E+02  2.751732712E+02  1.250000000E+02  0.00000E+00  9.000E+00
      25     1     1     2     0     0  6.524095193E+00 -1.336816048E+02  7.765570276E+02  7.978591056E+02  1.250000000E+02  0.00000E+00  9.000E+00
      -2     1     1     2     0   501 -6.395698845E+01  3.325092336E+01 -1.671642366E+02  1.820439570E+02  2.697398305E-06  0.00000E+00  9.000E+00
#rwgt            1           1   4.3221338887861616E-002          10       22584           0
</event>
<event>
      5   9999  3.79277E-02  6.47945E+01 -1.00000E+00  1.32943E-01
      21    -1     0     0   502   511  0.000000000E+00  0.000000000E+00  8.174543273E+02  8.174543273E+02  0.000000000E+00  0.00000E+00  9.000E+00
      21    -1     0     0   501   502  0.000000000E+00  0.000000000E+00 -1.333350830E+02  1.333350830E+02  0.000000000E+00  0.00000E+00  9.000E+00
      25     1     1     2     0     0  6.307147204E+01 -2.015034310E+01 -6.949613776E+01  1.576031728E+02  1.250000000E+02  0.00000E+00  9.000E+00
      25     1     1     2     0     0 -2.847907415E+01  7.493800432E+01  2.976161212E+02  3.326065510E+02  1.250000000E+02  0.00000E+00  9.000E+00
      21     1     1     2   501   511 -3.459239789E+01 -5.478766122E+01  4.559992608E+02  4.605796866E+02  5.394796609E-06  0.00000E+00  9.000E+00
#rwgt            1           1   4.1655566492357549E-002          10       22792           0
</event>
<event>
      5   9999  3.79277E-02  1.08594E+01 -1.00000E+00  1.91707E-01
      21    -1     0     0   502   501  0.000000000E+00  0.000000000E+00  1.608657658E+02  1.608657658E+02  0.000000000E+00  0.00000E+00  9.000E+00
      21    -1     0     0   512   502  0.000000000E+00  0.000000000E+00 -4.560240589E+02  4.560240589E+02  0.000000000E+00  0.00000E+00  9.000E+00
      25     1     1     2     0     0 -2.025357460E+01  1.564146800E+02  5.594257761E+01  2.088787480E+02  1.250000000E+02  0.00000E+00  9.000E+00
      25     1     1     2     0     0  2.380215041E+01 -1.461514301E+02 -3.107147322E+02  3.661904254E+02  1.250000000E+02  0.00000E+00  9.000E+00
      21     1     1     2   512   501 -3.548575807E+00 -1.026324984E+01 -4.038613855E+01  4.182065129E+01  4.768371582E-07  0.00000E+00  9.000E+00
#rwgt            1           1   4.2075843849479641E-002          10       22985           0
</event>
<event>
      5   9999  3.79277E-02  7.87564E+01 -1.00000E+00  1.28680E-01
       5    -1     0     0   502     0  0.000000000E+00  0.000000000E+00  4.120710922E+01  4.120710922E+01  0.000000000E+00  0.00000E+00  9.000E+00
      21    -1     0     0   501   502  0.000000000E+00  0.000000000E+00 -2.298412203E+03  2.298412203E+03  0.000000000E+00  0.00000E+00  9.000E+00
      25     1     1     2     0     0  1.687222256E+02 -2.686838855E+01 -1.061643377E+03  1.082543653E+03  1.250000000E+02  0.00000E+00  9.000E+00
      25     1     1     2     0     0 -2.439891578E+02  3.685117114E+00 -6.441828435E+02  7.001005821E+02  1.250000000E+02  0.00000E+00  9.000E+00
       5     1     1     2   501     0  7.526693217E+01  2.318327143E+01 -5.513788732E+02  5.569750775E+02  7.629394531E-06  0.00000E+00  9.000E+00
#rwgt            1           1   3.4202258241335735E-002          10       23262           0
</event>
<event>
      5   9999  3.79277E-02  2.02632E+02 -1.00000E+00  1.11442E-01
      21    -1     0     0   502   501  0.000000000E+00  0.000000000E+00  1.018181134E+03  1.018181134E+03  0.000000000E+00  0.00000E+00  9.000E+00
      21    -1     0     0   501   511  0.000000000E+00  0.000000000E+00 -1.255087120E+02  1.255087120E+02  0.000000000E+00  0.00000E+00  9.000E+00
      25     1     1     2     0     0  7.632531869E+01  3.934774771E+01  8.598694361E+01  1.743346035E+02  1.250000000E+02  0.00000E+00  9.000E+00
      25     1     1     2     0     0 -2.766531552E+02 -8.877993979E+00  6.345163903E+02  7.034570610E+02  1.250000000E+02  0.00000E+00  9.000E+00
      21     1     1     2   502   511  2.003278365E+02 -3.046975373E+01  1.721690877E+02  2.658981811E+02  3.814697266E-06  0.00000E+00  9.000E+00
#rwgt            1           1   4.6229781101548517E-002          10       23336           0
</event>
<event>
      5   9999  3.79277E-02  2.22297E+01 -1.00000E+00  1.62669E-01
      21    -1     0     0   502   501  0.000000000E+00  0.000000000E+00  9.552567024E+01  9.552567024E+01  0.000000000E+00  0.00000E+00  9.000E+00
      21    -1     0     0   501   512  0.000000000E+00  0.000000000E+00 -6.580481942E+02  6.580481942E+02  0.000000000E+00  0.00000E+00  9.000E+00
      25     1     1     2     0     0 -2.056985890E+01  1.473521673E+02 -2.938574494E+02  3.522967228E+02  1.250000000E+02  0.00000E+00  9.000E+00
      25     1     1     2     0     0  2.430547164E+01 -1.692657866E+02 -1.055586100E+02  2.366628036E+02  1.250000000E+02  0.00000E+00  9.000E+00
      21     1     1     2   502   512 -3.735612744E+00  2.191361929E+01 -1.631064646E+02  1.646143381E+02  0.000000000E+00  0.00000E+00  9.000E+00
#rwgt            1           1   4.2168036178558466E-002          10       23378           0
</event>
<event>
      5   9999  3.79277E-02  2.88796E+01 -1.00000E+00  1.54197E-01
      21    -1     0     0   502   501  0.000000000E+00  0.000000000E+00  7.323656091E+01  7.323656091E+01  0.000000000E+00  0.00000E+00  9.000E+00
       3    -1     0     0   501     0  0.000000000E+00  0.000000000E+00 -3.501288773E+03  3.501288773E+03  0.000000000E+00  0.00000E+00  9.000E+00
      25     1     1     2     0     0 -5.313750911E+01  1.431201180E+02 -2.335547411E+02  3.057446322E+02  1.250000000E+02  0.00000E+00  9.000E+00
      25     1     1     2     0     0  3.925174478E+01 -1.684423946E+02 -2.700388512E+02  3.441794894E+02  1.250000000E+02  0.00000E+00  9.000E+00
       3     1     1     2   502     0  1.388576434E+01  2.532227661E+01 -2.924458619E+03  2.924601212E+03  4.315837288E-05  0.00000E+00  9.000E+00
#rwgt            1           1   3.9905788799700033E-002          10       23610           0
</event>
<event>
      5   9999  3.79277E-02  6.08563E+01 -1.00000E+00  1.34375E-01
      21    -1     0     0   502   501  0.000000000E+00  0.000000000E+00  8.318944250E+01  8.318944250E+01  0.000000000E+00  0.00000E+00  9.000E+00
      21    -1     0     0   501   511  0.000000000E+00  0.000000000E+00 -1.013742471E+03  1.013742471E+03  0.000000000E+00  0.00000E+00  9.000E+00
      25     1     1     2     0     0 -2.421451501E+01  3.199341220E+01 -3.517081964E+02  3.754112099E+02  1.250000000E+02  0.00000E+00  9.000E+00
      25     1     1     2     0     0 -3.221987205E+01 -5.476739336E+01 -7.437794215E-01  1.402253213E+02  1.250000000E+02  0.00000E+00  9.000E+00
      21     1     1     2   502   511  5.643438706E+01  2.277398116E+01 -5.781010527E+02  5.812953822E+02  7.629394531E-06  0.00000E+00  9.000E+00
#rwgt            1           1   4.4459067420222424E-002          10       23808           0
</event>
<event>
      5   9999  3.79277E-02  2.98393E+01 -1.00000E+00  1.53202E-01
      21    -1     0     0   512   501  0.000000000E+00  0.000000000E+00  1.498670124E+03  1.498670124E+03  0.000000000E+00  0.00000E+00  9.000E+00
      21    -1     0     0   501   502  0.000000000E+00  0.000000000E+00 -2.718827349E+01  2.718827349E+01  0.000000000E+00  0.00000E+00  9.000E+00
      25     1     1     2     0     0 -1.424107768E+01 -1.198351784E+02  6.065740524E+02  6.309677958E+02  1.250000000E+02  0.00000E+00  9.000E+00
      25     1     1     2     0     0 -4.652627593E+00  1.429309200E+02  6.275263283E+02  6.556410508E+02  1.250000000E+02  0.00000E+00  9.000E+00
      21     1     1     2   512   502  1.889370527E+01 -2.309574162E+01  2.373814694E+02  2.392495505E+02  2.697398305E-06  0.00000E+00  9.000E+00
#rwgt            1           1   3.0170762396246855E-002          10       23968           0
</event>
<event>
      5   9999  3.79277E-02  1.83086E+02 -1.00000E+00  1.13063E-01
      21    -1     0     0   502   501  0.000000000E+00  0.000000000E+00  9.445277847E+01  9.445277847E+01  0.000000000E+00  0.00000E+00  9.000E+00
      21    -1     0     0   501   511  0.000000000E+00  0.000000000E+00 -1.887883355E+03  1.887883355E+03  0.000000000E+00  0.00000E+00  9.000E+00
      25     1     1     2     0     0 -2.566253036E+00 -2.268071505E+02 -1.480936883E+02  2.983367388E+02  1.250000000E+02  0.00000E+00  9.000E+00
      25     1     1     2     0     0  3.589996116E+01  4.678125464E+01 -1.102259287E+03  1.110890556E+03  1.250000000E+02  0.00000E+00  9.000E+00
      21     1     1     2   502   511 -3.333370812E+01  1.800258959E+02 -5.430776014E+02  5.731088383E+02  7.629394531E-06  0.00000E+00  9.000E+00
#rwgt            2          11   1.4401558551854828E-003          10       24215           0
</event>
<event>
      5   9999  3.79277E-02  4.04857E+01 -1.00000E+00  1.44516E-01
      21    -1     0     0   502   512  0.000000000E+00  0.000000000E+00  5.152028099E+02  5.152028099E+02  0.000000000E+00  0.00000E+00  9.000E+00
      21    -1     0     0   501   502  0.000000000E+00  0.000000000E+00 -1.894890184E+02  1.894890184E+02  0.000000000E+00  0.00000E+00  9.000E+00
      25     1     1     2     0     0 -2.523998827E+02  6.082499440E+01  2.183916720E+02  3.615595430E+02  1.250000000E+02  0.00000E+00  9.000E+00
      25     1     1     2     0     0  2.132040032E+02 -7.096265747E+01  3.399240648E+01  2.593687133E+02  1.250000000E+02  0.00000E+00  9.000E+00
      21     1     1     2   501   512  3.919587948E+01  1.013766306E+01  7.332971304E+01  8.376357200E+01  9.536743164E-07  0.00000E+00  9.000E+00
#rwgt            1           1   3.5429065571335461E-002          10       24310           0
</event>
<event>
      5   9999  3.79277E-02  1.55055E+02 -1.00000E+00  1.15826E-01
       2    -1     0     0   502     0  0.000000000E+00  0.000000000E+00  2.389503341E+03  2.389503341E+03  0.000000000E+00  0.00000E+00  9.000E+00
      21    -1     0     0   501   502  0.000000000E+00  0.000000000E+00 -1.150947292E+02  1.150947292E+02  0.000000000E+00  0.00000E+00  9.000E+00
      25     1     1     2     0     0 -8.853536322E+01  1.634490712E+02  7.247000196E+01  2.354379124E+02  1.250000000E+02  0.00000E+00  9.000E+00
      25     1     1     2     0     0  2.035845976E+02 -5.949821428E+01  4.725733022E+02  5.328576281E+02  1.250000000E+02  0.00000E+00  9.000E+00
       2     1     1     2   501     0 -1.150492344E+02 -1.039508569E+02  1.729365308E+03  1.736302530E+03  0.000000000E+00  0.00000E+00  9.000E+00
#rwgt            1           1   2.9774020364081714E-002          10       24537           0
</event>
<event>
      5   9999  3.79277E-02  4.61676E+00 -1.00000E+00  2.49610E-01
      21    -1     0     0   511   501  0.000000000E+00  0.000000000E+00  1.352395519E+02  1.352395519E+02  0.000000000E+00  0.00000E+00  9.000E+00
      21    -1     0     0   501   502  0.000000000E+00  0.000000000E+00 -2.600635866E+02  2.600635866E+02  0.000000000E+00  0.00000E+00  9.000E+00
      25     1     1     2     0     0 -3.170284371E+01 -6.627709508E+01 -1.845350194E+02  2.346825452E+02  1.250000000E+02  0.00000E+00  9.000E+00
      25     1     1     2     0     0  2.708863084E+01  6.643057316E+01  5.572819582E+01  1.545232888E+02  1.250000000E+02  0.00000E+00  9.000E+00
      21     1     1     2   511   502  4.614212865E+00 -1.534780885E-01  3.982788888E+00  6.097304586E+00  5.960464478E-08  0.00000E+00  9.000E+00
#rwgt            1           1   8.0915854040399873E-002          10       24618           0
</event>
<event>
      5   9999  3.79277E-02  5.88140E+00 -1.00000E+00  2.26827E-01
       2    -1     0     0   502     0  0.000000000E+00  0.000000000E+00  4.460378122E+02  4.460378122E+02  0.000000000E+00  0.00000E+00  9.000E+00
      21    -1     0     0   501   502  0.000000000E+00  0.000000000E+00 -2.338533099E+02  2.338533099E+02  0.000000000E+00  0.00000E+00  9.000E+00
      25     1     1     2     0     0  1.019917432E+02 -1.490940388E+02 -7.160670158E+00  2.197899527E+02  1.250000000E+02  0.00000E+00  9.000E+00
      25     1     1     2     0     0 -1.074985967E+02  1.470287593E+02 -1.896705291E+01  2.217163806E+02  1.250000000E+02  0.00000E+00  9.000E+00
       2     1     1     2   501     0  5.506853430E+00  2.065279538E+00  2.383122253E+02  2.383847888E+02  0.000000000E+00  0.00000E+00  9.000E+00
#rwgt            1           1   4.1014503873565249E-002          10       25015           0
</event>
<event>
      5   9999  3.79277E-02  2.97816E+01 -1.00000E+00  1.53261E-01
      21    -1     0     0   511   501  0.000000000E+00  0.000000000E+00  1.303098484E+02  1.303098484E+02  0.000000000E+00  0.00000E+00  9.000E+00
      21    -1     0     0   501   502  0.000000000E+00  0.000000000E+00 -6.560222641E+02  6.560222641E+02  0.000000000E+00  0.00000E+00  9.000E+00
      25     1     1     2     0     0 -1.374497116E+02  1.093880163E+02 -8.045706816E+01  2.301227958E+02  1.250000000E+02  0.00000E+00  9.000E+00
      25     1     1     2     0     0  1.551960668E+02 -8.547122448E+01 -4.699243930E+02  5.175375199E+02  1.250000000E+02  0.00000E+00  9.000E+00
      21     1     1     2   511   502 -1.774635516E+01 -2.391679184E+01  2.466904545E+01  3.867179666E+01  5.840038640E-07  0.00000E+00  9.000E+00
#rwgt            1           1   3.5996000148246839E-002          10       25615           0
</event>
<event>
      5   9999  3.79277E-02  2.06471E+01 -1.00000E+00  1.65236E-01
      21    -1     0     0   502   512  0.000000000E+00  0.000000000E+00  1.281006135E+01  1.281006135E+01  0.000000000E+00  0.00000E+00  9.000E+00
      21    -1     0     0   501   502  0.000000000E+00  0.000000000E+00 -3.638697460E+03  3.638697460E+03  0.000000000E+00  0.00000E+00  9.000E+00
      25     1     1     2     0     0  1.448734848E+01 -5.869658956E+01 -3.055804229E+03  3.058957283E+03  1.250000000E+02  0.00000E+00  9.000E+00
      25     1     1     2     0     0  6.024548523E+00  6.105545154E+01 -5.213253820E+02  5.396009797E+02  1.250000000E+02  0.00000E+00  9.000E+00
      21     1     1     2   501   512 -2.051189701E+01 -2.358861976E+00 -4.875778811E+01  5.294925920E+01  1.651812370E-06  0.00000E+00  9.000E+00
#rwgt            1           1   1.4578851711536530E-002          10       25820           0
</event>
<event>
      5   9999  3.79277E-02  2.70375E+01 -1.00000E+00  1.56244E-01
      21    -1     0     0   502   501  0.000000000E+00  0.000000000E+00  6.351731697E+02  6.351731697E+02  0.000000000E+00  0.00000E+00  9.000E+00
      21    -1     0     0   511   502  0.000000000E+00  0.000000000E+00 -7.128316260E+01  7.128316260E+01  0.000000000E+00  0.00000E+00  9.000E+00
      25     1     1     2     0     0 -4.872617763E+01  8.991466611E+01  4.421856420E+02  4.707568689E+02  1.250000000E+02  0.00000E+00  9.000E+00
      25     1     1     2     0     0  7.553472279E+01 -9.342615911E+01  9.499605508E+01  1.976946940E+02  1.250000000E+02  0.00000E+00  9.000E+00
      21     1     1     2   511   501 -2.680854517E+01  3.511493002E+00  2.670830997E+01  3.800476942E+01  0.000000000E+00  0.00000E+00  9.000E+00
#rwgt            1           1   2.1429420170744666E-002          10       26024           0
</event>
<event>
      5   9999  3.79277E-02  1.59824E+01 -1.00000E+00  1.74827E-01
      -2    -1     0     0     0   501  0.000000000E+00  0.000000000E+00  6.206168774E+02  6.206168774E+02  0.000000000E+00  0.00000E+00  9.000E+00
      21    -1     0     0   501   502  0.000000000E+00  0.000000000E+00 -9.821256795E+01  9.821256795E+01  0.000000000E+00  0.00000E+00  9.000E+00
      25     1     1     2     0     0 -1.158423037E+02  1.059849808E+02  6.812461502E+01  2.119391862E+02  1.250000000E+02  0.00000E+00  9.000E+00
      25     1     1     2     0     0  1.209845510E+02 -9.085238111E+01  3.489337173E+02  4.003388013E+02  1.250000000E+02  0.00000E+00  9.000E+00
      -2     1     1     2     0   502 -5.142247294E+00 -1.513259969E+01  1.053459771E+02  1.065514579E+02  1.348699152E-06  0.00000E+00  9.000E+00
#rwgt            1           1   4.7455100440161886E-002          10       26170           0
</event>
<event>
      5   9999 -3.79277E-02  1.47828E+01 -1.00000E+00  1.77982E-01
      21    -1     0     0   502   501  0.000000000E+00  0.000000000E+00  1.458897536E+02  1.458897536E+02  0.000000000E+00  0.00000E+00  9.000E+00
      21    -1     0     0   511   502  0.000000000E+00  0.000000000E+00 -5.114342187E+02  5.114342187E+02  0.000000000E+00  0.00000E+00  9.000E+00
      25     1     1     2     0     0 -1.721726587E+02 -4.749216173E+01 -2.952095694E+02  3.669776828E+02  1.250000000E+02  0.00000E+00  9.000E+00
      25     1     1     2     0     0  1.644095420E+02  6.007252267E+01  3.426188380E+00  2.151184424E+02  1.250000000E+02  0.00000E+00  9.000E+00
      21     1     1     2   511   501  7.763116643E+00 -1.258036094E+01 -7.376108402E+01  7.522784709E+01  0.000000000E+00  0.00000E+00  9.000E+00
#rwgt            1           1  -6.4039557008725809E-002          10       26385           0
</event>
<event>
      5   9999  3.79277E-02  3.12324E+01 -1.00000E+00  1.51835E-01
      21    -1     0     0   502   501  0.000000000E+00  0.000000000E+00  3.988125168E+02  3.988125168E+02  0.000000000E+00  0.00000E+00  9.000E+00
      21    -1     0     0   512   502  0.000000000E+00  0.000000000E+00 -1.339799170E+02  1.339799170E+02  0.000000000E+00  0.00000E+00  9.000E+00
      25     1     1     2     0     0 -1.421343533E+02 -1.034183758E+02  1.369881844E+02  2.555157481E+02  1.250000000E+02  0.00000E+00  9.000E+00
      25     1     1     2     0     0  1.201944087E+02  1.256467254E+02  1.181324207E+02  2.445691401E+02  1.250000000E+02  0.00000E+00  9.000E+00
      21     1     1     2   512   501  2.193994462E+01 -2.222834958E+01  9.711994795E+00  3.270754557E+01  2.920019320E-07  0.00000E+00  9.000E+00
#rwgt            1           1   2.1477481299734015E-002          10       26590           0
</event>
<event>
      5   9999  3.79277E-02  6.83315E+01 -1.00000E+00  1.31753E-01
      21    -1     0     0   502   501  0.000000000E+00  0.000000000E+00  2.597649725E+01  2.597649725E+01  0.000000000E+00  0.00000E+00  9.000E+00
       2    -1     0     0   501     0  0.000000000E+00  0.000000000E+00 -2.074202228E+03  2.074202228E+03  0.000000000E+00  0.00000E+00  9.000E+00
      25     1     1     2     0     0  1.457188576E+02  6.333882737E-01 -5.104919749E+02  5.454002596E+02  1.250000000E+02  0.00000E+00  9.000E+00
      25     1     1     2     0     0 -8.078507152E+01 -2.191247122E+01 -8.106316563E+02  8.244725989E+02  1.250000000E+02  0.00000E+00  9.000E+00
       2     1     1     2   502     0 -6.493378608E+01  2.127908295E+01 -7.271020999E+02  7.303058672E+02  0.000000000E+00  0.00000E+00  9.000E+00
#rwgt            1           1   5.5021670938285631E-002          10       26770           0
</event>
<event>
      5   9999  3.79277E-02  8.47353E+00 -1.00000E+00  2.04458E-01
      21    -1     0     0   502   501  0.000000000E+00  0.000000000E+00  1.079963137E+03  1.079963137E+03  0.000000000E+00  0.00000E+00  9.000E+00
      21    -1     0     0   501   511  0.000000000E+00  0.000000000E+00 -3.230328894E+02  3.230328894E+02  0.000000000E+00  0.00000E+00  9.000E+00
      25     1     1     2     0     0  1.815341144E+02  1.980592265E+01  1.740616879E+02  2.815481850E+02  1.250000000E+02  0.00000E+00  9.000E+00
      25     1     1     2     0     0 -1.793667799E+02 -1.161425484E+01  8.380246686E+02  8.661510710E+02  1.250000000E+02  0.00000E+00  9.000E+00
      21     1     1     2   502   511 -2.167334529E+00 -8.191667806E+00 -2.551561092E+02  2.552967701E+02  4.672030912E-06  0.00000E+00  9.000E+00
#rwgt            1           1   4.3693891487768456E-002          10       26825           0
</event>
<event>
      5   9999  3.79277E-02  3.70538E+01 -1.00000E+00  1.46931E-01
      21    -1     0     0   502   501  0.000000000E+00  0.000000000E+00  3.571019943E+02  3.571019943E+02  0.000000000E+00  0.00000E+00  9.000E+00
      21    -1     0     0   501   512  0.000000000E+00  0.000000000E+00 -3.073792141E+02  3.073792141E+02  0.000000000E+00  0.00000E+00  9.000E+00
      25     1     1     2     0     0  3.983609494E+01  2.051798315E+02  1.530808950E+02  2.876533298E+02  1.250000000E+02  0.00000E+00  9.000E+00
      25     1     1     2     0     0 -7.610942790E+01 -1.976147154E+02  2.125562278E+01  2.468218431E+02  1.250000000E+02  0.00000E+00  9.000E+00
      21     1     1     2   502   512  3.627333296E+01 -7.565116124E+00 -1.246137376E+02  1.300060355E+02  1.348699152E-06  0.00000E+00  9.000E+00
#rwgt            1           1   2.8025081492089342E-002          10       27161           0
</event>
<event>
      5   9999  3.79277E-02  3.78044E+01 -1.00000E+00  1.46377E-01
      21    -1     0     0   511   501  0.000000000E+00  0.000000000E+00  3.188655649E+02  3.188655649E+02  0.000000000E+00  0.00000E+00  9.000E+00
      21    -1     0     0   501   502  0.000000000E+00  0.000000000E+00 -3.597228665E+02  3.597228665E+02  0.000000000E+00  0.00000E+00  9.000E+00
      25     1     1     2     0     0 -8.239048604E+01  3.307806028E+01 -2.968532717E+02  3.341095856E+02  1.250000000E+02  0.00000E+00  9.000E+00
      25     1     1     2     0     0  1.134135236E+02 -5.468233752E+01  1.513207327E+02  2.331860834E+02  1.250000000E+02  0.00000E+00  9.000E+00
      21     1     1     2   511   502 -3.102303754E+01  2.160427724E+01  1.046752373E+02  1.112927624E+02  1.348699152E-06  0.00000E+00  9.000E+00
#rwgt            1           1   4.7769788769183405E-002          10       27333           0
</event>
<event>
      5   9999  3.79277E-02  8.55086E+01 -1.00000E+00  1.26965E-01
      21    -1     0     0   502   512  0.000000000E+00  0.000000000E+00  2.397136766E+02  2.397136766E+02  0.000000000E+00  0.00000E+00  9.000E+00
      21    -1     0     0   501   502  0.000000000E+00  0.000000000E+00 -4.439327322E+02  4.439327322E+02  0.000000000E+00  0.00000E+00  9.000E+00
      25     1     1     2     0     0  1.846496286E+02 -1.170224146E+02 -2.497408709E+02  3.546621398E+02  1.250000000E+02  0.00000E+00  9.000E+00
      25     1     1     2     0     0 -1.018536755E+02  9.565547735E+01 -5.655456282E+01  1.958253307E+02  1.250000000E+02  0.00000E+00  9.000E+00
      21     1     1     2   501   512 -8.279595303E+01  2.136693724E+01  1.020763782E+02  1.331589382E+02  0.000000000E+00  0.00000E+00  9.000E+00
#rwgt            1           1   4.0197589123514031E-002          10       27467           0
</event>
<event>
      5   9999  3.79277E-02  4.06223E+01 -1.00000E+00  1.44426E-01
      21    -1     0     0   511   501  0.000000000E+00  0.000000000E+00  1.760804263E+03  1.760804263E+03  0.000000000E+00  0.00000E+00  9.000E+00
      21    -1     0     0   501   502  0.000000000E+00  0.000000000E+00 -6.010726247E+01  6.010726247E+01  0.000000000E+00  0.00000E+00  9.000E+00
      25     1     1     2     0     0  2.404898434E+02  5.514833788E+01  9.518805261E+02  9.912508461E+02  1.250000000E+02  0.00000E+00  9.000E+00
      25     1     1     2     0     0 -2.060736883E+02 -3.356817185E+01  3.360870583E+02  4.149369806E+02  1.250000000E+02  0.00000E+00  9.000E+00
      21     1     1     2   511   502 -3.441615508E+01 -2.158016604E+01  4.127294164E+02  4.147236990E+02  7.629394531E-06  0.00000E+00  9.000E+00
#rwgt            1           1   3.6075976067216381E-002          10       27777           0
</event>
<event>
      5   9999  3.79277E-02  1.32194E+01 -1.00000E+00  1.82715E-01
      21    -1     0     0   502   512  0.000000000E+00  0.000000000E+00  8.837043118E+02  8.837043118E+02  0.000000000E+00  0.00000E+00  9.000E+00
      21    -1     0     0   501   502  0.000000000E+00  0.000000000E+00 -7.395265649E+01  7.395265649E+01  0.000000000E+00  0.00000E+00  9.000E+00
      25     1     1     2     0     0  1.575962668E+02 -2.468370824E+01  1.188305651E+02  2.349288657E+02  1.250000000E+02  0.00000E+00  9.000E+00
      25     1     1     2     0     0 -1.445266750E+02  2.269947074E+01  5.815054130E+02  6.125167517E+02  1.250000000E+02  0.00000E+00  9.000E+00
      21     1     1     2   501   512 -1.306959181E+01  1.984237495E+00  1.094156773E+02  1.102113509E+02  1.348699152E-06  0.00000E+00  9.000E+00
#rwgt            1           1   3.3660209603604996E-002          10       27966           0
</event>
<event>
      5   9999  3.79277E-02  4.80290E+01 -1.00000E+00  1.40079E-01
      21    -1     0     0   502   501  0.000000000E+00  0.000000000E+00  2.583546928E+02  2.583546928E+02  0.000000000E+00  0.00000E+00  9.000E+00
      21    -1     0     0   511   502  0.000000000E+00  0.000000000E+00 -2.466444818E+02  2.466444818E+02  0.000000000E+00  0.00000E+00  9.000E+00
      25     1     1     2     0     0 -7.384437788E+01  1.686946333E+02  6.212629355E+01  2.310747667E+02  1.250000000E+02  0.00000E+00  9.000E+00
      25     1     1     2     0     0  4.716671182E+01 -1.287560663E+02  2.219073777E+01  1.868696127E+02  1.250000000E+02  0.00000E+00  9.000E+00
      21     1     1     2   511   501  2.667766606E+01 -3.993856699E+01 -7.260682032E+01  8.705479514E+01  0.000000000E+00  0.00000E+00  9.000E+00
#rwgt            1           1   3.3221155637956565E-002          10       28202           0
</event>
<event>
      5   9999  3.79277E-02  6.79113E+01 -1.00000E+00  1.31890E-01
      21    -1     0     0   502   501  0.000000000E+00  0.000000000E+00  1.157297557E+02  1.157297557E+02  0.000000000E+00  0.00000E+00  9.000E+00
      21    -1     0     0   501   512  0.000000000E+00  0.000000000E+00 -5.913598322E+02  5.913598322E+02  0.000000000E+00  0.00000E+00  9.000E+00
      25     1     1     2     0     0 -1.320632584E+01 -6.269150000E+01 -1.955198489E+01  1.418164706E+02  1.250000000E+02  0.00000E+00  9.000E+00
      25     1     1     2     0     0  5.739480929E+01  1.142601255E+02 -1.043207883E+02  2.070202099E+02  1.250000000E+02  0.00000E+00  9.000E+00
      21     1     1     2   502   512 -4.418848345E+01 -5.156862554E+01 -3.517573034E+02  3.582529075E+02  3.814697266E-06  0.00000E+00  9.000E+00
#rwgt            2          11   8.2391147525040411E-004          10       28369           0
</event>
<event>
      5   9999  3.79277E-02  1.05390E+02 -1.00000E+00  1.22811E-01
      21    -1     0     0   502   511  0.000000000E+00  0.000000000E+00  1.911048310E+02  1.911048310E+02  0.000000000E+00  0.00000E+00  9.000E+00
      21    -1     0     0   501   502  0.000000000E+00  0.000000000E+00 -4.445739869E+02  4.445739869E+02  0.000000000E+00  0.00000E+00  9.000E+00
      25     1     1     2     0     0  2.387550342E+01 -1.256066528E+02 -2.037289936E+02  2.710674708E+02  1.250000000E+02  0.00000E+00  9.000E+00
      25     1     1     2     0     0  3.169576551E+01  2.151549746E+02 -7.156414220E+00  2.509432185E+02  1.250000000E+02  0.00000E+00  9.000E+00
      21     1     1     2   501   511 -5.557126893E+01 -8.954832182E+01 -4.258374807E+01  1.136681286E+02  1.581489940E-06  0.00000E+00  9.000E+00
#rwgt            1           1   4.1411170664750238E-002          10       28494           0
</event>
<event>
      5   9999  3.79277E-02  4.38283E+01 -1.00000E+00  1.42421E-01
      21    -1     0     0   502   501  0.000000000E+00  0.000000000E+00  1.233252457E+02  1.233252457E+02  0.000000000E+00  0.00000E+00  9.000E+00
      21    -1     0     0   501   512  0.000000000E+00  0.000000000E+00 -5.928349638E+02  5.928349638E+02  0.000000000E+00  0.00000E+00  9.000E+00
      25     1     1     2     0     0 -5.477544854E+01 -4.511700138E+01 -4.343866819E+02  4.575507436E+02  1.250000000E+02  0.00000E+00  9.000E+00
      25     1     1     2     0     0  9.843725114E+01  4.893328303E+01  4.039689759E+01  1.712929302E+02  1.250000000E+02  0.00000E+00  9.000E+00
      21     1     1     2   502   512 -4.366180259E+01 -3.816281644E+00 -7.551993383E+01  8.731653576E+01  1.651812370E-06  0.00000E+00  9.000E+00
#rwgt            1           1   4.7732125511061291E-002          10       28577           0
</event>
<event>
      5   9999  3.79277E-02  6.65862E+01 -1.00000E+00  1.32330E-01
      21    -1     0     0   502   501  0.000000000E+00  0.000000000E+00  3.145186919E+02  3.145186919E+02  0.000000000E+00  0.00000E+00  9.000E+00
      21    -1     0     0   501   511  0.000000000E+00  0.000000000E+00 -3.573642787E+02  3.573642787E+02  0.000000000E+00  0.00000E+00  9.000E+00
      25     1     1     2     0     0  5.799172358E+01  2.098646962E+02  1.914744088E+02  3.157430600E+02  1.250000000E+02  0.00000E+00  9.000E+00
      25     1     1     2     0     0 -2.096708692E+01 -1.545212364E+02 -1.573332400E+02  2.543524713E+02  1.250000000E+02  0.00000E+00  9.000E+00
      21     1     1     2   502   511 -3.702463666E+01 -5.534345978E+01 -7.698675571E+01  1.017874394E+02  1.348699152E-06  0.00000E+00  9.000E+00
#rwgt            1           1   3.3738836513919505E-002          10       28722           0
</event>
<event>
      5   9999  3.79277E-02  9.48875E+01 -1.00000E+00  1.24862E-01
      21    -1     0     0   502   501  0.000000000E+00  0.000000000E+00  1.452387860E+02  1.452387860E+02  0.000000000E+00  0.00000E+00  9.000E+00
      21    -1     0     0   501   512  0.000000000E+00  0.000000000E+00 -8.757039813E+02  8.757039813E+02  0.000000000E+00  0.00000E+00  9.000E+00
      25     1     1     2     0     0 -8.002208230E+01 -1.942268710E+02 -1.095868335E+02  2.678840890E+02  1.250000000E+02  0.00000E+00  9.000E+00
      25     1     1     2     0     0  1.122351938E+02  2.834791123E+02 -5.091035271E+02  6.064392362E+02  1.250000000E+02  0.00000E+00  9.000E+00
      21     1     1     2   502   512 -3.221311146E+01 -8.925224134E+01 -1.117748347E+02  1.466194421E+02  0.000000000E+00  0.00000E+00  9.000E+00
#rwgt            1           1   3.7075313556397753E-002          10       29091           0
</event>
<event>
      5   9999  3.79277E-02  7.69991E+01 -1.00000E+00  1.29158E-01
      21    -1     0     0   502   501  0.000000000E+00  0.000000000E+00  1.967871672E+02  1.967871672E+02  0.000000000E+00  0.00000E+00  9.000E+00
      21    -1     0     0   511   502  0.000000000E+00  0.000000000E+00 -9.645934240E+02  9.645934240E+02  0.000000000E+00  0.00000E+00  9.000E+00
      25     1     1     2     0     0  1.817680032E+02 -1.991138306E+02 -4.089766453E+02  5.055421060E+02  1.250000000E+02  0.00000E+00  9.000E+00
      25     1     1     2     0     0 -1.683998157E+02  1.232840349E+02  4.269937079E+01  2.469932944E+02  1.250000000E+02  0.00000E+00  9.000E+00
      21     1     1     2   511   501 -1.336818747E+01  7.582979567E+01 -4.015289824E+02  4.088451908E+02  7.629394531E-06  0.00000E+00  9.000E+00
#rwgt            1           1  0.25406833512792160               10       29153           0
</event>
<event>
      5   9999  3.79277E-02  8.18112E+01 -1.00000E+00  1.27881E-01
      21    -1     0     0   502   501  0.000000000E+00  0.000000000E+00  2.713638944E+02  2.713638944E+02  0.000000000E+00  0.00000E+00  9.000E+00
      21    -1     0     0   512   502  0.000000000E+00  0.000000000E+00 -8.364798350E+02  8.364798350E+02  0.000000000E+00  0.00000E+00  9.000E+00
      25     1     1     2     0     0 -1.269376296E+02  4.973345666E+01  5.892744063E+00  1.850575666E+02  1.250000000E+02  0.00000E+00  9.000E+00
      25     1     1     2     0     0  6.985685304E+01 -1.083410705E+02  1.270404943E+02  2.199592114E+02  1.250000000E+02  0.00000E+00  9.000E+00
      21     1     1     2   512   501  5.708077658E+01  5.860761381E+01 -6.980491789E+02  7.028269514E+02  0.000000000E+00  0.00000E+00  9.000E+00
#rwgt            1           1   4.8479642411458010E-002          10       29224           0
</event>
<event>
      5   9999  3.79277E-02  6.61021E+01 -1.00000E+00  1.32493E-01
      21    -1     0     0   502   501  0.000000000E+00  0.000000000E+00  1.959808302E+03  1.959808302E+03  0.000000000E+00  0.00000E+00  9.000E+00
      21    -1     0     0   511   502  0.000000000E+00  0.000000000E+00 -9.334354593E+01  9.334354593E+01  0.000000000E+00  0.00000E+00  9.000E+00
      25     1     1     2     0     0 -6.179658340E+00  3.660002492E+01  3.150739359E+02  3.409902273E+02  1.250000000E+02  0.00000E+00  9.000E+00
      25     1     1     2     0     0  2.626217495E+01 -9.957766252E+01  1.613411007E+03  1.621519501E+03  1.250000000E+02  0.00000E+00  9.000E+00
      21     1     1     2   511   501 -2.008251661E+01  6.297763759E+01 -6.202018709E+01  9.064212000E+01  2.697398305E-06  0.00000E+00  9.000E+00
#rwgt            1           1  0.13001929234062148               10       29366           0
</event>
<event>
      5   9999  3.79277E-02  2.54385E+01 -1.00000E+00  1.58187E-01
      21    -1     0     0   502   512  0.000000000E+00  0.000000000E+00  5.631092442E+01  5.631092442E+01  0.000000000E+00  0.00000E+00  9.000E+00
      21    -1     0     0   501   502  0.000000000E+00  0.000000000E+00 -1.473830302E+03  1.473830302E+03  0.000000000E+00  0.00000E+00  9.000E+00
      25     1     1     2     0     0  1.701186310E+02 -1.720260770E+02 -8.577760093E+02  8.999655560E+02  1.250000000E+02  0.00000E+00  9.000E+00
      25     1     1     2     0     0 -1.668136922E+02  1.468031570E+02 -5.425570355E+02  5.994756972E+02  1.250000000E+02  0.00000E+00  9.000E+00
      21     1     1     2   501   512 -3.304938822E+00  2.522292006E+01 -1.718633259E+01  3.069997304E+01  4.768371582E-07  0.00000E+00  9.000E+00
#rwgt            1           1   3.2617804965367377E-002          10       29472           0
</event>
<event>
      5   9999  3.79277E-02  3.72590E+01 -1.00000E+00  1.46778E-01
      21    -1     0     0   502   511  0.000000000E+00  0.000000000E+00  1.008133639E+02  1.008133639E+02  0.000000000E+00  0.00000E+00  9.000E+00
      21    -1     0     0   501   502  0.000000000E+00  0.000000000E+00 -4.761868019E+02  4.761868019E+02  0.000000000E+00  0.00000E+00  9.000E+00
      25     1     1     2     0     0 -4.909715191E+01 -4.840251452E+01 -3.280252827E+02  3.577414147E+02  1.250000000E+02  0.00000E+00  9.000E+00
      25     1     1     2     0     0  1.387786473E+01  3.624390433E+01 -9.283012864E+01  1.604638542E+02  1.250000000E+02  0.00000E+00  9.000E+00
      21     1     1     2   501   511  3.521928718E+01  1.215861019E+01  4.548197337E+01  5.879489683E+01  6.743495762E-07  0.00000E+00  9.000E+00
#rwgt            1           1  0.10731899872719235               10       29657           0
</event>
<event>
      5   9999  3.79277E-02  9.13657E+01 -1.00000E+00  1.25618E-01
      21    -1     0     0   502   501  0.000000000E+00  0.000000000E+00  9.057123578E+01  9.057123578E+01  0.000000000E+00  0.00000E+00  9.000E+00
      21    -1     0     0   501   512  0.000000000E+00  0.000000000E+00 -2.028012347E+03  2.028012347E+03  0.000000000E+00  0.00000E+00  9.000E+00
      25     1     1     2     0     0  1.984355937E+02 -7.347650959E+01 -1.628577208E+02  2.948272707E+02  1.250000000E+02  0.00000E+00  9.000E+00
      25     1     1     2     0     0 -2.677795242E+02  1.329669862E+02 -1.252677262E+03  1.293913218E+03  1.250000000E+02  0.00000E+00  9.000E+00
      21     1     1     2   502   512  6.934393041E+01 -5.949047659E+01 -5.219061280E+02  5.298430937E+02  0.000000000E+00  0.00000E+00  9.000E+00
#rwgt            1           1   2.1196766327291269E-002          10       29763           0
</event>
<event>
      5   9999  3.79277E-02  4.86919E+01 -1.00000E+00  1.39736E-01
      21    -1     0     0   511   501  0.000000000E+00  0.000000000E+00  2.941103498E+02  2.941103498E+02  0.000000000E+00  0.00000E+00  9.000E+00
      21    -1     0     0   501   502  0.000000000E+00  0.000000000E+00 -2.168930826E+02  2.168930826E+02  0.000000000E+00  0.00000E+00  9.000E+00
      25     1     1     2     0     0 -1.843595636E+01  6.505160184E+01 -1.516792742E+02  2.078537890E+02  1.250000000E+02  0.00000E+00  9.000E+00
      25     1     1     2     0     0  1.340015210E+01 -1.662085143E+01  2.195911473E+02  2.535765935E+02  1.250000000E+02  0.00000E+00  9.000E+00
      21     1     1     2   511   502  5.035804260E+00 -4.843075041E+01  9.305394115E+00  4.957304983E+01  4.460403188E-07  0.00000E+00  9.000E+00
#rwgt            1           1   4.2711571124637089E-002          10       29845           0
</event>
<event>
      5   9999  3.79277E-02  2.58592E+01 -1.00000E+00  1.57659E-01
      21    -1     0     0   502   501  0.000000000E+00  0.000000000E+00  1.096984484E+03  1.096984484E+03  0.000000000E+00  0.00000E+00  9.000E+00
      -2    -1     0     0     0   502  0.000000000E+00  0.000000000E+00 -4.715645263E+02  4.715645263E+02  0.000000000E+00  0.00000E+00  9.000E+00
      25     1     1     2     0     0 -1.189654039E+02 -3.066624922E+01  6.284818178E+02  6.524627051E+02  1.250000000E+02  0.00000E+00  9.000E+00
      25     1     1     2     0     0  9.610811950E+01  1.857308538E+01  4.423218651E+02  4.699525109E+02  1.250000000E+02  0.00000E+00  9.000E+00
      -2     1     1     2     0   501  2.285728436E+01  1.209316384E+01 -4.453837251E+02  4.461337945E+02  7.629394531E-06  0.00000E+00  9.000E+00
#rwgt            1           1   3.1651533181669148E-002          10       29965           0
</event>
<event>
      5   9999  3.79277E-02  1.01508E+01 -1.00000E+00  1.95008E-01
      21    -1     0     0   511   501  0.000000000E+00  0.000000000E+00  2.415753227E+02  2.415753227E+02  0.000000000E+00  0.00000E+00  9.000E+00
      21    -1     0     0   501   502  0.000000000E+00  0.000000000E+00 -2.601829104E+02  2.601829104E+02  0.000000000E+00  0.00000E+00  9.000E+00
      25     1     1     2     0     0  1.515426520E+02 -4.183516895E+01  3.051827753E+00  2.008722739E+02  1.250000000E+02  0.00000E+00  9.000E+00
      25     1     1     2     0     0 -1.542351196E+02  3.204791693E+01 -9.811688157E+01  2.237576000E+02  1.250000000E+02  0.00000E+00  9.000E+00
      21     1     1     2   511   502  2.692467566E+00  9.787252019E+00  7.645746611E+01  7.712835930E+01  9.536743164E-07  0.00000E+00  9.000E+00
#rwgt            1           1   4.1607083971644566E-002          10       30122           0
</event>
<event>
      5   9999  3.79277E-02  1.23561E+01 -1.00000E+00  1.85703E-01
      21    -1     0     0   502   512  0.000000000E+00  0.000000000E+00  1.195459069E+02  1.195459069E+02  0.000000000E+00  0.00000E+00  9.000E+00
      21    -1     0     0   501   502  0.000000000E+00  0.000000000E+00 -5.376145701E+02  5.376145701E+02  0.000000000E+00  0.00000E+00  9.000E+00
      25     1     1     2     0     0 -1.968804416E+01  4.671467574E+01 -4.815172102E+02  5.000537009E+02  1.250000000E+02  0.00000E+00  9.000E+00
      25     1     1     2     0     0  1.185054232E+01 -3.716240492E+01  5.441577956E+01  1.418011169E+02  1.250000000E+02  0.00000E+00  9.000E+00
      21     1     1     2   501   512  7.837501839E+00 -9.552270825E+00  9.032767469E+00  1.530565912E+01  2.064765462E-07  0.00000E+00  9.000E+00
#rwgt            1           1   3.2695199113383609E-002          10       30427           0
</event>
<event>
      5   9999  3.79277E-02  3.51224E+01 -1.00000E+00  1.48432E-01
      21    -1     0     0   502   511  0.000000000E+00  0.000000000E+00  2.859345547E+02  2.859345547E+02  0.000000000E+00  0.00000E+00  9.000E+00
      21    -1     0     0   501   502  0.000000000E+00  0.000000000E+00 -1.885708590E+02  1.885708590E+02  0.000000000E+00  0.00000E+00  9.000E+00
      25     1     1     2     0     0 -1.647369848E+01  1.482506728E+02  7.324465226E+01  2.079409142E+02  1.250000000E+02  0.00000E+00  9.000E+00
      25     1     1     2     0     0 -3.137108386E+00 -1.191130704E+02 -5.397892978E+01  1.809322797E+02  1.250000000E+02  0.00000E+00  9.000E+00
      21     1     1     2   501   511  1.961080687E+01 -2.913760239E+01  7.809797325E+01  8.563221966E+01  9.536743164E-07  0.00000E+00  9.000E+00
#rwgt            1           1  0.11147754032220220               10       30650           0
</event>
<event>
      5   9999  3.79277E-02  4.83573E+01 -1.00000E+00  1.39908E-01
      21    -1     0     0   502   501  0.000000000E+00  0.000000000E+00  1.060537624E+03  1.060537624E+03  0.000000000E+00  0.00000E+00  9.000E+00
      21    -1     0     0   512   502  0.000000000E+00  0.000000000E+00 -2.465143932E+02  2.465143932E+02  0.000000000E+00  0.00000E+00  9.000E+00
      25     1     1     2     0     0  2.632521855E+02 -1.411393945E+02  2.687991004E+02  4.208325061E+02  1.250000000E+02  0.00000E+00  9.000E+00
      25     1     1     2     0     0 -2.347895747E+02  1.020458237E+02  6.830897675E+02  7.401189938E+02  1.250000000E+02  0.00000E+00  9.000E+00
      21     1     1     2   512   501 -2.846261082E+01  3.909357081E+01 -1.378656367E+02  1.461005177E+02  3.303624740E-06  0.00000E+00  9.000E+00
#rwgt            1           1   6.1372715330818325E-002          10       30888           0
</event>
<event>
      5   9999  3.79277E-02  3.30635E+01 -1.00000E+00  1.50164E-01
      21    -1     0     0   511   501  0.000000000E+00  0.000000000E+00  1.260441894E+02  1.260441894E+02  0.000000000E+00  0.00000E+00  9.000E+00
      21    -1     0     0   501   502  0.000000000E+00  0.000000000E+00 -9.772131208E+02  9.772131208E+02  0.000000000E+00  0.00000E+00  9.000E+00
      25     1     1     2     0     0  2.197791245E+02  6.342069680E+01 -4.422152130E+02  5.133267410E+02  1.250000000E+02  0.00000E+00  9.000E+00
      25     1     1     2     0     0 -2.370638186E+02 -9.160642714E+01 -4.533660658E+02  5.345622332E+02  1.250000000E+02  0.00000E+00  9.000E+00
      21     1     1     2   511   502  1.728469403E+01  2.818573033E+01  4.441234732E+01  5.536833605E+01  1.581489940E-06  0.00000E+00  9.000E+00
#rwgt            1           1   3.4495812242883096E-002          10       30988           0
</event>
<event>
      5   9999  3.79277E-02  2.42361E+01 -1.00000E+00  1.59767E-01
      21    -1     0     0   502   512  0.000000000E+00  0.000000000E+00  3.168652008E+02  3.168652008E+02  0.000000000E+00  0.00000E+00  9.000E+00
      21    -1     0     0   501   502  0.000000000E+00  0.000000000E+00 -1.240175906E+03  1.240175906E+03  0.000000000E+00  0.00000E+00  9.000E+00
      25     1     1     2     0     0 -4.827670311E+02 -2.071254606E+01 -6.091212382E+02  7.874939356E+02  1.250000000E+02  0.00000E+00  9.000E+00
      25     1     1     2     0     0  4.671147821E+02  3.921647543E+01 -4.317976343E+02  6.494677425E+02  1.250000000E+02  0.00000E+00  9.000E+00
      21     1     1     2   501   512  1.565224902E+01 -1.850392937E+01  1.176081670E+02  1.200794289E+02  1.348699152E-06  0.00000E+00  9.000E+00
#rwgt            1           1  0.10421453537790737               10       31101           0
</event>
<event>
      5   9999  3.79277E-02  5.71625E+01 -1.00000E+00  1.35837E-01
      21    -1     0     0   502   501  0.000000000E+00  0.000000000E+00  3.685999946E+02  3.685999946E+02  0.000000000E+00  0.00000E+00  9.000E+00
      21    -1     0     0   501   511  0.000000000E+00  0.000000000E+00 -1.941701672E+02  1.941701672E+02  0.000000000E+00  0.00000E+00  9.000E+00
      25     1     1     2     0     0  6.886798442E+01  1.818253413E+02  1.960877799E+02  3.031149476E+02  1.250000000E+02  0.00000E+00  9.000E+00
      25     1     1     2     0     0 -1.736654790E+01 -1.570229699E+02 -1.336960971E+01  2.018949146E+02  1.250000000E+02  0.00000E+00  9.000E+00
      21     1     1     2   502   511 -5.150143652E+01 -2.480237144E+01 -8.288342736E+00  5.776029967E+01  1.390207266E-06  0.00000E+00  9.000E+00
#rwgt            1           1  0.13825482464538030               10       31524           0
</event>
<event>
      5   9999 -3.79277E-02  9.83748E+01 -1.00000E+00  1.24149E-01
      21    -1     0     0   502   501  0.000000000E+00  0.000000000E+00  1.475246040E+03  1.475246040E+03  0.000000000E+00  0.00000E+00  9.000E+00
      21    -1     0     0   512   502  0.000000000E+00  0.000000000E+00 -1.259298920E+02  1.259298920E+02  0.000000000E+00  0.00000E+00  9.000E+00
      25     1     1     2     0     0 -1.367880440E+02  3.121747846E+02  5.903196597E+02  6.930125293E+02  1.250000000E+02  0.00000E+00  9.000E+00
      25     1     1     2     0     0  4.186924652E+01 -2.863288291E+02  7.448150660E+02  8.087717322E+02  1.250000000E+02  0.00000E+00  9.000E+00
      21     1     1     2   512   501  9.491879745E+01 -2.584595554E+01  1.418142268E+01  9.939167106E+01  1.025477084E-06  0.00000E+00  9.000E+00
#rwgt            1           1 -0.11799220694168258               10       31647           0
</event>
<event>
      5   9999  3.79277E-02  4.30379E+00 -1.00000E+00  2.56198E-01
      21    -1     0     0   502   511  0.000000000E+00  0.000000000E+00  1.131843163E+02  1.131843163E+02  0.000000000E+00  0.00000E+00  9.000E+00
      21    -1     0     0   501   502  0.000000000E+00  0.000000000E+00 -2.180818748E+02  2.180818748E+02  0.000000000E+00  0.00000E+00  9.000E+00
      25     1     1     2     0     0  1.538607220E+01 -9.104141331E+01 -4.050134494E+01  1.605946110E+02  1.250000000E+02  0.00000E+00  9.000E+00
      25     1     1     2     0     0 -1.663367222E+01  8.692241985E+01 -6.489565427E+01  1.663389073E+02  1.250000000E+02  0.00000E+00  9.000E+00
      21     1     1     2   501   511  1.247600021E+00  4.118993463E+00  4.994406953E-01  4.332672844E+00  9.140256156E-08  0.00000E+00  9.000E+00
#rwgt            1           1   2.5736946702294646E-002          10       31767           0
</event>
<event>
      5   9999  3.79277E-02  1.90769E+01 -1.00000E+00  1.68080E-01
      21    -1     0     0   512   501  0.000000000E+00  0.000000000E+00  1.307910431E+03  1.307910431E+03  0.000000000E+00  0.00000E+00  9.000E+00
      21    -1     0     0   501   502  0.000000000E+00  0.000000000E+00 -1.164283978E+02  1.164283978E+02  0.000000000E+00  0.00000E+00  9.000E+00
      25     1     1     2     0     0  1.081261288E+02 -1.057071556E+02  3.633783240E+01  1.995261901E+02  1.250000000E+02  0.00000E+00  9.000E+00
      25     1     1     2     0     0 -1.123209962E+02  1.243171474E+02  2.798060753E+02  3.492666590E+02  1.250000000E+02  0.00000E+00  9.000E+00
      21     1     1     2   512   502  4.194867450E+00 -1.860999176E+01  8.753381259E+02  8.755459802E+02  1.078959322E-05  0.00000E+00  9.000E+00
#rwgt            1           1   3.6154149030288539E-002          10       32236           0
</event>
<event>
      5   9999  3.79277E-02  1.79941E+02 -1.00000E+00  1.13345E-01
       2    -1     0     0   502     0  0.000000000E+00  0.000000000E+00  3.662831130E+03  3.662831130E+03  0.000000000E+00  0.00000E+00  9.000E+00
      21    -1     0     0   501   502  0.000000000E+00  0.000000000E+00 -3.528890190E+01  3.528890190E+01  0.000000000E+00  0.00000E+00  9.000E+00
      25     1     1     2     0     0  1.030690826E+02 -3.497795638E+01  5.283515224E+02  5.537391303E+02  1.250000000E+02  0.00000E+00  9.000E+00
      25     1     1     2     0     0 -2.695651334E+02 -3.326970258E+01  1.200123185E+03  1.236807541E+03  1.250000000E+02  0.00000E+00  9.000E+00
       2     1     1     2   501     0  1.664960508E+02  6.824765895E+01  1.899067521E+03  1.907573361E+03  2.157918644E-05  0.00000E+00  9.000E+00
#rwgt            1           1   3.3375017825662004E-002          10       32421           0
</event>
<event>
      5   9999  3.79277E-02  2.37720E+01 -1.00000E+00  1.60407E-01
      21    -1     0     0   502   501  0.000000000E+00  0.000000000E+00  1.633838392E+02  1.633838392E+02  0.000000000E+00  0.00000E+00  9.000E+00
      21    -1     0     0   511   502  0.000000000E+00  0.000000000E+00 -2.327649269E+02  2.327649269E+02  0.000000000E+00  0.00000E+00  9.000E+00
      25     1     1     2     0     0  7.664137666E+01 -8.664578310E+01 -6.589797808E+01  1.826169101E+02  1.250000000E+02  0.00000E+00  9.000E+00
      25     1     1     2     0     0 -1.002012248E+02  8.981428138E+01  1.374113832E+01  1.841757570E+02  1.250000000E+02  0.00000E+00  9.000E+00
      21     1     1     2   511   501  2.355984813E+01 -3.168498285E+00 -1.722424796E+01  2.935609891E+01  0.000000000E+00  0.00000E+00  9.000E+00
#rwgt            1           1   2.1720703191070140E-002          10       32530           0
</event>
<event>
      5   9999  3.79277E-02  2.60136E+01 -1.00000E+00  1.57469E-01
       2    -1     0     0   502     0  0.000000000E+00  0.000000000E+00  1.904219273E+02  1.904219273E+02  0.000000000E+00  0.00000E+00  9.000E+00
      21    -1     0     0   501   502  0.000000000E+00  0.000000000E+00 -6.185436470E+02  6.185436470E+02  0.000000000E+00  0.00000E+00  9.000E+00
      25     1     1     2     0     0 -1.170248540E+02  6.446943312E+01 -5.198763919E+02  5.511330031E+02  1.250000000E+02  0.00000E+00  9.000E+00
      25     1     1     2     0     0  1.304325986E+02 -8.676158773E+01  1.075013856E+02  2.274242375E+02  1.250000000E+02  0.00000E+00  9.000E+00
       2     1     1     2   501     0 -1.340774462E+01  2.229215461E+01 -1.574671346E+01  3.040833368E+01  5.840038640E-07  0.00000E+00  9.000E+00
#rwgt            1           1   5.0082764703252659E-002          10       32800           0
</event>
<event>
      5   9999  3.79277E-02  1.52009E+02 -1.00000E+00  1.16165E-01
      21    -1     0     0   502   501  0.000000000E+00  0.000000000E+00  2.690158625E+02  2.690158625E+02  0.000000000E+00  0.00000E+00  9.000E+00
       1    -1     0     0   501     0  0.000000000E+00  0.000000000E+00 -4.909761274E+02  4.909761274E+02  0.000000000E+00  0.00000E+00  9.000E+00
      25     1     1     2     0     0 -4.112184790E+01 -9.022635431E+01 -1.033863746E+02  1.901198144E+02  1.250000000E+02  0.00000E+00  9.000E+00
      25     1     1     2     0     0 -1.934264385E+00 -5.555716782E+01  1.851644568E+02  2.302199304E+02  1.250000000E+02  0.00000E+00  9.000E+00
       1     1     1     2   502     0  4.305611228E+01  1.457835221E+02 -3.037383471E+02  3.396522451E+02  6.607249480E-06  0.00000E+00  9.000E+00
#rwgt            1           1   4.3155921833372669E-002          10       33137           0
</event>
<event>
      5   9999 -3.79277E-02  5.30702E+01 -1.00000E+00  1.37615E-01
      21    -1     0     0   511   501  0.000000000E+00  0.000000000E+00  7.174546367E+02  7.174546367E+02  0.000000000E+00  0.00000E+00  9.000E+00
      21    -1     0     0   501   502  0.000000000E+00  0.000000000E+00 -9.922291540E+01  9.922291540E+01  0.000000000E+00  0.00000E+00  9.000E+00
      25     1     1     2     0     0  9.652474411E+01  1.914542506E+02  2.086006124E+02  3.242082228E+02  1.250000000E+02  0.00000E+00  9.000E+00
      25     1     1     2     0     0 -5.228286336E+01 -1.621437288E+02  2.683963762E+02  3.415928883E+02  1.250000000E+02  0.00000E+00  9.000E+00
      21     1     1     2   511   502 -4.424188075E+01 -2.931052177E+01  1.412347328E+02  1.508764410E+02  0.000000000E+00  0.00000E+00  9.000E+00
#rwgt            1           1  -5.9127197564109057E-002          10       33218           0
</event>
<event>
      5   9999  3.79277E-02  1.32966E+01 -1.00000E+00  1.82462E-01
      21    -1     0     0   512   501  0.000000000E+00  0.000000000E+00  3.243153404E+02  3.243153404E+02  0.000000000E+00  0.00000E+00  9.000E+00
      21    -1     0     0   501   502  0.000000000E+00  0.000000000E+00 -1.591299081E+02  1.591299081E+02  0.000000000E+00  0.00000E+00  9.000E+00
      25     1     1     2     0     0  9.102313856E+01  9.449791762E+01  2.090647426E+02  2.766733359E+02  1.250000000E+02  0.00000E+00  9.000E+00
      25     1     1     2     0     0 -1.038189683E+02 -9.088311457E+01 -4.900474455E+01  1.925216447E+02  1.250000000E+02  0.00000E+00  9.000E+00
      21     1     1     2   512   502  1.279582970E+01 -3.614803050E+00  5.125434287E+00  1.425026791E+01  2.384185791E-07  0.00000E+00  9.000E+00
#rwgt            1           1   3.9838210817957298E-002          10       33420           0
</event>
<event>
      5   9999  3.79277E-02  5.20597E+01 -1.00000E+00  1.38083E-01
      21    -1     0     0   511   501  0.000000000E+00  0.000000000E+00  2.144755467E+03  2.144755467E+03  0.000000000E+00  0.00000E+00  9.000E+00
      21    -1     0     0   501   502  0.000000000E+00  0.000000000E+00 -9.042330225E+01  9.042330225E+01  0.000000000E+00  0.00000E+00  9.000E+00
      25     1     1     2     0     0 -4.814553643E+01 -4.510790394E+01  3.868982476E+02  4.119077199E+02  1.250000000E+02  0.00000E+00  9.000E+00
      25     1     1     2     0     0  9.826820764E+01  5.917680949E+01  1.533131824E+01  1.703484216E+02  1.250000000E+02  0.00000E+00  9.000E+00
      21     1     1     2   511   502 -5.012267121E+01 -1.406890555E+01  1.652102599E+03  1.652922628E+03  2.157918644E-05  0.00000E+00  9.000E+00
#rwgt            1           1   3.2299121468805571E-002          10       33659           0
</event>
<event>
      5   9999  3.79277E-02  5.12133E+01 -1.00000E+00  1.38484E-01
      21    -1     0     0   502   501  0.000000000E+00  0.000000000E+00  2.194393776E+02  2.194393776E+02  0.000000000E+00  0.00000E+00  9.000E+00
      21    -1     0     0   512   502  0.000000000E+00  0.000000000E+00 -2.454399774E+02  2.454399774E+02  0.000000000E+00  0.00000E+00  9.000E+00
      25     1     1     2     0     0 -1.287719295E+01  1.362402697E+02  4.543785068E+00  1.853992426E+02  1.250000000E+02  0.00000E+00  9.000E+00
      25     1     1     2     0     0  1.922372260E+01 -1.870587780E+02 -1.663572846E+01  2.264117607E+02  1.250000000E+02  0.00000E+00  9.000E+00
      21     1     1     2   512   501 -6.346529651E+00  5.081850832E+01 -1.390865635E+01  5.306835166E+01  1.261592536E-06  0.00000E+00  9.000E+00
#rwgt            1           1   4.5887477182572939E-002          10       33730           0
</event>
<event>
      5   9999  3.79277E-02  1.58662E+01 -1.00000E+00  1.75117E-01
      21    -1     0     0   511   501  0.000000000E+00  0.000000000E+00  8.776714490E+01  8.776714490E+01  0.000000000E+00  0.00000E+00  9.000E+00
      21    -1     0     0   501   502  0.000000000E+00  0.000000000E+00 -7.425005427E+02  7.425005427E+02  0.000000000E+00  0.00000E+00  9.000E+00
      25     1     1     2     0     0 -3.720312802E+01 -1.999260219E+02 -3.725827210E+02  4.424899671E+02  1.250000000E+02  0.00000E+00  9.000E+00
      25     1     1     2     0     0  5.304129722E+01  1.989838289E+02 -2.832926585E+02  3.718705066E+02  1.250000000E+02  0.00000E+00  9.000E+00
      21     1     1     2   511   502 -1.583816920E+01  9.421930539E-01  1.141981687E+00  1.590721389E+01  1.618680431E-07  0.00000E+00  9.000E+00
#rwgt            1           1   4.2070017301957988E-002          10       33861           0
</event>
<event>
      5   9999  3.79277E-02  3.43180E+01 -1.00000E+00  1.49091E-01
      21    -1     0     0   502   501  0.000000000E+00  0.000000000E+00  7.051460197E+02  7.051460197E+02  0.000000000E+00  0.00000E+00  9.000E+00
      21    -1     0     0   512   502  0.000000000E+00  0.000000000E+00 -4.429522619E+02  4.429522619E+02  0.000000000E+00  0.00000E+00  9.000E+00
      25     1     1     2     0     0 -1.095427573E+02  5.927966392E+01  6.636804676E+02  6.867390023E+02  1.250000000E+02  0.00000E+00  9.000E+00
      25     1     1     2     0     0  1.127829668E+02 -9.344435729E+01 -3.301938294E+02  3.822365896E+02  1.250000000E+02  0.00000E+00  9.000E+00
      21     1     1     2   512   501 -3.240209458E+00  3.416469337E+01 -7.129288038E+01  7.912268969E+01  9.536743164E-07  0.00000E+00  9.000E+00
#rwgt            1           1   1.5814134804865789E-002          10       34146           0
</event>
<event>
      5   9999 -3.79277E-02  1.77076E+02 -1.00000E+00  1.13607E-01
      -1    -1     0     0     0   501  0.000000000E+00  0.000000000E+00  1.673537413E+03  1.673537413E+03  0.000000000E+00  0.00000E+00  9.000E+00
      21    -1     0     0   501   502  0.000000000E+00  0.000000000E+00 -1.251638611E+02  1.251638611E+02  0.000000000E+00  0.00000E+00  9.000E+00
      25     1     1     2     0     0 -8.440477481E+01  2.281516293E+02  3.943574174E+02  4.799167684E+02  1.250000000E+02  0.00000E+00  9.000E+00
      25     1     1     2     0     0  2.522183414E+02 -2.846708893E+02  4.962780522E+02  6.376272516E+02  1.250000000E+02  0.00000E+00  9.000E+00
      -1     1     1     2     0   502 -1.678135666E+02  5.651926002E+01  6.577380821E+02  6.811572539E+02  1.078959322E-05  0.00000E+00  9.000E+00
#rwgt            1           1 -0.34191013577480267               10       34353           0
</event>
<event>
      5   9999 -3.79277E-02  5.68655E+01 -1.00000E+00  1.35961E-01
      21    -1     0     0   502   501  0.000000000E+00  0.000000000E+00  9.239871293E+01  9.239871293E+01  0.000000000E+00  0.00000E+00  9.000E+00
      21    -1     0     0   501   511  0.000000000E+00  0.000000000E+00 -6.975856160E+02  6.975856160E+02  0.000000000E+00  0.00000E+00  9.000E+00
      25     1     1     2     0     0  1.585011431E+02  5.949965943E+01 -3.641037762E+02  4.205465274E+02  1.250000000E+02  0.00000E+00  9.000E+00
      25     1     1     2     0     0 -1.125960699E+02 -9.306166073E+01 -9.868819854E+01  2.161080938E+02  1.250000000E+02  0.00000E+00  9.000E+00
      21     1     1     2   502   511 -4.590507321E+01  3.356200130E+01 -1.423949283E+02  1.533297078E+02  1.907348633E-06  0.00000E+00  9.000E+00
#rwgt            1           1 -0.18722153049089263               10       34427           0
</event>
<event>
      5   9999  3.79277E-02  7.05396E+01 -1.00000E+00  1.31052E-01
      21    -1     0     0   502   501  0.000000000E+00  0.000000000E+00  2.938913028E+02  2.938913028E+02  0.000000000E+00  0.00000E+00  9.000E+00
      21    -1     0     0   501   512  0.000000000E+00  0.000000000E+00 -1.789195295E+02  1.789195295E+02  0.000000000E+00  0.00000E+00  9.000E+00
      25     1     1     2     0     0  7.071700997E+01  7.213836885E+01  7.078550153E+01  1.756144270E+02  1.250000000E+02  0.00000E+00  9.000E+00
      25     1     1     2     0     0 -1.299279070E+02 -3.379894920E+01  9.846359569E+01  2.081915216E+02  1.250000000E+02  0.00000E+00  9.000E+00
      21     1     1     2   502   512  5.921089704E+01 -3.833941966E+01 -5.427732391E+01  8.900488368E+01  0.000000000E+00  0.00000E+00  9.000E+00
#rwgt            1           1   3.1240886134367297E-002          10       34499           0
</event>
<event>
      5   9999  3.79277E-02  1.79239E+01 -1.00000E+00  1.70395E-01
      21    -1     0     0   511   501  0.000000000E+00  0.000000000E+00  5.209431664E+02  5.209431664E+02  0.000000000E+00  0.00000E+00  9.000E+00
      21    -1     0     0   501   502  0.000000000E+00  0.000000000E+00 -1.092483491E+02  1.092483491E+02  0.000000000E+00  0.00000E+00  9.000E+00
      25     1     1     2     0     0  3.785056116E+01  1.761076292E+02  1.245351786E+02  2.521518843E+02  1.250000000E+02  0.00000E+00  9.000E+00
      25     1     1     2     0     0 -3.431109497E+01 -1.585367235E+02  1.903597799E+02  2.795943307E+02  1.250000000E+02  0.00000E+00  9.000E+00
      21     1     1     2   511   502 -3.539466193E+00 -1.757090570E+01  9.679985870E+01  9.844530051E+01  1.348699152E-06  0.00000E+00  9.000E+00
#rwgt            1           1   3.6436354198455451E-002          10       34585           0
</event>
<event>
      5   9999  3.79277E-02  1.16213E+01 -1.00000E+00  1.88504E-01
      21    -1     0     0   502   512  0.000000000E+00  0.000000000E+00  1.130149466E+03  1.130149466E+03  0.000000000E+00  0.00000E+00  9.000E+00
      21    -1     0     0   501   502  0.000000000E+00  0.000000000E+00 -3.559907030E+01  3.559907030E+01  0.000000000E+00  0.00000E+00  9.000E+00
      25     1     1     2     0     0 -5.584691733E+00 -1.359904963E+02  3.657518452E+02  4.097853293E+02  1.250000000E+02  0.00000E+00  9.000E+00
      25     1     1     2     0     0  1.616580283E+01  1.407961962E+02  6.771603366E+02  7.030334441E+02  1.250000000E+02  0.00000E+00  9.000E+00
      21     1     1     2   501   512 -1.058111110E+01 -4.805699904E+00  5.163821413E+01  5.292976310E+01  0.000000000E+00  0.00000E+00  9.000E+00
#rwgt            1           1   3.7843651776618685E-002          10       34760           0
</event>
<event>
      5   9999  3.79277E-02  2.70515E+01 -1.00000E+00  1.56227E-01
      21    -1     0     0   511   501  0.000000000E+00  0.000000000E+00  9.749113993E+02  9.749113993E+02  0.000000000E+00  0.00000E+00  9.000E+00
      21    -1     0     0   501   502  0.000000000E+00  0.000000000E+00 -1.665304266E+02  1.665304266E+02  0.000000000E+00  0.00000E+00  9.000E+00
      25     1     1     2     0     0  2.783293056E+02  1.292162636E+02  2.087829274E+02  3.916367652E+02  1.250000000E+02  0.00000E+00  9.000E+00
      25     1     1     2     0     0 -3.009513326E+02 -1.440495500E+02  3.524006571E+02  5.011319193E+02  1.250000000E+02  0.00000E+00  9.000E+00
      21     1     1     2   511   502  2.262202699E+01  1.483328644E+01  2.471973882E+02  2.486731414E+02  0.000000000E+00  0.00000E+00  9.000E+00
#rwgt            1           1   8.2610323368644142E-002          10       34942           0
</event>
<event>
      5   9999  3.79277E-02  5.24165E+01 -1.00000E+00  1.37916E-01
      21    -1     0     0   502   501  0.000000000E+00  0.000000000E+00  1.552582882E+02  1.552582882E+02  0.000000000E+00  0.00000E+00  9.000E+00
      21    -1     0     0   512   502  0.000000000E+00  0.000000000E+00 -5.109024478E+02  5.109024478E+02  0.000000000E+00  0.00000E+00  9.000E+00
      25     1     1     2     0     0 -3.620811709E+01  3.580102792E+01 -3.889027872E+02  4.116589842E+02  1.250000000E+02  0.00000E+00  9.000E+00
      25     1     1     2     0     0  8.157550655E+01 -9.546748550E+00  9.213851372E+01  1.756707414E+02  1.250000000E+02  0.00000E+00  9.000E+00
      21     1     1     2   512   501 -4.536738946E+01 -2.625427937E+01 -5.887988609E+01  7.883101038E+01  0.000000000E+00  0.00000E+00  9.000E+00
#rwgt            1           1   4.2964603583981631E-002          10       35255           0
</event>
<event>
      5   9999  3.79277E-02  1.80524E+02 -1.00000E+00  1.13292E-01
      -3    -1     0     0     0   501  0.000000000E+00  0.000000000E+00  4.880239521E+02  4.880239521E+02  0.000000000E+00  0.00000E+00  9.000E+00
      21    -1     0     0   501   502  0.000000000E+00  0.000000000E+00 -4.277720106E+02  4.277720106E+02  0.000000000E+00  0.00000E+00  9.000E+00
      25     1     1     2     0     0  2.747212373E+01  2.141804575E+02 -1.952670973E+02  3.168315408E+02  1.250000000E+02  0.00000E+00  9.000E+00
      25     1     1     2     0     0 -1.783689912E+02 -1.150884440E+02 -4.303462481E+01  2.500756403E+02  1.250000000E+02  0.00000E+00  9.000E+00
      -3     1     1     2     0   502  1.508968675E+02 -9.909201355E+01  2.985536637E+02  3.488887815E+02  3.814697266E-06  0.00000E+00  9.000E+00
#rwgt            1           1   3.3574423504132866E-002          10       35362           0
</event>
<event>
      5   9999  3.79277E-02  2.14945E+02 -1.00000E+00  1.10520E-01
       2    -1     0     0   502     0  0.000000000E+00  0.000000000E+00  1.000080673E+03  1.000080673E+03  0.000000000E+00  0.00000E+00  9.000E+00
      21    -1     0     0   501   502  0.000000000E+00  0.000000000E+00 -5.106449453E+02  5.106449453E+02  0.000000000E+00  0.00000E+00  9.000E+00
      25     1     1     2     0     0 -2.960205300E+01 -4.776865180E+01 -4.081808653E+02  4.305748999E+02  1.250000000E+02  0.00000E+00  9.000E+00
      25     1     1     2     0     0  1.083456796E+01 -1.663550762E+02  6.209171855E+01  2.174207459E+02  1.250000000E+02  0.00000E+00  9.000E+00
       2     1     1     2   501     0  1.876748504E+01  2.141237280E+02  8.355248740E+02  8.627299720E+02  0.000000000E+00  0.00000E+00  9.000E+00
#rwgt            1           1   2.7698728972159858E-002          10       35417           0
</event>
<event>
      5   9999  3.79277E-02  6.37092E+01 -1.00000E+00  1.33326E-01
      21    -1     0     0   502   501  0.000000000E+00  0.000000000E+00  1.463049444E+02  1.463049444E+02  0.000000000E+00  0.00000E+00  9.000E+00
      21    -1     0     0   501   511  0.000000000E+00  0.000000000E+00 -9.477762551E+02  9.477762551E+02  0.000000000E+00  0.00000E+00  9.000E+00
      25     1     1     2     0     0 -1.751427397E+02  3.418013166E+01  9.140492876E+00  2.180637734E+02  1.250000000E+02  0.00000E+00  9.000E+00
      25     1     1     2     0     0  2.324607176E+02 -6.368106108E+00 -7.032593823E+02  7.511839300E+02  1.250000000E+02  0.00000E+00  9.000E+00
      21     1     1     2   502   511 -5.731797785E+01 -2.781202555E+01 -1.073524213E+02  1.248334960E+02  0.000000000E+00  0.00000E+00  9.000E+00
#rwgt            1           1   4.5755150255904063E-002          10       35647           0
</event>
<event>
      5   9999  3.79277E-02  7.57278E+01 -1.00000E+00  1.29514E-01
      21    -1     0     0   512   501  0.000000000E+00  0.000000000E+00  1.341083312E+03  1.341083312E+03  0.000000000E+00  0.00000E+00  9.000E+00
      21    -1     0     0   501   502  0.000000000E+00  0.000000000E+00 -3.559486445E+02  3.559486445E+02  0.000000000E+00  0.00000E+00  9.000E+00
      25     1     1     2     0     0  1.193119576E+02 -1.524826634E+02  1.171554809E+02  2.585279725E+02  1.250000000E+02  0.00000E+00  9.000E+00
      25     1     1     2     0     0 -1.774749189E+02  1.039876207E+02 -2.329550226E+02  3.349683786E+02  1.250000000E+02  0.00000E+00  9.000E+00
      21     1     1     2   512   502  5.816296130E+01  4.849504269E+01  1.100934209E+03  1.103535605E+03  2.642899792E-05  0.00000E+00  9.000E+00
#rwgt            1           1   3.6472274641108034E-002          10       35790           0
</event>
<event>
      5   9999  3.79277E-02  1.91918E+01 -1.00000E+00  1.67861E-01
      21    -1     0     0   511   501  0.000000000E+00  0.000000000E+00  1.099213403E+02  1.099213403E+02  0.000000000E+00  0.00000E+00  9.000E+00
      21    -1     0     0   501   502  0.000000000E+00  0.000000000E+00 -6.830694841E+02  6.830694841E+02  0.000000000E+00  0.00000E+00  9.000E+00
      25     1     1     2     0     0 -8.905021453E+01  1.042962520E+02 -4.793261446E+01  1.916512051E+02  1.250000000E+02  0.00000E+00  9.000E+00
      25     1     1     2     0     0  6.987269706E+01 -1.050361974E+02 -5.453411983E+02  5.735301380E+02  1.250000000E+02  0.00000E+00  9.000E+00
      21     1     1     2   511   502  1.917751747E+01  7.399453764E-01  2.012566900E+01  2.780948127E+01  2.384185791E-07  0.00000E+00  9.000E+00
#rwgt            1           1   3.7220405268563142E-002          10       35923           0
</event>
<event>
      5   9999  3.79277E-02  5.19575E+01 -1.00000E+00  1.38131E-01
      21    -1     0     0   502   501  0.000000000E+00  0.000000000E+00  1.710916439E+02  1.710916439E+02  0.000000000E+00  0.00000E+00  9.000E+00
      -1    -1     0     0     0   502  0.000000000E+00  0.000000000E+00 -1.058519731E+03  1.058519731E+03  0.000000000E+00  0.00000E+00  9.000E+00
      25     1     1     2     0     0  2.039355130E+02 -1.129456970E+02 -1.104090173E+02  2.866384046E+02  1.250000000E+02  0.00000E+00  9.000E+00
      25     1     1     2     0     0 -1.525348523E+02  1.205318888E+02 -8.083880727E+01  2.448565501E+02  1.250000000E+02  0.00000E+00  9.000E+00
      -1     1     1     2     0   501 -5.140066066E+01 -7.586191801E+00 -6.961802629E+02  6.981164206E+02  1.321449896E-05  0.00000E+00  9.000E+00
#rwgt            1           1   3.8839435515554424E-002          10       36133           0
</event>
<event>
      5   9999  3.79277E-02  5.00341E+01 -1.00000E+00  1.39059E-01
      21    -1     0     0   502   501  0.000000000E+00  0.000000000E+00  6.577434275E+02  6.577434275E+02  0.000000000E+00  0.00000E+00  9.000E+00
      21    -1     0     0   501   511  0.000000000E+00  0.000000000E+00 -1.045434896E+02  1.045434896E+02  0.000000000E+00  0.00000E+00  9.000E+00
      25     1     1     2     0     0 -1.129582246E+02 -5.515391232E+01  4.466810212E+02  4.805730426E+02  1.250000000E+02  0.00000E+00  9.000E+00
      25     1     1     2     0     0  1.368572738E+02  9.911120737E+01  9.330243597E+01  2.299636697E+02  1.250000000E+02  0.00000E+00  9.000E+00
      21     1     1     2   502   511 -2.389904922E+01 -4.395729506E+01  1.321648072E+01  5.175020488E+01  9.233911863E-07  0.00000E+00  9.000E+00
#rwgt            1           1   4.1894928276529311E-002          10       36230           0
</event>
<event>
      5   9999  3.79277E-02  3.73123E+01 -1.00000E+00  1.46739E-01
      21    -1     0     0   502   501  0.000000000E+00  0.000000000E+00  1.649582267E+02  1.649582267E+02  0.000000000E+00  0.00000E+00  9.000E+00
      21    -1     0     0   501   512  0.000000000E+00  0.000000000E+00 -7.484165943E+02  7.484165943E+02  0.000000000E+00  0.00000E+00  9.000E+00
      25     1     1     2     0     0  9.745603718E+01  1.042342144E+02  6.817650486E+01  2.015824557E+02  1.250000000E+02  0.00000E+00  9.000E+00
      25     1     1     2     0     0 -9.175370012E+01 -6.736022511E+01 -2.147195404E+02  2.732867037E+02  1.250000000E+02  0.00000E+00  9.000E+00
      21     1     1     2   502   512 -5.702337066E+00 -3.687398934E+01 -4.369153321E+02  4.385056615E+02  5.394796609E-06  0.00000E+00  9.000E+00
#rwgt            1           1   4.7886314513942922E-002          10       36367           0
</event>
<event>
      5   9999  3.79277E-02  6.71641E+01 -1.00000E+00  1.32137E-01
      21    -1     0     0   511   501  0.000000000E+00  0.000000000E+00  2.600529719E+02  2.600529719E+02  0.000000000E+00  0.00000E+00  9.000E+00
      21    -1     0     0   501   502  0.000000000E+00  0.000000000E+00 -2.574657386E+02  2.574657386E+02  0.000000000E+00  0.00000E+00  9.000E+00
      25     1     1     2     0     0 -1.370500848E+02  7.799180633E+01  6.760825086E+01  2.122765252E+02  1.250000000E+02  0.00000E+00  9.000E+00
      25     1     1     2     0     0  1.705290500E+02 -1.976664627E+01 -9.382579171E+01  2.321619185E+02  1.250000000E+02  0.00000E+00  9.000E+00
      21     1     1     2   511   502 -3.347896527E+01 -5.822516005E+01  2.880477410E+01  7.308026676E+01  1.815741803E-06  0.00000E+00  9.000E+00
#rwgt            1           1   3.9682758628323593E-002          10       36575           0
</event>
<event>
      5   9999  3.79277E-02  1.55066E+02 -1.00000E+00  1.15825E-01
      21    -1     0     0   502   512  0.000000000E+00  0.000000000E+00  2.359297287E+02  2.359297287E+02  0.000000000E+00  0.00000E+00  9.000E+00
      21    -1     0     0   501   502  0.000000000E+00  0.000000000E+00 -1.511234469E+03  1.511234469E+03  0.000000000E+00  0.00000E+00  9.000E+00
      25     1     1     2     0     0  1.959220622E+02 -2.430756685E+02 -9.119228990E+01  3.484426335E+02  1.250000000E+02  0.00000E+00  9.000E+00
      25     1     1     2     0     0 -4.106745434E+01  2.511773064E+02 -1.208880282E+03  1.241689619E+03  1.250000000E+02  0.00000E+00  9.000E+00
      21     1     1     2   501   512 -1.548546079E+02 -8.101637831E+00  2.476783175E+01  1.570319446E+02  2.654916936E-06  0.00000E+00  9.000E+00
#rwgt            2          11   2.9679102206072606E-003          10       36886           0
</event>
<event>
      5   9999  3.79277E-02  5.55268E+01 -1.00000E+00  1.36526E-01
       2    -1     0     0   502     0  0.000000000E+00  0.000000000E+00  1.394909916E+03  1.394909916E+03  0.000000000E+00  0.00000E+00  9.000E+00
      21    -1     0     0   501   502  0.000000000E+00  0.000000000E+00 -7.116045236E+01  7.116045236E+01  0.000000000E+00  0.00000E+00  9.000E+00
      25     1     1     2     0     0 -2.607720000E+01 -5.766238323E+00  3.621324236E+02  3.840288558E+02  1.250000000E+02  0.00000E+00  9.000E+00
      25     1     1     2     0     0  2.159244207E+01 -4.957917919E+01  1.868000189E+01  1.374709825E+02  1.250000000E+02  0.00000E+00  9.000E+00
       2     1     1     2   501     0  4.484757932E+00  5.534541751E+01  9.429370383E+02  9.445705302E+02  1.078959322E-05  0.00000E+00  9.000E+00
#rwgt            1           1   3.7173791166695933E-002          10       37071           0
</event>
<event>
      5   9999  3.79277E-02  8.20458E+00 -1.00000E+00  2.06247E-01
      21    -1     0     0   511   501  0.000000000E+00  0.000000000E+00  4.218252304E+02  4.218252304E+02  0.000000000E+00  0.00000E+00  9.000E+00
      21    -1     0     0   501   502  0.000000000E+00  0.000000000E+00 -1.892402490E+02  1.892402490E+02  0.000000000E+00  0.00000E+00  9.000E+00
      25     1     1     2     0     0  1.079450594E+02 -8.689588906E+00  2.809684681E+02  3.260305582E+02  1.250000000E+02  0.00000E+00  9.000E+00
      25     1     1     2     0     0 -1.083825350E+02  1.688249628E+01 -1.249608768E+02  2.080192619E+02  1.250000000E+02  0.00000E+00  9.000E+00
      21     1     1     2   511   502  4.374755770E-01 -8.192907375E+00  7.657739011E+01  7.701565940E+01  9.536743164E-07  0.00000E+00  9.000E+00
#rwgt            1           1   3.1532055768035118E-002          10       37181           0
</event>
<event>
      5   9999  3.79277E-02  1.49123E+01 -1.00000E+00  1.77624E-01
      21    -1     0     0   502   501  0.000000000E+00  0.000000000E+00  5.530273541E+01  5.530273541E+01  0.000000000E+00  0.00000E+00  9.000E+00
      21    -1     0     0   501   512  0.000000000E+00  0.000000000E+00 -1.749825679E+03  1.749825679E+03  0.000000000E+00  0.00000E+00  9.000E+00
      25     1     1     2     0     0 -2.108189385E+01  1.662564307E+02 -1.066648987E+03  1.086945587E+03  1.250000000E+02  0.00000E+00  9.000E+00
      25     1     1     2     0     0  9.340007246E+00 -1.754490793E+02 -2.131658200E+02  3.032066654E+02  1.250000000E+02  0.00000E+00  9.000E+00
      21     1     1     2   502   512  1.174188660E+01  9.192648548E+00 -4.147081361E+02  4.149761618E+02  0.000000000E+00  0.00000E+00  9.000E+00
#rwgt            1           1   3.9293216950435507E-002          10       37519           0
</event>
<event>
      5   9999  3.79277E-02  2.47494E+01 -1.00000E+00  1.59079E-01
      21    -1     0     0   502   511  0.000000000E+00  0.000000000E+00  1.729436481E+02  1.729436481E+02  0.000000000E+00  0.00000E+00  9.000E+00
      21    -1     0     0   501   502  0.000000000E+00  0.000000000E+00 -9.415395560E+02  9.415395560E+02  0.000000000E+00  0.00000E+00  9.000E+00
      25     1     1     2     0     0  1.933979061E+02  1.301666889E+02  2.838422145E+00  2.645357701E+02  1.250000000E+02  0.00000E+00  9.000E+00
      25     1     1     2     0     0 -2.164253556E+02 -1.392368718E+02 -7.738863195E+02  8.250768913E+02  1.250000000E+02  0.00000E+00  9.000E+00
      21     1     1     2   501   511  2.302744944E+01  9.070182905E+00  2.451989394E+00  2.487054277E+01  3.475518164E-07  0.00000E+00  9.000E+00
#rwgt            1           1   6.1489117272503231E-002          10       37822           0
</event>
<event>
      5   9999  3.79277E-02  1.04248E+02 -1.00000E+00  1.23021E-01
      21    -1     0     0   502   512  0.000000000E+00  0.000000000E+00  1.039818757E+03  1.039818757E+03  0.000000000E+00  0.00000E+00  9.000E+00
      21    -1     0     0   501   502  0.000000000E+00  0.000000000E+00 -6.266857915E+01  6.266857915E+01  0.000000000E+00  0.00000E+00  9.000E+00
      25     1     1     2     0     0  5.498385447E+01 -1.282397284E+02  2.940969241E+02  3.486927773E+02  1.250000000E+02  0.00000E+00  9.000E+00
      25     1     1     2     0     0 -4.278562160E-01  3.940646641E+01  1.093339273E+02  1.706808727E+02  1.250000000E+02  0.00000E+00  9.000E+00
      21     1     1     2   501   512 -5.455599825E+01  8.883326197E+01  5.737193267E+02  5.831136863E+02  1.078959322E-05  0.00000E+00  9.000E+00
#rwgt            1           1   4.2653285854629013E-002          10       38008           0
</event>
<event>
      5   9999  3.79277E-02  3.23552E+01 -1.00000E+00  1.50795E-01
      21    -1     0     0   502   501  0.000000000E+00  0.000000000E+00  3.505921737E+02  3.505921737E+02  0.000000000E+00  0.00000E+00  9.000E+00
      -1    -1     0     0     0   502  0.000000000E+00  0.000000000E+00 -3.433920804E+02  3.433920804E+02  0.000000000E+00  0.00000E+00  9.000E+00
      25     1     1     2     0     0 -7.771891370E+01  1.679336366E+02  1.560313696E+02  2.724201244E+02  1.250000000E+02  0.00000E+00  9.000E+00
      25     1     1     2     0     0  1.100612120E+02 -1.670214575E+02  3.184831220E+01  2.380104045E+02  1.250000000E+02  0.00000E+00  9.000E+00
      -1     1     1     2     0   501 -3.234229827E+01 -9.121791389E-01 -1.806795886E+02  1.835537253E+02  1.907348633E-06  0.00000E+00  9.000E+00
#rwgt            1           1   4.0667175766688213E-002          10       38099           0
</event>
<event>
      5   9999  3.79277E-02  5.89172E+01 -1.00000E+00  1.35127E-01
      21    -1     0     0   502   501  0.000000000E+00  0.000000000E+00  6.455231498E+02  6.455231498E+02  0.000000000E+00  0.00000E+00  9.000E+00
      21    -1     0     0   511   502  0.000000000E+00  0.000000000E+00 -1.594315918E+02  1.594315918E+02  0.000000000E+00  0.00000E+00  9.000E+00
      25     1     1     2     0     0  1.272136352E+02 -6.826111359E+01  5.141998844E+02  5.485156422E+02  1.250000000E+02  0.00000E+00  9.000E+00
      25     1     1     2     0     0 -6.839512930E+01  6.485151189E+01  4.467126899E+01  1.628009047E+02  1.250000000E+02  0.00000E+00  9.000E+00
      21     1     1     2   511   501 -5.881850585E+01  3.409601700E+00 -7.277959534E+01  9.363819473E+01  1.348699152E-06  0.00000E+00  9.000E+00
#rwgt            1           1   4.7404223187029755E-002          10       38283           0
</event>
<event>
      5   9999  3.79277E-02  1.89595E+01 -1.00000E+00  1.68307E-01
      21    -1     0     0   502   501  0.000000000E+00  0.000000000E+00  3.739730678E+02  3.739730678E+02  0.000000000E+00  0.00000E+00  9.000E+00
      21    -1     0     0   501   512  0.000000000E+00  0.000000000E+00 -7.507770774E+02  7.507770774E+02  0.000000000E+00  0.00000E+00  9.000E+00
      25     1     1     2     0     0 -1.769620237E+02  9.270548764E+01 -2.731522784E+01  2.372361417E+02  1.250000000E+02  0.00000E+00  9.000E+00
      25     1     1     2     0     0  1.768647660E+02 -1.116647133E+02  2.136415484E+02  3.240645998E+02  1.250000000E+02  0.00000E+00  9.000E+00
      21     1     1     2   502   512  9.725771701E-02  1.895922567E+01 -5.631303302E+02  5.634494037E+02  7.629394531E-06  0.00000E+00  9.000E+00
#rwgt            1           1   3.6055287705910363E-002          10       38453           0
</event>
<event>
      5   9999  3.79277E-02  1.83841E+01 -1.00000E+00  1.69446E-01
      21    -1     0     0   502   511  0.000000000E+00  0.000000000E+00  1.074201398E+02  1.074201398E+02  0.000000000E+00  0.00000E+00  9.000E+00
      21    -1     0     0   501   502  0.000000000E+00  0.000000000E+00 -1.787980542E+03  1.787980542E+03  0.000000000E+00  0.00000E+00  9.000E+00
      25     1     1     2     0     0  7.362394636E-01  2.928623694E+01 -1.222978041E+02  1.773132218E+02  1.250000000E+02  0.00000E+00  9.000E+00
      25     1     1     2     0     0  1.679396803E+01 -2.374845901E+01 -1.634568037E+03  1.639598638E+03  1.250000000E+02  0.00000E+00  9.000E+00
      21     1     1     2   501   511 -1.753020749E+01 -5.537777929E+00  7.630543892E+01  7.848882193E+01  4.156969970E-06  0.00000E+00  9.000E+00
#rwgt            1           1   6.3420162920428264E-002          10       38613           0
</event>
<event>
      5   9999  3.79277E-02  1.56093E+01 -1.00000E+00  1.75770E-01
      21    -1     0     0   502   501  0.000000000E+00  0.000000000E+00  1.651947688E+02  1.651947688E+02  0.000000000E+00  0.00000E+00  9.000E+00
      21    -1     0     0   501   512  0.000000000E+00  0.000000000E+00 -6.062418228E+02  6.062418228E+02  0.000000000E+00  0.00000E+00  9.000E+00
      25     1     1     2     0     0  1.449123810E+02 -7.665365620E+01 -4.224550834E+01  2.104401676E+02  1.250000000E+02  0.00000E+00  9.000E+00
      25     1     1     2     0     0 -1.489406401E+02  9.173422798E+01 -6.189513735E+01  2.237286099E+02  1.250000000E+02  0.00000E+00  9.000E+00
      21     1     1     2   502   512  4.028259073E+00 -1.508057178E+01 -3.369064083E+02  3.372678141E+02  3.814697266E-06  0.00000E+00  9.000E+00
#rwgt            1           1   3.4304008172001424E-002          10       38809           0
</event>
<event>
      5   9999  3.79277E-02  2.00875E+01 -1.00000E+00  1.66213E-01
      21    -1     0     0   511   501  0.000000000E+00  0.000000000E+00  2.461602312E+02  2.461602312E+02  0.000000000E+00  0.00000E+00  9.000E+00
      21    -1     0     0   501   502  0.000000000E+00  0.000000000E+00 -4.697339780E+02  4.697339780E+02  0.000000000E+00  0.00000E+00  9.000E+00
      25     1     1     2     0     0 -7.063876483E+00 -2.385411957E+02 -3.249729344E+02  4.221187137E+02  1.250000000E+02  0.00000E+00  9.000E+00
      25     1     1     2     0     0 -3.285810720E+00  2.213251493E+02  8.564009944E+01  2.682440025E+02  1.250000000E+02  0.00000E+00  9.000E+00
      21     1     1     2   511   502  1.034968720E+01  1.721604639E+01  1.575908811E+01  2.553149304E+01  1.685873940E-07  0.00000E+00  9.000E+00
#rwgt            1           1   5.1900925216345019E-002          10       39063           0
</event>
<event>
      5   9999 -3.79277E-02  6.62994E+01 -1.00000E+00  1.32427E-01
      21    -1     0     0   502   501  0.000000000E+00  0.000000000E+00  2.119181487E+02  2.119181487E+02  0.000000000E+00  0.00000E+00  9.000E+00
      21    -1     0     0   501   512  0.000000000E+00  0.000000000E+00 -5.288886515E+02  5.288886515E+02  0.000000000E+00  0.00000E+00  9.000E+00
      25     1     1     2     0     0  1.718100849E+02  9.353044794E+00 -1.898601048E+02  2.850930447E+02  1.250000000E+02  0.00000E+00  9.000E+00
      25     1     1     2     0     0 -1.120719120E+02 -3.810988436E+01  1.134557948E+02  2.061787916E+02  1.250000000E+02  0.00000E+00  9.000E+00
      21     1     1     2   502   512 -5.973817293E+01  2.875683957E+01 -2.405661928E+02  2.495349640E+02  2.697398305E-06  0.00000E+00  9.000E+00
#rwgt            1           1 -0.11233007150176574               10       39280           0
</event>
<event>
      5   9999  3.79277E-02  2.64809E+01 -1.00000E+00  1.56901E-01
      21    -1     0     0   511   501  0.000000000E+00  0.000000000E+00  3.559176234E+02  3.559176234E+02  0.000000000E+00  0.00000E+00  9.000E+00
      21    -1     0     0   501   502  0.000000000E+00  0.000000000E+00 -1.590608834E+02  1.590608834E+02  0.000000000E+00  0.00000E+00  9.000E+00
      25     1     1     2     0     0  1.159787949E+02  1.000047537E+02  1.298827895E+02  2.365302743E+02  1.250000000E+02  0.00000E+00  9.000E+00
      25     1     1     2     0     0 -1.251474938E+02 -7.516175137E+01 -1.454358971E+01  1.927373863E+02  1.250000000E+02  0.00000E+00  9.000E+00
      21     1     1     2   511   502  9.168698862E+00 -2.484300232E+01  8.151754013E+01  8.571084618E+01  1.907348633E-06  0.00000E+00  9.000E+00
#rwgt            1           1   3.9288718247934097E-002          10       39512           0
</event>
<event>
      5   9999  3.79277E-02  3.96553E+01 -1.00000E+00  1.45074E-01
      21    -1     0     0   502   501  0.000000000E+00  0.000000000E+00  1.982438747E+02  1.982438747E+02  0.000000000E+00  0.00000E+00  9.000E+00
      21    -1     0     0   512   502  0.000000000E+00  0.000000000E+00 -2.537045057E+02  2.537045057E+02  0.000000000E+00  0.00000E+00  9.000E+00
      25     1     1     2     0     0  3.166189360E+01  1.647189994E+02 -6.204460302E+01  2.181956852E+02  1.250000000E+02  0.00000E+00  9.000E+00
      25     1     1     2     0     0 -2.798023939E+00 -1.375267615E+02  2.913096534E+01  1.881357282E+02  1.250000000E+02  0.00000E+00  9.000E+00
      21     1     1     2   512   501 -2.886386966E+01 -2.719223790E+01 -2.254699328E+01  4.561696702E+01  7.539457465E-07  0.00000E+00  9.000E+00
#rwgt            1           1   3.7775592141722228E-002          10       39723           0
</event>
<event>
      5   9999  3.79277E-02  8.53612E+00 -1.00000E+00  2.04054E-01
      21    -1     0     0   502   501  0.000000000E+00  0.000000000E+00  1.140223119E+03  1.140223119E+03  0.000000000E+00  0.00000E+00  9.000E+00
      21    -1     0     0   501   511  0.000000000E+00  0.000000000E+00 -3.333483411E+01  3.333483411E+01  0.000000000E+00  0.00000E+00  9.000E+00
      25     1     1     2     0     0 -1.272364910E+02 -4.398010711E+01  6.433044267E+02  6.690208965E+02  1.250000000E+02  0.00000E+00  9.000E+00
      25     1     1     2     0     0  1.328526956E+02  5.040845316E+01  4.529795406E+02  4.909239403E+02  1.250000000E+02  0.00000E+00  9.000E+00
      21     1     1     2   502   511 -5.616204631E+00 -6.428346053E+00  1.060431748E+01  1.361311634E+01  3.769728732E-07  0.00000E+00  9.000E+00
#rwgt            1           1   1.9210602132890105E-002          10       39968           0
</event>
<event>
      5   9999  3.79277E-02  3.44527E+01 -1.00000E+00  1.48979E-01
      21    -1     0     0   502   501  0.000000000E+00  0.000000000E+00  8.525572637E+01  8.525572637E+01  0.000000000E+00  0.00000E+00  9.000E+00
      21    -1     0     0   501   512  0.000000000E+00  0.000000000E+00 -8.133737520E+02  8.133737520E+02  0.000000000E+00  0.00000E+00  9.000E+00
      25     1     1     2     0     0  1.298268094E+02  7.581061338E+01 -8.445626660E+01  2.129791316E+02  1.250000000E+02  0.00000E+00  9.000E+00
      25     1     1     2     0     0 -1.113295808E+02 -1.048767139E+02 -5.869147677E+02  6.192635507E+02  1.250000000E+02  0.00000E+00  9.000E+00
      21     1     1     2   502   512 -1.849722864E+01  2.906610050E+01 -5.674699132E+01  6.638679605E+01  1.348699152E-06  0.00000E+00  9.000E+00
#rwgt            1           1   2.6018690883823688E-002          10       40285           0
</event>
<event>
      5   9999 -3.79277E-02  1.69215E+01 -1.00000E+00  1.72590E-01
      21    -1     0     0   502   511  0.000000000E+00  0.000000000E+00  2.362611889E+02  2.362611889E+02  0.000000000E+00  0.00000E+00  9.000E+00
      21    -1     0     0   501   502  0.000000000E+00  0.000000000E+00 -7.567783553E+02  7.567783553E+02  0.000000000E+00  0.00000E+00  9.000E+00
      25     1     1     2     0     0  9.598504210E+01  8.505540365E+01 -4.078294764E+02  4.454182662E+02  1.250000000E+02  0.00000E+00  9.000E+00
      25     1     1     2     0     0 -1.023836896E+02 -1.007205014E+02 -3.022955133E+02  3.572598727E+02  1.250000000E+02  0.00000E+00  9.000E+00
      21     1     1     2   501   511  6.398647521E+00  1.566509775E+01  1.896078233E+02  1.903614054E+02  3.814697266E-06  0.00000E+00  9.000E+00
#rwgt            1           1  -8.6953839215028139E-002          10       40463           0
</event>
<event>
      5   9999  3.79277E-02  2.61426E+01 -1.00000E+00  1.57311E-01
      21    -1     0     0   502   501  0.000000000E+00  0.000000000E+00  1.916144195E+02  1.916144195E+02  0.000000000E+00  0.00000E+00  9.000E+00
      21    -1     0     0   501   512  0.000000000E+00  0.000000000E+00 -1.803017819E+02  1.803017819E+02  0.000000000E+00  0.00000E+00  9.000E+00
      25     1     1     2     0     0 -6.240992289E+01  4.425368065E+01  9.920002153E+01  1.769718367E+02  1.250000000E+02  0.00000E+00  9.000E+00
      25     1     1     2     0     0  4.100289759E+01 -5.925954105E+01 -8.761052014E+01  1.688002786E+02  1.250000000E+02  0.00000E+00  9.000E+00
      21     1     1     2   502   512  2.140702530E+01  1.500586040E+01 -2.768637788E-01  2.614408599E+01  5.550432520E-07  0.00000E+00  9.000E+00
#rwgt            1           1   1.5634705972682052E-002          10       40674           0
</event>
<event>
      5   9999  3.79277E-02  3.13374E+01 -1.00000E+00  1.51736E-01
      21    -1     0     0   502   501  0.000000000E+00  0.000000000E+00  8.554169205E+02  8.554169205E+02  0.000000000E+00  0.00000E+00  9.000E+00
      21    -1     0     0   501   511  0.000000000E+00  0.000000000E+00 -1.034355784E+02  1.034355784E+02  0.000000000E+00  0.00000E+00  9.000E+00
      25     1     1     2     0     0 -1.096366097E+02 -1.901136522E+02  3.520523983E+02  4.332773685E+02  1.250000000E+02  0.00000E+00  9.000E+00
      25     1     1     2     0     0  1.096939594E+02  2.214510396E+02  4.080928335E+02  4.931917359E+02  1.250000000E+02  0.00000E+00  9.000E+00
      21     1     1     2   502   511 -5.734970382E-02 -3.133738746E+01 -8.163889646E+00  3.238339445E+01  3.576278687E-07  0.00000E+00  9.000E+00
#rwgt            1           1  0.13970078615993622               10       40798           0
</event>
<event>
      5   9999  3.79277E-02  2.19783E+01 -1.00000E+00  1.63059E-01
      21    -1     0     0   502   512  0.000000000E+00  0.000000000E+00  4.238829450E+02  4.238829450E+02  0.000000000E+00  0.00000E+00  9.000E+00
      21    -1     0     0   501   502  0.000000000E+00  0.000000000E+00 -1.448861740E+02  1.448861740E+02  0.000000000E+00  0.00000E+00  9.000E+00
      25     1     1     2     0     0 -1.571070932E+02  8.138800885E+00 -1.431345325E+01  2.014416882E+02  1.250000000E+02  0.00000E+00  9.000E+00
      25     1     1     2     0     0  1.430606193E+02  8.765071232E+00  2.200621226E+02  2.908530644E+02  1.250000000E+02  0.00000E+00  9.000E+00
      21     1     1     2   501   512  1.404647394E+01 -1.690387212E+01  7.324810164E+01  7.647436641E+01  0.000000000E+00  0.00000E+00  9.000E+00
#rwgt            1           1   4.6119543583679194E-002          10       40990           0
</event>
<event>
      5   9999  3.79277E-02  3.14706E+01 -1.00000E+00  1.51610E-01
      21    -1     0     0   511   501  0.000000000E+00  0.000000000E+00  7.288941698E+01  7.288941698E+01  0.000000000E+00  0.00000E+00  9.000E+00
      21    -1     0     0   501   502  0.000000000E+00  0.000000000E+00 -6.472213322E+02  6.472213322E+02  0.000000000E+00  0.00000E+00  9.000E+00
      25     1     1     2     0     0 -4.016204920E+00  1.561600592E+02 -1.885974944E+02  2.749474657E+02  1.250000000E+02  0.00000E+00  9.000E+00
      25     1     1     2     0     0 -2.333655693E+01 -1.405964024E+02 -3.454157137E+02  3.940164445E+02  1.250000000E+02  0.00000E+00  9.000E+00
      21     1     1     2   511   502  2.735276185E+01 -1.556365681E+01 -4.031870703E+01  5.114683891E+01  4.768371582E-07  0.00000E+00  9.000E+00
#rwgt            1           1   2.5532697880793733E-002          10       41181           0
</event>
<event>
      5   9999  3.79277E-02  6.79279E+01 -1.00000E+00  1.31885E-01
      21    -1     0     0   512   501  0.000000000E+00  0.000000000E+00  9.486710480E+01  9.486710480E+01  0.000000000E+00  0.00000E+00  9.000E+00
      21    -1     0     0   501   502  0.000000000E+00  0.000000000E+00 -6.180760660E+02  6.180760660E+02  0.000000000E+00  0.00000E+00  9.000E+00
      25     1     1     2     0     0 -1.934817830E+02  2.535077462E+01 -2.798376714E+02  3.633345352E+02  1.250000000E+02  0.00000E+00  9.000E+00
      25     1     1     2     0     0  1.317793677E+02  3.057144272E+00 -1.929754119E+02  2.650276542E+02  1.250000000E+02  0.00000E+00  9.000E+00
      21     1     1     2   512   502  6.170241527E+01 -2.840791890E+01 -5.039587785E+01  8.458098138E+01  1.168007728E-06  0.00000E+00  9.000E+00
#rwgt            1           1   3.5391475246081772E-002          10       41459           0
</event>
<event>
      5   9999  3.79277E-02  1.06561E+02 -1.00000E+00  1.22599E-01
      21    -1     0     0   502   501  0.000000000E+00  0.000000000E+00  1.766899566E+02  1.766899566E+02  0.000000000E+00  0.00000E+00  9.000E+00
      21    -1     0     0   501   511  0.000000000E+00  0.000000000E+00 -6.266008146E+02  6.266008146E+02  0.000000000E+00  0.00000E+00  9.000E+00
      25     1     1     2     0     0 -5.913878680E+01 -1.691736634E+02 -2.905720698E+02  3.635577702E+02  1.250000000E+02  0.00000E+00  9.000E+00
      25     1     1     2     0     0  1.654484111E+02  1.764914636E+02 -3.274791923E+01  2.742623555E+02  1.250000000E+02  0.00000E+00  9.000E+00
      21     1     1     2   502   511 -1.063096243E+02 -7.317800196E+00 -1.265908690E+02  1.654706455E+02  0.000000000E+00  0.00000E+00  9.000E+00
#rwgt            1           1   3.9403376313113588E-002          10       41564           0
</event>
<event>
      5   9999  3.79277E-02  1.00367E+01 -1.00000E+00  1.95574E-01
      21    -1     0     0   512   501  0.000000000E+00  0.000000000E+00  3.656523196E+02  3.656523196E+02  0.000000000E+00  0.00000E+00  9.000E+00
      21    -1     0     0   501   502  0.000000000E+00  0.000000000E+00 -1.433445798E+02  1.433445798E+02  0.000000000E+00  0.00000E+00  9.000E+00
      25     1     1     2     0     0 -1.269487482E+02  1.626800926E+01 -4.205966472E+01  1.837788023E+02  1.250000000E+02  0.00000E+00  9.000E+00
      25     1     1     2     0     0  1.181518820E+02 -2.110020050E+01  2.217270845E+02  2.814124832E+02  1.250000000E+02  0.00000E+00  9.000E+00
      21     1     1     2   512   502  8.796866162E+00  4.832191237E+00  4.264031993E+01  4.380561391E+01  8.259061849E-07  0.00000E+00  9.000E+00
#rwgt            1           1   3.2548719991193298E-002          10       41608           0
</event>
<event>
      5   9999  3.79277E-02  3.46073E+01 -1.00000E+00  1.48852E-01
      21    -1     0     0   511   501  0.000000000E+00  0.000000000E+00  3.690012657E+02  3.690012657E+02  0.000000000E+00  0.00000E+00  9.000E+00
      21    -1     0     0   501   502  0.000000000E+00  0.000000000E+00 -3.549128448E+02  3.549128448E+02  0.000000000E+00  0.00000E+00  9.000E+00
      25     1     1     2     0     0 -2.149412666E+02 -1.682372605E+02  1.382930458E+02  3.305351576E+02  1.250000000E+02  0.00000E+00  9.000E+00
      25     1     1     2     0     0  2.342640798E+02  1.395267441E+02 -1.630077216E+02  3.413852497E+02  1.250000000E+02  0.00000E+00  9.000E+00
      21     1     1     2   511   502 -1.932281326E+01  2.871051637E+01  3.880309669E+01  5.199370323E+01  0.000000000E+00  0.00000E+00  9.000E+00
#rwgt            1           1   3.0543664279959866E-002          10       41937           0
</event>
<event>
      5   9999  3.79277E-02  1.79954E+01 -1.00000E+00  1.70245E-01
      21    -1     0     0   502   512  0.000000000E+00  0.000000000E+00  3.768270136E+01  3.768270136E+01  0.000000000E+00  0.00000E+00  9.000E+00
      21    -1     0     0   501   502  0.000000000E+00  0.000000000E+00 -1.072700079E+03  1.072700079E+03  0.000000000E+00  0.00000E+00  9.000E+00
      25     1     1     2     0     0  9.182671218E+00  1.433777334E+02 -3.976674345E+02  4.409148266E+02  1.250000000E+02  0.00000E+00  9.000E+00
      25     1     1     2     0     0 -4.920949521E+00 -1.258942463E+02 -6.182765955E+02  6.432453075E+02  1.250000000E+02  0.00000E+00  9.000E+00
      21     1     1     2   501   512 -4.261721696E+00 -1.748348708E+01 -1.907334782E+01  2.622264650E+01  2.384185791E-07  0.00000E+00  9.000E+00
#rwgt            1           1   3.5133218078422006E-002          10       42126           0
</event>
<event>
      5   9999  3.79277E-02  1.46527E+01 -1.00000E+00  1.78347E-01
      21    -1     0     0   502   511  0.000000000E+00  0.000000000E+00  1.131865895E+03  1.131865895E+03  0.000000000E+00  0.00000E+00  9.000E+00
      21    -1     0     0   501   502  0.000000000E+00  0.000000000E+00 -1.031300541E+02  1.031300541E+02  0.000000000E+00  0.00000E+00  9.000E+00
      25     1     1     2     0     0 -2.723683496E+02  6.090745740E+01  2.489380444E+02  3.943214249E+02  1.250000000E+02  0.00000E+00  9.000E+00
      25     1     1     2     0     0  2.578707251E+02 -5.878120112E+01  6.864599363E+02  7.461935303E+02  1.250000000E+02  0.00000E+00  9.000E+00
      21     1     1     2   501   511  1.449762450E+01 -2.126256285E+00  9.333786038E+01  9.448099418E+01  1.348699152E-06  0.00000E+00  9.000E+00
#rwgt            1           1   3.8676637812000966E-002          10       42392           0
</event>
<event>
      5   9999  3.79277E-02  4.48278E+01 -1.00000E+00  1.41836E-01
      21    -1     0     0   502   501  0.000000000E+00  0.000000000E+00  8.833099213E+01  8.833099213E+01  0.000000000E+00  0.00000E+00  9.000E+00
      21    -1     0     0   512   502  0.000000000E+00  0.000000000E+00 -6.967543018E+02  6.967543018E+02  0.000000000E+00  0.00000E+00  9.000E+00
      25     1     1     2     0     0  7.129279949E+01  5.867412002E+01 -1.546419904E+01  1.561712428E+02  1.250000000E+02  0.00000E+00  9.000E+00
      25     1     1     2     0     0 -4.681373431E+01 -9.622820399E+01 -4.537242378E+02  4.826407328E+02  1.250000000E+02  0.00000E+00  9.000E+00
      21     1     1     2   512   501 -2.447906518E+01  3.755408397E+01 -1.392348728E+02  1.462733183E+02  2.697398305E-06  0.00000E+00  9.000E+00
#rwgt            1           1   2.7598684353623996E-002          10       42599           0
</event>
<event>
      5   9999  3.79277E-02  2.47240E+01 -1.00000E+00  1.59113E-01
      21    -1     0     0   502   501  0.000000000E+00  0.000000000E+00  2.925222749E+01  2.925222749E+01  0.000000000E+00  0.00000E+00  9.000E+00
      21    -1     0     0   511   502  0.000000000E+00  0.000000000E+00 -1.696486959E+03  1.696486959E+03  0.000000000E+00  0.00000E+00  9.000E+00
      25     1     1     2     0     0  9.959575752E+01  2.658730298E+01 -2.512687799E+02  2.989769211E+02  1.250000000E+02  0.00000E+00  9.000E+00
      25     1     1     2     0     0 -7.517164952E+01 -2.274838954E+01 -1.105459054E+03  1.115272606E+03  1.250000000E+02  0.00000E+00  9.000E+00
      21     1     1     2   511   501 -2.442410800E+01 -3.838913433E+00 -3.105068972E+02  3.114896588E+02  3.814697266E-06  0.00000E+00  9.000E+00
#rwgt            1           1   5.7198725667557328E-002          10       42677           0
</event>
<event>
      5   9999  3.79277E-02  6.33763E+01 -1.00000E+00  1.33445E-01
      21    -1     0     0   502   512  0.000000000E+00  0.000000000E+00  3.610126718E+02  3.610126718E+02  0.000000000E+00  0.00000E+00  9.000E+00
      21    -1     0     0   501   502  0.000000000E+00  0.000000000E+00 -1.078458349E+03  1.078458349E+03  0.000000000E+00  0.00000E+00  9.000E+00
      25     1     1     2     0     0  1.111724698E+02  5.730398585E+01 -1.174954428E+02  2.123046017E+02  1.250000000E+02  0.00000E+00  9.000E+00
      25     1     1     2     0     0 -8.996690406E+01  2.419402040E+00 -9.037727336E+02  9.168042601E+02  1.250000000E+02  0.00000E+00  9.000E+00
      21     1     1     2   501   512 -2.120556573E+01 -5.972338789E+01  3.038224989E+02  3.103621593E+02  6.607249480E-06  0.00000E+00  9.000E+00
#rwgt            1           1   2.6804837313354337E-002          10       42818           0
</event>
<event>
      5   9999  3.79277E-02  5.03655E+01 -1.00000E+00  1.38895E-01
      21    -1     0     0   502   511  0.000000000E+00  0.000000000E+00  1.466000930E+02  1.466000930E+02  0.000000000E+00  0.00000E+00  9.000E+00
      21    -1     0     0   501   502  0.000000000E+00  0.000000000E+00 -4.276311006E+02  4.276311006E+02  0.000000000E+00  0.00000E+00  9.000E+00
      25     1     1     2     0     0  1.018745780E+01  2.475935589E+00  7.314594500E+01  1.452075887E+02  1.250000000E+02  0.00000E+00  9.000E+00
      25     1     1     2     0     0  1.196102112E+01  4.275826097E+01 -3.546601745E+02  3.786557464E+02  1.250000000E+02  0.00000E+00  9.000E+00
      21     1     1     2   501   511 -2.214847892E+01 -4.523419656E+01  4.832219007E-01  5.036785840E+01  7.977515862E-07  0.00000E+00  9.000E+00
#rwgt            1           1   3.2400946752752749E-002          10       42874           0
</event>
<event>
      5   9999  3.79277E-02  3.40677E+01 -1.00000E+00  1.49301E-01
      21    -1     0     0   502   501  0.000000000E+00  0.000000000E+00  5.025220316E+02  5.025220316E+02  0.000000000E+00  0.00000E+00  9.000E+00
       2    -1     0     0   501     0  0.000000000E+00  0.000000000E+00 -1.007070752E+03  1.007070752E+03  0.000000000E+00  0.00000E+00  9.000E+00
      25     1     1     2     0     0  9.110617503E+01  2.005753578E+02  2.335457421E+02  3.445278261E+02  1.250000000E+02  0.00000E+00  9.000E+00
      25     1     1     2     0     0 -8.560734248E+01 -2.341963173E+02  1.218950396E+02  3.044009409E+02  1.250000000E+02  0.00000E+00  9.000E+00
       2     1     1     2   502     0 -5.498832557E+00  3.362095952E+01 -8.599895024E+02  8.606640171E+02  0.000000000E+00  0.00000E+00  9.000E+00
#rwgt            1           1   3.6268200271114354E-002          10       43065           0
</event>
<event>
      5   9999  3.79277E-02  8.46122E+01 -1.00000E+00  1.27182E-01
      21    -1     0     0   502   501  0.000000000E+00  0.000000000E+00  2.281946690E+02  2.281946690E+02  0.000000000E+00  0.00000E+00  9.000E+00
      21    -1     0     0   501   511  0.000000000E+00  0.000000000E+00 -3.721217703E+02  3.721217703E+02  0.000000000E+00  0.00000E+00  9.000E+00
      25     1     1     2     0     0 -1.710798430E+02 -2.089089858E+01  3.051154176E+00  2.129296876E+02  1.250000000E+02  0.00000E+00  9.000E+00
      25     1     1     2     0     0  2.110830095E+02 -5.366758857E+01 -4.541041666E+01  2.551927760E+02  1.250000000E+02  0.00000E+00  9.000E+00
      21     1     1     2   502   511 -4.000316655E+01  7.455848716E+01 -1.015678388E+02  1.321939757E+02  2.697398305E-06  0.00000E+00  9.000E+00
#rwgt            1           1   4.2086896390137331E-002          10       43171           0
</event>
<event>
      5   9999  3.79277E-02  6.34247E+01 -1.00000E+00  1.33428E-01
      21    -1     0     0   502   501  0.000000000E+00  0.000000000E+00  8.083924862E+01  8.083924862E+01  0.000000000E+00  0.00000E+00  9.000E+00
      21    -1     0     0   512   502  0.000000000E+00  0.000000000E+00 -7.121757081E+02  7.121757081E+02  0.000000000E+00  0.00000E+00  9.000E+00
      25     1     1     2     0     0 -2.885082779E+01 -1.657812909E+02 -3.574214230E+02  4.143559826E+02  1.250000000E+02  0.00000E+00  9.000E+00
      25     1     1     2     0     0 -1.508525474E+01  1.200394700E+02 -1.176375878E+02  2.100015270E+02  1.250000000E+02  0.00000E+00  9.000E+00
      21     1     1     2   512   501  4.393608254E+01  4.574182085E+01 -1.562774486E+02  1.686574471E+02  1.907348633E-06  0.00000E+00  9.000E+00
#rwgt            1           1   6.5201567213971204E-002          10       43480           0
</event>
<event>
      5   9999  3.79277E-02  1.82848E+01 -1.00000E+00  1.69647E-01
      21    -1     0     0   502   501  0.000000000E+00  0.000000000E+00  1.998747718E+02  1.998747718E+02  0.000000000E+00  0.00000E+00  9.000E+00
      21    -1     0     0   511   502  0.000000000E+00  0.000000000E+00 -5.169057242E+02  5.169057242E+02  0.000000000E+00  0.00000E+00  9.000E+00
      25     1     1     2     0     0 -1.176307583E+02 -5.058466212E+01  9.770885399E+01  2.038818861E+02  1.250000000E+02  0.00000E+00  9.000E+00
      25     1     1     2     0     0  1.338863023E+02  5.895670493E+01 -1.410098056E+02  2.385585887E+02  1.250000000E+02  0.00000E+00  9.000E+00
      21     1     1     2   511   501 -1.625554392E+01 -8.372042810E+00 -2.737300008E+02  2.743400211E+02  3.814697266E-06  0.00000E+00  9.000E+00
#rwgt            1           1   2.0639014879869359E-002          10       43670           0
</event>
<event>
      5   9999  3.79277E-02  4.44618E+01 -1.00000E+00  1.42048E-01
      21    -1     0     0   502   512  0.000000000E+00  0.000000000E+00  3.168091334E+02  3.168091334E+02  0.000000000E+00  0.00000E+00  9.000E+00
      21    -1     0     0   501   502  0.000000000E+00  0.000000000E+00 -3.027813830E+02  3.027813830E+02  0.000000000E+00  0.00000E+00  9.000E+00
      25     1     1     2     0     0  3.525942463E+01  3.562171271E+01  1.000010240E+02  1.677418798E+02  1.250000000E+02  0.00000E+00  9.000E+00
      25     1     1     2     0     0 -5.112067483E+01  5.914644773E+00 -2.487507280E+02  2.831081615E+02  1.250000000E+02  0.00000E+00  9.000E+00
      21     1     1     2   501   512  1.586125020E+01 -4.153635748E+01  1.627774544E+02  1.687404750E+02  1.907348633E-06  0.00000E+00  9.000E+00
#rwgt            1           1   3.1312785518115317E-002          10       43971           0
</event>
<event>
      5   9999  3.79277E-02  6.46769E+00 -1.00000E+00  2.20526E-01
      21    -1     0     0   502   501  0.000000000E+00  0.000000000E+00  1.193997937E+03  1.193997937E+03  0.000000000E+00  0.00000E+00  9.000E+00
      21    -1     0     0   511   502  0.000000000E+00  0.000000000E+00 -1.417211472E+02  1.417211472E+02  0.000000000E+00  0.00000E+00  9.000E+00
      25     1     1     2     0     0 -1.268794557E+02  1.597512509E+02  1.057728959E+03  1.084451201E+03  1.250000000E+02  0.00000E+00  9.000E+00
      25     1     1     2     0     0  1.288642846E+02 -1.535956410E+02  7.933811476E+00  2.364012905E+02  1.250000000E+02  0.00000E+00  9.000E+00
      21     1     1     2   511   501 -1.984828877E+00 -6.155609870E+00 -1.338598061E+01  1.486659193E+01  3.769728732E-07  0.00000E+00  9.000E+00
#rwgt            1           1   5.9426805412662792E-002          10       44126           0
</event>
<event>
      5   9999  3.79277E-02  1.63001E+01 -1.00000E+00  1.74049E-01
      21    -1     0     0   502   512  0.000000000E+00  0.000000000E+00  9.026932730E+01  9.026932730E+01  0.000000000E+00  0.00000E+00  9.000E+00
      21    -1     0     0   501   502  0.000000000E+00  0.000000000E+00 -1.740201992E+03  1.740201992E+03  0.000000000E+00  0.00000E+00  9.000E+00
      25     1     1     2     0     0  1.021522474E+02 -4.675002678E+01 -5.018750276E+02  5.292675977E+02  1.250000000E+02  0.00000E+00  9.000E+00
      25     1     1     2     0     0 -1.178066798E+02  4.220763792E+01 -1.217292686E+03  1.230075763E+03  1.250000000E+02  0.00000E+00  9.000E+00
      21     1     1     2   501   512  1.565443234E+01  4.542388867E+00  6.923504889E+01  7.112795894E+01  2.697398305E-06  0.00000E+00  9.000E+00
#rwgt            1           1  0.32461159753350499               10       44602           0
</event>
<event>
      5   9999  3.79277E-02  2.31831E+01 -1.00000E+00  1.61245E-01
      21    -1     0     0   511   501  0.000000000E+00  0.000000000E+00  2.231919318E+02  2.231919318E+02  0.000000000E+00  0.00000E+00  9.000E+00
      21    -1     0     0   501   502  0.000000000E+00  0.000000000E+00 -2.215216714E+02  2.215216714E+02  0.000000000E+00  0.00000E+00  9.000E+00
      25     1     1     2     0     0  5.195946927E+01 -3.183055679E+00  9.792869900E-01  1.354100339E+02  1.250000000E+02  0.00000E+00  9.000E+00
      25     1     1     2     0     0 -4.726774811E+01 -1.952034437E+01 -1.234744474E+02  1.829924125E+02  1.250000000E+02  0.00000E+00  9.000E+00
      21     1     1     2   511   502 -4.691721156E+00  2.270340005E+01  1.241654208E+02  1.263111569E+02  0.000000000E+00  0.00000E+00  9.000E+00
#rwgt            1           1   8.0173803094978582E-002          10       44825           0
</event>
<event>
      5   9999  3.79277E-02  1.00143E+02 -1.00000E+00  1.23800E-01
       2    -1     0     0   502     0  0.000000000E+00  0.000000000E+00  6.874766255E+02  6.874766255E+02  0.000000000E+00  0.00000E+00  9.000E+00
      21    -1     0     0   501   502  0.000000000E+00  0.000000000E+00 -2.866027082E+02  2.866027082E+02  0.000000000E+00  0.00000E+00  9.000E+00
      25     1     1     2     0     0  1.575753802E+02  2.119057891E+01  3.461085110E+01  2.051876022E+02  1.250000000E+02  0.00000E+00  9.000E+00
      25     1     1     2     0     0 -1.840096790E+02  7.540007635E+01 -1.260011884E+02  2.665446172E+02  1.250000000E+02  0.00000E+00  9.000E+00
       2     1     1     2   501     0  2.643429875E+01 -9.659065526E+01  4.922642546E+02  5.023471143E+02  7.629394531E-06  0.00000E+00  9.000E+00
#rwgt            1           1   4.0507812608959505E-002          10       44919           0
</event>
<event>
      5   9999  3.79277E-02  2.61004E+01 -1.00000E+00  1.57362E-01
      21    -1     0     0   511   501  0.000000000E+00  0.000000000E+00  6.675869540E+01  6.675869540E+01  0.000000000E+00  0.00000E+00  9.000E+00
      21    -1     0     0   501   502  0.000000000E+00  0.000000000E+00 -1.539613507E+03  1.539613507E+03  0.000000000E+00  0.00000E+00  9.000E+00
      25     1     1     2     0     0 -2.023938899E+02  1.519756510E+02 -8.819932946E+02  9.260653632E+02  1.250000000E+02  0.00000E+00  9.000E+00
      25     1     1     2     0     0  2.218408478E+02 -1.345673535E+02 -5.871001205E+02  6.539367598E+02  1.250000000E+02  0.00000E+00  9.000E+00
      21     1     1     2   511   502 -1.944695793E+01 -1.740829746E+01 -3.761396713E+00  2.637007960E+01  7.420718430E-07  0.00000E+00  9.000E+00
#rwgt            1           1   2.9941732038779416E-002          10       45104           0
</event>
<event>
      5   9999  3.79277E-02  3.70192E+01 -1.00000E+00  1.46957E-01
      21    -1     0     0   502   501  0.000000000E+00  0.000000000E+00  1.167926644E+02  1.167926644E+02  0.000000000E+00  0.00000E+00  9.000E+00
      21    -1     0     0   501   512  0.000000000E+00  0.000000000E+00 -5.443808637E+02  5.443808637E+02  0.000000000E+00  0.00000E+00  9.000E+00
      25     1     1     2     0     0  1.673188561E+02  8.194096544E+01 -2.845469718E+02  3.623560412E+02  1.250000000E+02  0.00000E+00  9.000E+00
      25     1     1     2     0     0 -1.310681624E+02 -8.944509647E+01 -6.459869135E+01  2.120784746E+02  1.250000000E+02  0.00000E+00  9.000E+00
      21     1     1     2   502   512 -3.625069371E+01  7.504131027E+00 -7.844253611E+01  8.673901226E+01  0.000000000E+00  0.00000E+00  9.000E+00
#rwgt            1           1   3.9143132359396156E-002          10       45352           0
</event>
<event>
      5   9999  3.79277E-02  3.36636E+01 -1.00000E+00  1.49644E-01
      21    -1     0     0   502   501  0.000000000E+00  0.000000000E+00  2.453667359E+03  2.453667359E+03  0.000000000E+00  0.00000E+00  9.000E+00
      21    -1     0     0   501   511  0.000000000E+00  0.000000000E+00 -4.499879276E+01  4.499879276E+01  0.000000000E+00  0.00000E+00  9.000E+00
      25     1     1     2     0     0  4.991269867E+01 -1.759760656E+01  2.193126243E+03  2.197323069E+03  1.250000000E+02  0.00000E+00  9.000E+00
      25     1     1     2     0     0 -2.346835946E+01 -3.233420891E+00  2.314483539E+02  2.641108847E+02  1.250000000E+02  0.00000E+00  9.000E+00
      21     1     1     2   502   511 -2.644433921E+01  2.083102745E+01 -1.590603023E+01  3.723219815E+01  1.608221240E-06  0.00000E+00  9.000E+00
#rwgt            1           1   6.8647220889184499E-002          10       45511           0
</event>
<event>
      5   9999  3.79277E-02  1.27730E+02 -1.00000E+00  1.19229E-01
       1    -1     0     0   502     0  0.000000000E+00  0.000000000E+00  2.066206931E+03  2.066206931E+03  0.000000000E+00  0.00000E+00  9.000E+00
      21    -1     0     0   501   502  0.000000000E+00  0.000000000E+00 -1.501806931E+03  1.501806931E+03  0.000000000E+00  0.00000E+00  9.000E+00
      25     1     1     2     0     0  3.519751554E+01 -1.731585485E+02 -3.502456969E+02  4.117278181E+02  1.250000000E+02  0.00000E+00  9.000E+00
      25     1     1     2     0     0 -1.456413770E+02  1.089936187E+02 -1.107919839E+03  1.129691280E+03  1.250000000E+02  0.00000E+00  9.000E+00
       1     1     1     2   501     0  1.104438615E+02  6.416492974E+01  2.022565537E+03  2.026594763E+03  2.157918644E-05  0.00000E+00  9.000E+00
#rwgt            1           1   4.1965833126086198E-002          10       45984           0
</event>
<event>
      5   9999  3.79277E-02  7.05592E+00 -1.00000E+00  2.15066E-01
      21    -1     0     0   502   511  0.000000000E+00  0.000000000E+00  2.240383002E+02  2.240383002E+02  0.000000000E+00  0.00000E+00  9.000E+00
      21    -1     0     0   501   502  0.000000000E+00  0.000000000E+00 -1.370739559E+02  1.370739559E+02  0.000000000E+00  0.00000E+00  9.000E+00
      25     1     1     2     0     0  6.938558104E+01  6.345713317E+01 -1.277133907E+01  1.569371648E+02  1.250000000E+02  0.00000E+00  9.000E+00
      25     1     1     2     0     0 -7.205280731E+01 -6.998950472E+01  7.240408404E+01  1.759474046E+02  1.250000000E+02  0.00000E+00  9.000E+00
      21     1     1     2   501   511  2.667226271E+00  6.532371546E+00  2.733159934E+01  2.822768671E+01  4.768371582E-07  0.00000E+00  9.000E+00
#rwgt            1           1   3.8923851561483619E-002          10       46106           0
</event>
<event>
      5   9999  3.79277E-02  1.24552E+02 -1.00000E+00  1.19686E-01
      21    -1     0     0   502   501  0.000000000E+00  0.000000000E+00  1.211901294E+03  1.211901294E+03  0.000000000E+00  0.00000E+00  9.000E+00
      21    -1     0     0   501   512  0.000000000E+00  0.000000000E+00 -1.362021773E+03  1.362021773E+03  0.000000000E+00  0.00000E+00  9.000E+00
      25     1     1     2     0     0  2.679262857E+01  3.177492872E+00  8.607907094E+02  8.702376611E+02  1.250000000E+02  0.00000E+00  9.000E+00
      25     1     1     2     0     0  9.317139548E+01 -3.667250099E+01  3.248206347E+02  3.621591169E+02  1.250000000E+02  0.00000E+00  9.000E+00
      21     1     1     2   502   512 -1.199640241E+02  3.349500811E+01 -1.335731822E+03  1.341526289E+03  2.642899792E-05  0.00000E+00  9.000E+00
#rwgt            1           1   3.5363504028824884E-002          10       46404           0
</event>
<event>
      5   9999  3.79277E-02  3.26601E+01 -1.00000E+00  1.50521E-01
      21    -1     0     0   502   501  0.000000000E+00  0.000000000E+00  1.894916892E+02  1.894916892E+02  0.000000000E+00  0.00000E+00  9.000E+00
      21    -1     0     0   511   502  0.000000000E+00  0.000000000E+00 -1.916331555E+02  1.916331555E+02  0.000000000E+00  0.00000E+00  9.000E+00
      25     1     1     2     0     0  8.936524302E+01  1.125841812E+01 -9.255547191E+01  1.797342873E+02  1.250000000E+02  0.00000E+00  9.000E+00
      25     1     1     2     0     0 -6.041781069E+01 -2.638211449E+01  9.210776870E+01  1.686865996E+02  1.250000000E+02  0.00000E+00  9.000E+00
      21     1     1     2   511   501 -2.894743234E+01  1.512369637E+01 -1.693763063E+00  3.270395793E+01  4.225208425E-07  0.00000E+00  9.000E+00
#rwgt            1           1   4.3260453196386224E-002          10       46491           0
</event>
<event>
      5   9999  3.79277E-02  3.52065E+01 -1.00000E+00  1.48364E-01
      21    -1     0     0   512   501  0.000000000E+00  0.000000000E+00  3.165999456E+02  3.165999456E+02  0.000000000E+00  0.00000E+00  9.000E+00
      21    -1     0     0   501   502  0.000000000E+00  0.000000000E+00 -2.569562799E+02  2.569562799E+02  0.000000000E+00  0.00000E+00  9.000E+00
      25     1     1     2     0     0 -1.185267042E+02 -1.488908912E+02 -1.236492304E+02  2.590969109E+02  1.250000000E+02  0.00000E+00  9.000E+00
      25     1     1     2     0     0  8.512314501E+01  1.600128982E+02  1.543762704E+02  2.688998146E+02  1.250000000E+02  0.00000E+00  9.000E+00
      21     1     1     2   512   502  3.340355918E+01 -1.112200698E+01  2.891662564E+01  4.555950004E+01  3.371747881E-07  0.00000E+00  9.000E+00
#rwgt            1           1   4.3039304941051362E-002          10       46629           0
</event>
<event>
      5   9999  3.79277E-02  6.31763E+00 -1.00000E+00  2.22048E-01
      21    -1     0     0   502   501  0.000000000E+00  0.000000000E+00  6.732283315E+02  6.732283315E+02  0.000000000E+00  0.00000E+00  9.000E+00
      21    -1     0     0   501   511  0.000000000E+00  0.000000000E+00 -1.790169811E+02  1.790169811E+02  0.000000000E+00  0.00000E+00  9.000E+00
      25     1     1     2     0     0 -1.784435749E+01  1.044946071E+02  5.675502331E+02  5.907417466E+02  1.250000000E+02  0.00000E+00  9.000E+00
      25     1     1     2     0     0  1.157198955E+01 -1.037397029E+02  2.342969009E+01  1.645289861E+02  1.250000000E+02  0.00000E+00  9.000E+00
      21     1     1     2   502   511  6.272367947E+00 -7.549042486E-01 -9.676857274E+01  9.697457992E+01  1.907348633E-06  0.00000E+00  9.000E+00
#rwgt            1           1   3.1106928164302595E-002          10       46782           0
</event>
<event>
      5   9999  3.79277E-02  3.34408E+01 -1.00000E+00  1.49835E-01
      21    -1     0     0   502   501  0.000000000E+00  0.000000000E+00  8.961023789E+02  8.961023789E+02  0.000000000E+00  0.00000E+00  9.000E+00
      21    -1     0     0   512   502  0.000000000E+00  0.000000000E+00 -6.082609930E+01  6.082609930E+01  0.000000000E+00  0.00000E+00  9.000E+00
      25     1     1     2     0     0  2.505262368E+01  2.837315706E+01  1.280798101E+02  1.829265091E+02  1.250000000E+02  0.00000E+00  9.000E+00
      25     1     1     2     0     0 -3.540487202E+01  3.424935416E+00  7.246974027E+02  7.362584876E+02  1.250000000E+02  0.00000E+00  9.000E+00
      21     1     1     2   512   501  1.035224834E+01 -3.179809247E+01 -1.750093316E+01  3.774348145E+01  7.907449699E-07  0.00000E+00  9.000E+00
#rwgt            1           1   7.5589272349765715E-002          10       47288           0
</event>
<event>
      5   9999  3.79277E-02  3.86811E+01 -1.00000E+00  1.45749E-01
      21    -1     0     0   502   511  0.000000000E+00  0.000000000E+00  3.246761120E+01  3.246761120E+01  0.000000000E+00  0.00000E+00  9.000E+00
      21    -1     0     0   501   502  0.000000000E+00  0.000000000E+00 -1.132820044E+03  1.132820044E+03  0.000000000E+00  0.00000E+00  9.000E+00
      25     1     1     2     0     0 -4.169449570E+01 -5.006168002E+01 -7.688818369E+02  7.816961570E+02  1.250000000E+02  0.00000E+00  9.000E+00
      25     1     1     2     0     0  7.890426515E+01  3.949489960E+01 -2.448290001E+02  2.887074115E+02  1.250000000E+02  0.00000E+00  9.000E+00
      21     1     1     2   501   511 -3.720976945E+01  1.056678042E+01 -8.664159591E+01  9.488408682E+01  0.000000000E+00  0.00000E+00  9.000E+00
#rwgt            1           1   6.2860110858849058E-002          10       47455           0
</event>
<event>
      5   9999  3.79277E-02  7.91114E+01 -1.00000E+00  1.28585E-01
      21    -1     0     0   502   501  0.000000000E+00  0.000000000E+00  1.643856240E+02  1.643856240E+02  0.000000000E+00  0.00000E+00  9.000E+00
      21    -1     0     0   501   512  0.000000000E+00  0.000000000E+00 -2.385953295E+03  2.385953295E+03  0.000000000E+00  0.00000E+00  9.000E+00
      25     1     1     2     0     0 -5.082697636E+01  3.160244350E+02 -2.075908038E+02  4.014645275E+02  1.250000000E+02  0.00000E+00  9.000E+00
      25     1     1     2     0     0  1.144161732E+02 -3.630885422E+02 -5.381860101E+02  6.709646277E+02  1.250000000E+02  0.00000E+00  9.000E+00
      21     1     1     2   502   512 -6.358919683E+01  4.706410721E+01 -1.475790857E+03  1.477909764E+03  3.051757812E-05  0.00000E+00  9.000E+00
#rwgt            1           1   3.0620098431732457E-002          10       47549           0
</event>
<event>
      5   9999  3.79277E-02  5.05730E+01 -1.00000E+00  1.38794E-01
      21    -1     0     0   502   501  0.000000000E+00  0.000000000E+00  8.589478765E+01  8.589478765E+01  0.000000000E+00  0.00000E+00  9.000E+00
      21    -1     0     0   501   511  0.000000000E+00  0.000000000E+00 -6.836363927E+02  6.836363927E+02  0.000000000E+00  0.00000E+00  9.000E+00
      25     1     1     2     0     0 -6.961566842E+01 -1.275807307E+02 -2.629985862E+02  3.254480611E+02  1.250000000E+02  0.00000E+00  9.000E+00
      25     1     1     2     0     0  1.126802959E+02  1.010653899E+02 -1.355188372E+02  2.385401797E+02  1.250000000E+02  0.00000E+00  9.000E+00
      21     1     1     2   502   511 -4.306462746E+01  2.651534079E+01 -1.992241816E+02  2.055429395E+02  0.000000000E+00  0.00000E+00  9.000E+00
#rwgt            1           1   2.9224208687579769E-002          10       47991           0
</event>
<event>
      5   9999  3.79277E-02  5.67871E+01 -1.00000E+00  1.35993E-01
      21    -1     0     0   502   512  0.000000000E+00  0.000000000E+00  3.021967028E+02  3.021967028E+02  0.000000000E+00  0.00000E+00  9.000E+00
      21    -1     0     0   501   502  0.000000000E+00  0.000000000E+00 -9.463342634E+02  9.463342634E+02  0.000000000E+00  0.00000E+00  9.000E+00
      25     1     1     2     0     0 -2.670685931E+01 -6.861259612E+01 -7.615225007E+02  7.752176880E+02  1.250000000E+02  0.00000E+00  9.000E+00
      25     1     1     2     0     0  6.808446348E+01  2.971948329E+01 -1.447048523E+02  2.051419902E+02  1.250000000E+02  0.00000E+00  9.000E+00
      21     1     1     2   501   512 -4.137760416E+01  3.889311283E+01  2.620897925E+02  2.681712880E+02  3.814697266E-06  0.00000E+00  9.000E+00
#rwgt            1           1   4.2902861777056732E-002          10       48136           0
</event>
<event>
      5   9999  3.79277E-02  1.59883E+02 -1.00000E+00  1.15306E-01
      21    -1     0     0   502   501  0.000000000E+00  0.000000000E+00  5.368480375E+02  5.368480375E+02  0.000000000E+00  0.00000E+00  9.000E+00
      21    -1     0     0   511   502  0.000000000E+00  0.000000000E+00 -7.854261925E+02  7.854261925E+02  0.000000000E+00  0.00000E+00  9.000E+00
      25     1     1     2     0     0  1.283657214E+02  1.294125455E+02  3.766350509E+02  4.366970654E+02  1.250000000E+02  0.00000E+00  9.000E+00
      25     1     1     2     0     0 -3.493070217E+01  3.276754414E-01  8.660041216E+01  1.560284997E+02  1.250000000E+02  0.00000E+00  9.000E+00
      21     1     1     2   511   501 -9.343501924E+01 -1.297402209E+02 -7.118136180E+02  7.295486650E+02  7.629394531E-06  0.00000E+00  9.000E+00
#rwgt            1           1   2.8667989517079953E-002          10       48453           0
</event>
<event>
      5   9999  3.79277E-02  1.54578E+02 -1.00000E+00  1.15878E-01
       2    -1     0     0   502     0  0.000000000E+00  0.000000000E+00  2.770828392E+03  2.770828392E+03  0.000000000E+00  0.00000E+00  9.000E+00
      21    -1     0     0   501   502  0.000000000E+00  0.000000000E+00 -1.407821609E+02  1.407821609E+02  0.000000000E+00  0.00000E+00  9.000E+00
      25     1     1     2     0     0 -3.413212030E+01 -1.903511345E+02 -1.086849614E+01  2.305247931E+02  1.250000000E+02  0.00000E+00  9.000E+00
      25     1     1     2     0     0  4.892833258E+01  3.648253533E+01  2.575608184E+02  2.927243281E+02  1.250000000E+02  0.00000E+00  9.000E+00
       2     1     1     2   501     0 -1.479621228E+01  1.538685991E+02  2.383353909E+03  2.388361432E+03  3.051757812E-05  0.00000E+00  9.000E+00
#rwgt            1           1   3.5804216543136293E-002          10       48487           0
</event>
<event>
      5   9999  3.79277E-02  7.93924E+01 -1.00000E+00  1.28510E-01
      21    -1     0     0   502   501  0.000000000E+00  0.000000000E+00  1.022728546E+03  1.022728546E+03  0.000000000E+00  0.00000E+00  9.000E+00
       2    -1     0     0   501     0  0.000000000E+00  0.000000000E+00 -2.739242806E+03  2.739242806E+03  0.000000000E+00  0.00000E+00  9.000E+00
      25     1     1     2     0     0 -4.191502465E+01  6.812225956E+01  2.188099369E+02  2.643866487E+02  1.250000000E+02  0.00000E+00  9.000E+00
      25     1     1     2     0     0 -2.081792169E+01 -1.167815228E+02  7.710367608E+02  7.900594892E+02  1.250000000E+02  0.00000E+00  9.000E+00
       2     1     1     2   502     0  6.273294635E+01  4.865926327E+01 -2.706360958E+03  2.707525214E+03  3.051757812E-05  0.00000E+00  9.000E+00
#rwgt            1           1   4.0918274553831950E-002          10       48545           0
</event>
<event>
      5   9999  3.79277E-02  4.29468E+01 -1.00000E+00  1.42951E-01
      21    -1     0     0   511   501  0.000000000E+00  0.000000000E+00  2.929042542E+02  2.929042542E+02  0.000000000E+00  0.00000E+00  9.000E+00
      21    -1     0     0   501   502  0.000000000E+00  0.000000000E+00 -1.128112947E+03  1.128112947E+03  0.000000000E+00  0.00000E+00  9.000E+00
      25     1     1     2     0     0 -2.929902698E+01 -2.881639732E+02 -9.805233067E+02  1.030023234E+03  1.250000000E+02  0.00000E+00  9.000E+00
      25     1     1     2     0     0 -1.258144340E+01  2.786530472E+02  1.607508299E+02  3.453572682E+02  1.250000000E+02  0.00000E+00  9.000E+00
      21     1     1     2   511   502  4.188047038E+01  9.510926022E+00 -1.543621641E+01  4.563669894E+01  6.743495762E-07  0.00000E+00  9.000E+00
#rwgt            1           1   4.7911568158583988E-002          10       48626           0
</event>
<event>
      5   9999  3.79277E-02  6.24399E+01 -1.00000E+00  1.33785E-01
      21    -1     0     0   502   501  0.000000000E+00  0.000000000E+00  7.316925330E+01  7.316925330E+01  0.000000000E+00  0.00000E+00  9.000E+00
      21    -1     0     0   512   502  0.000000000E+00  0.000000000E+00 -8.922236930E+02  8.922236930E+02  0.000000000E+00  0.00000E+00  9.000E+00
      25     1     1     2     0     0 -1.590569144E+02  7.409070061E+01 -3.714350505E+02  4.293920478E+02  1.250000000E+02  0.00000E+00  9.000E+00
      25     1     1     2     0     0  1.939634240E+02 -2.231934556E+01 -3.384332885E+02  4.102219568E+02  1.250000000E+02  0.00000E+00  9.000E+00
      21     1     1     2   512   501 -3.490650964E+01 -5.177135505E+01 -1.091861007E+02  1.257789418E+02  1.907348633E-06  0.00000E+00  9.000E+00
#rwgt            1           1   3.3779824220811536E-002          10       48801           0
</event>
<event>
      5   9999  3.79277E-02  1.09269E+02 -1.00000E+00  1.22121E-01
      21    -1     0     0   502   511  0.000000000E+00  0.000000000E+00  3.438118683E+03  3.438118683E+03  0.000000000E+00  0.00000E+00  9.000E+00
      21    -1     0     0   501   502  0.000000000E+00  0.000000000E+00 -3.683480279E+01  3.683480279E+01  0.000000000E+00  0.00000E+00  9.000E+00
      25     1     1     2     0     0 -4.807464363E+01 -3.099485042E+01  9.252593944E+02  9.354153083E+02  1.250000000E+02  0.00000E+00  9.000E+00
      25     1     1     2     0     0  1.532117837E+02  6.075839123E+01  3.218462457E+02  3.825904320E+02  1.250000000E+02  0.00000E+00  9.000E+00
      21     1     1     2   501   511 -1.051371401E+02 -2.976354081E+01  2.154178240E+03  2.156947746E+03  3.051757812E-05  0.00000E+00  9.000E+00
#rwgt            1           1   5.3338297881975603E-002          10       48959           0
</event>
<event>
      5   9999  3.79277E-02  6.89802E+01 -1.00000E+00  1.31544E-01
      21    -1     0     0   502   501  0.000000000E+00  0.000000000E+00  4.812486411E+02  4.812486411E+02  0.000000000E+00  0.00000E+00  9.000E+00
       1    -1     0     0   501     0  0.000000000E+00  0.000000000E+00 -3.701837161E+02  3.701837161E+02  0.000000000E+00  0.00000E+00  9.000E+00
      25     1     1     2     0     0  2.443273998E+01  1.924585527E+02  3.100109446E+02  3.864829092E+02  1.250000000E+02  0.00000E+00  9.000E+00
      25     1     1     2     0     0  2.732599750E+01 -1.468592539E+02  5.451843964E+01  2.022661882E+02  1.250000000E+02  0.00000E+00  9.000E+00
       1     1     1     2   502     0 -5.175873748E+01 -4.559929876E+01 -2.534644592E+02  2.626832599E+02  2.697398305E-06  0.00000E+00  9.000E+00
#rwgt            1           1   4.1094543039184764E-002          10       49015           0
</event>
<event>
      5   9999  3.79277E-02  1.56331E+01 -1.00000E+00  1.75709E-01
       2    -1     0     0   502     0  0.000000000E+00  0.000000000E+00  7.644222000E+02  7.644222000E+02  0.000000000E+00  0.00000E+00  9.000E+00
      21    -1     0     0   501   502  0.000000000E+00  0.000000000E+00 -2.796440116E+02  2.796440116E+02  0.000000000E+00  0.00000E+00  9.000E+00
      25     1     1     2     0     0  1.056533022E+02  1.470744773E+02  2.131320907E+00  2.200524135E+02  1.250000000E+02  0.00000E+00  9.000E+00
      25     1     1     2     0     0 -1.022845161E+02 -1.623403050E+02 -9.371871378E+01  2.474362426E+02  1.250000000E+02  0.00000E+00  9.000E+00
       2     1     1     2   501     0 -3.368786158E+00  1.526582766E+01  5.763655813E+02  5.765775555E+02  1.078959322E-05  0.00000E+00  9.000E+00
#rwgt            1           1   2.7014958295709580E-002          10       49160           0
</event>
<event>
      5   9999  3.79277E-02  1.52173E+01 -1.00000E+00  1.76797E-01
      21    -1     0     0   502   501  0.000000000E+00  0.000000000E+00  3.150233885E+02  3.150233885E+02  0.000000000E+00  0.00000E+00  9.000E+00
      -3    -1     0     0     0   502  0.000000000E+00  0.000000000E+00 -3.955637762E+02  3.955637762E+02  0.000000000E+00  0.00000E+00  9.000E+00
      25     1     1     2     0     0  1.075003755E+02 -1.541202037E+02  1.206860018E+02  2.559286599E+02  1.250000000E+02  0.00000E+00  9.000E+00
      25     1     1     2     0     0 -9.289237211E+01  1.583831024E+02  2.892935948E+01  2.240002405E+02  1.250000000E+02  0.00000E+00  9.000E+00
      -3     1     1     2     0   501 -1.460800335E+01 -4.262898689E+00 -2.301557490E+02  2.306582642E+02  3.814697266E-06  0.00000E+00  9.000E+00
#rwgt            1           1  0.11516660451066311               10       49345           0
</event>
<event>
      5   9999  3.79277E-02  1.30173E+02 -1.00000E+00  1.18887E-01
      21    -1     0     0   502   511  0.000000000E+00  0.000000000E+00  2.514909846E+03  2.514909846E+03  0.000000000E+00  0.00000E+00  9.000E+00
      21    -1     0     0   501   502  0.000000000E+00  0.000000000E+00 -1.531482681E+02  1.531482681E+02  0.000000000E+00  0.00000E+00  9.000E+00
      25     1     1     2     0     0  1.025378853E+02 -1.619813793E+02  3.169008906E+02  3.909004472E+02  1.250000000E+02  0.00000E+00  9.000E+00
      25     1     1     2     0     0 -1.368539807E+01  2.571136102E+02  6.562149786E+01  2.936424350E+02  1.250000000E+02  0.00000E+00  9.000E+00
      21     1     1     2   501   511 -8.885248723E+01 -9.513223091E+01  1.979239189E+03  1.983515232E+03  2.157918644E-05  0.00000E+00  9.000E+00
#rwgt            1           1   3.7703953026975219E-002          10       49585           0
</event>
<event>
      5   9999  3.79277E-02  1.69255E+02 -1.00000E+00  1.14352E-01
       3    -1     0     0   502     0  0.000000000E+00  0.000000000E+00  1.514997798E+02  1.514997798E+02  0.000000000E+00  0.00000E+00  9.000E+00
      21    -1     0     0   501   502  0.000000000E+00  0.000000000E+00 -1.411400234E+03  1.411400234E+03  0.000000000E+00  0.00000E+00  9.000E+00
      25     1     1     2     0     0 -5.093305209E+01  1.177986428E+02 -1.062032430E+03  1.077036944E+03  1.250000000E+02  0.00000E+00  9.000E+00
      25     1     1     2     0     0 -1.051793908E+02 -5.240644091E+01 -2.548987810E+02  3.072580802E+02  1.250000000E+02  0.00000E+00  9.000E+00
       3     1     1     2   501     0  1.561124429E+02 -6.539220187E+01  5.703075732E+01  1.786049892E+02  4.156969970E-06  0.00000E+00  9.000E+00
#rwgt            1           1   1.9230358494296711E-002          10       49729           0
</event>
<event>
      5   9999  3.79277E-02  1.61560E+01 -1.00000E+00  1.74399E-01
      21    -1     0     0   502   511  0.000000000E+00  0.000000000E+00  2.571514303E+02  2.571514303E+02  0.000000000E+00  0.00000E+00  9.000E+00
      21    -1     0     0   501   502  0.000000000E+00  0.000000000E+00 -1.684952659E+02  1.684952659E+02  0.000000000E+00  0.00000E+00  9.000E+00
      25     1     1     2     0     0  2.348015922E+01 -1.021440846E+02  1.159366657E+02  2.001275652E+02  1.250000000E+02  0.00000E+00  9.000E+00
      25     1     1     2     0     0 -3.768696260E+01  9.445092830E+01 -7.309167035E+01  1.769425819E+02  1.250000000E+02  0.00000E+00  9.000E+00
      21     1     1     2   501   511  1.420680338E+01  7.693156345E+00  4.581116900E+01  4.857654909E+01  6.743495762E-07  0.00000E+00  9.000E+00
#rwgt            1           1   4.3133545075207301E-002          10       49771           0
</event>
<event>
      5   9999  3.79277E-02  1.63420E+01 -1.00000E+00  1.73948E-01
      21    -1     0     0   502   512  0.000000000E+00  0.000000000E+00  4.730640064E+02  4.730640064E+02  0.000000000E+00  0.00000E+00  9.000E+00
      21    -1     0     0   501   502  0.000000000E+00  0.000000000E+00 -1.752371716E+02  1.752371716E+02  0.000000000E+00  0.00000E+00  9.000E+00
      25     1     1     2     0     0 -1.646996297E+02  1.432256901E+02  1.612003674E+01  2.520405164E+02  1.250000000E+02  0.00000E+00  9.000E+00
      25     1     1     2     0     0  1.543470961E+02 -1.305811042E+02  1.933474969E+02  3.064028482E+02  1.250000000E+02  0.00000E+00  9.000E+00
      21     1     1     2   501   512  1.035253363E+01 -1.264458594E+01  8.835930118E+01  8.985781330E+01  1.348699152E-06  0.00000E+00  9.000E+00
#rwgt            1           1   3.4900605363808186E-002          10       50056           0
</event>
<event>
      5   9999  3.79277E-02  7.28147E+00 -1.00000E+00  2.13162E-01
      21    -1     0     0   511   501  0.000000000E+00  0.000000000E+00  5.616817639E+02  5.616817639E+02  0.000000000E+00  0.00000E+00  9.000E+00
      21    -1     0     0   501   502  0.000000000E+00  0.000000000E+00 -1.132107787E+02  1.132107787E+02  0.000000000E+00  0.00000E+00  9.000E+00
      25     1     1     2     0     0 -5.591919821E+01 -2.312410570E+01  4.036028969E+02  4.268278100E+02  1.250000000E+02  0.00000E+00  9.000E+00
      25     1     1     2     0     0  4.890245064E+01  2.117858452E+01 -5.597202634E+01  1.469620694E+02  1.250000000E+02  0.00000E+00  9.000E+00
      21     1     1     2   511   502  7.016747574E+00  1.945521183E+00  1.008401146E+02  1.011026632E+02  2.336015456E-06  0.00000E+00  9.000E+00
#rwgt            1           1   5.2209033103882412E-002          10       50368           0
</event>
<event>
      5   9999  3.79277E-02  3.23453E+01 -1.00000E+00  1.50803E-01
      21    -1     0     0   502   512  0.000000000E+00  0.000000000E+00  4.102111137E+02  4.102111137E+02  0.000000000E+00  0.00000E+00  9.000E+00
      21    -1     0     0   501   502  0.000000000E+00  0.000000000E+00 -2.289587522E+02  2.289587522E+02  0.000000000E+00  0.00000E+00  9.000E+00
      25     1     1     2     0     0  6.864026775E+01 -1.566036527E+02 -1.231402822E+02  2.449994275E+02  1.250000000E+02  0.00000E+00  9.000E+00
      25     1     1     2     0     0 -4.124274233E+01  1.737965537E+02  2.619077379E+02  3.407739266E+02  1.250000000E+02  0.00000E+00  9.000E+00
      21     1     1     2   501   512 -2.739752542E+01 -1.719290101E+01  4.248490576E+01  5.339651170E+01  0.000000000E+00  0.00000E+00  9.000E+00
#rwgt            1           1   4.3869751172880007E-002          10       50657           0
</event>
<event>
      5   9999  3.79277E-02  2.29533E+02 -1.00000E+00  1.09513E-01
      21    -1     0     0   502   501  0.000000000E+00  0.000000000E+00  2.757844848E+02  2.757844848E+02  0.000000000E+00  0.00000E+00  9.000E+00
      21    -1     0     0   501   511  0.000000000E+00  0.000000000E+00 -4.270408614E+02  4.270408614E+02  0.000000000E+00  0.00000E+00  9.000E+00
      25     1     1     2     0     0 -2.341729453E+02  1.594946571E+02 -7.212316679E+01  3.179658238E+02  1.250000000E+02  0.00000E+00  9.000E+00
      25     1     1     2     0     0  3.134148600E+01 -5.204803200E+01  8.317601794E+00  1.392317093E+02  1.250000000E+02  0.00000E+00  9.000E+00
      21     1     1     2   502   511  2.028314592E+02 -1.074466251E+02 -8.745081163E+01  2.456278131E+02  4.370284743E-06  0.00000E+00  9.000E+00
#rwgt            2          11   1.3893531914548193E-003          10       50929           0
</event>
<event>
      5   9999  3.79277E-02  2.28146E+01 -1.00000E+00  1.61785E-01
      21    -1     0     0   512   501  0.000000000E+00  0.000000000E+00  2.217186786E+02  2.217186786E+02  0.000000000E+00  0.00000E+00  9.000E+00
      21    -1     0     0   501   502  0.000000000E+00  0.000000000E+00 -2.378285473E+02  2.378285473E+02  0.000000000E+00  0.00000E+00  9.000E+00
      25     1     1     2     0     0  9.207392434E+01  1.157544823E+02  8.468437652E+01  2.113602407E+02  1.250000000E+02  0.00000E+00  9.000E+00
      25     1     1     2     0     0 -8.105396464E+01 -1.357310804E+02 -1.008712138E+02  2.253722990E+02  1.250000000E+02  0.00000E+00  9.000E+00
      21     1     1     2   512   502 -1.101995971E+01  1.997659809E+01  7.696860993E-02  2.281468622E+01  3.940848309E-07  0.00000E+00  9.000E+00
#rwgt            1           1   3.3585199245698291E-002          10       50964           0
</event>
<event>
      5   9999  3.79277E-02  2.45575E+01 -1.00000E+00  1.59334E-01
      21    -1     0     0   502   501  0.000000000E+00  0.000000000E+00  6.176742424E+01  6.176742424E+01  0.000000000E+00  0.00000E+00  9.000E+00
      21    -1     0     0   501   511  0.000000000E+00  0.000000000E+00 -1.321050728E+03  1.321050728E+03  0.000000000E+00  0.00000E+00  9.000E+00
      25     1     1     2     0     0  1.958351858E+02 -6.496483854E+01 -6.122127418E+02  6.580283364E+02  1.250000000E+02  0.00000E+00  9.000E+00
      25     1     1     2     0     0 -1.773193763E+02  4.883307790E+01 -2.831222840E+02  3.600139697E+02  1.250000000E+02  0.00000E+00  9.000E+00
      21     1     1     2   502   511 -1.851580951E+01  1.613176064E+01 -3.639482785E+02  3.647758466E+02  5.394796609E-06  0.00000E+00  9.000E+00
#rwgt            1           1   5.9424101296263965E-002          10       51347           0
</event>
<event>
      5   9999  3.79277E-02  3.51700E+01 -1.00000E+00  1.48394E-01
      21    -1     0     0   512   501  0.000000000E+00  0.000000000E+00  2.711958853E+02  2.711958853E+02  0.000000000E+00  0.00000E+00  9.000E+00
      21    -1     0     0   501   502  0.000000000E+00  0.000000000E+00 -2.712771125E+02  2.712771125E+02  0.000000000E+00  0.00000E+00  9.000E+00
      25     1     1     2     0     0 -1.336240083E+02 -1.565896298E+01 -1.519007027E+02  2.383262516E+02  1.250000000E+02  0.00000E+00  9.000E+00
      25     1     1     2     0     0  1.393539706E+02 -1.904108867E+01  4.751738197E+01  1.940747118E+02  1.250000000E+02  0.00000E+00  9.000E+00
      21     1     1     2   512   502 -5.729962316E+00  3.470005165E+01  1.043020935E+02  1.100720344E+02  0.000000000E+00  0.00000E+00  9.000E+00
#rwgt            1           1   3.1278179681572801E-002          10       51539           0
</event>
<event>
      5   9999  3.79277E-02  2.86853E+01 -1.00000E+00  1.54404E-01
      21    -1     0     0   502   501  0.000000000E+00  0.000000000E+00  1.484822148E+02  1.484822148E+02  0.000000000E+00  0.00000E+00  9.000E+00
       2    -1     0     0   501     0  0.000000000E+00  0.000000000E+00 -2.225916857E+03  2.225916857E+03  0.000000000E+00  0.00000E+00  9.000E+00
      25     1     1     2     0     0  6.200498905E+01  2.655829926E+02 -5.203301230E+02  6.006224951E+02  1.250000000E+02  0.00000E+00  9.000E+00
      25     1     1     2     0     0 -8.672693009E+01 -2.510340936E+02 -9.089868820E+01  3.072901692E+02  1.250000000E+02  0.00000E+00  9.000E+00
       2     1     1     2   502     0  2.472194104E+01 -1.454889902E+01 -1.466205831E+03  1.466486407E+03  2.157918644E-05  0.00000E+00  9.000E+00
#rwgt            1           1   3.2279261469244147E-002          10       51733           0
</event>
<event>
      5   9999  3.79277E-02  1.06291E+02  7.55638E-03  1.22648E-01
       3    -1     0     0   501     0  0.000000000E+00  0.000000000E+00  6.332175983E+02  6.332175983E+02  0.000000000E+00  0.00000E+00  9.000E+00
      -3    -1     0     0     0   502  0.000000000E+00  0.000000000E+00 -9.543685533E+01  9.543685533E+01  0.000000000E+00  0.00000E+00  9.000E+00
      25     1     1     2     0     0  4.751873122E+01 -4.001689289E+01  4.366175775E+02  4.583877077E+02  1.250000000E+02  0.00000E+00  9.000E+00
      25     1     1     2     0     0  5.080667680E+01 -3.551476114E-01  9.256223776E+01  1.636282751E+02  1.250000000E+02  0.00000E+00  9.000E+00
      21     1     1     2   501   502 -9.832540802E+01  4.037204050E+01  8.600927662E+00  1.066384709E+02  9.902267293E-07  0.00000E+00  9.000E+00
#rwgt            3           8   9.6782883273983505E-005          10       52027           0
</event>
<event>
      5   9999  3.79277E-02  6.88585E+01 -1.00000E+00  1.31583E-01
      21    -1     0     0   502   511  0.000000000E+00  0.000000000E+00  1.902959293E+03  1.902959293E+03  0.000000000E+00  0.00000E+00  9.000E+00
      21    -1     0     0   501   502  0.000000000E+00  0.000000000E+00 -1.137368587E+02  1.137368587E+02  0.000000000E+00  0.00000E+00  9.000E+00
      25     1     1     2     0     0 -9.336571151E+01  4.144138674E+01 -2.810943038E+01  1.638587340E+02  1.250000000E+02  0.00000E+00  9.000E+00
      25     1     1     2     0     0  3.986778507E+01  1.911371305E+00  2.361523452E+02  2.701592563E+02  1.250000000E+02  0.00000E+00  9.000E+00
      21     1     1     2   501   511  5.349792644E+01 -4.335275805E+01  1.581179520E+03  1.582678162E+03  2.157918644E-05  0.00000E+00  9.000E+00
#rwgt            1           1   5.4762450321814274E-002          10       52061           0
</event>
<event>
      5   9999  3.79277E-02  2.63984E+01 -1.00000E+00  1.57000E-01
       2    -1     0     0   502     0  0.000000000E+00  0.000000000E+00  3.687508444E+03  3.687508444E+03  0.000000000E+00  0.00000E+00  9.000E+00
      21    -1     0     0   501   502  0.000000000E+00  0.000000000E+00 -3.477176839E+01  3.477176839E+01  0.000000000E+00  0.00000E+00  9.000E+00
      25     1     1     2     0     0  2.703222673E+02  9.102308486E+01  1.126871528E+03  1.169112386E+03  1.250000000E+02  0.00000E+00  9.000E+00
      25     1     1     2     0     0 -2.838205648E+02 -1.137094749E+02  2.038535791E+03  2.065123999E+03  1.250000000E+02  0.00000E+00  9.000E+00
       2     1     1     2   501     0  1.349829749E+01  2.268639009E+01  4.873293569E+02  4.880438284E+02  5.394796609E-06  0.00000E+00  9.000E+00
#rwgt            1           1   3.0813555761654336E-002          10       52165           0
</event>
<event>
      5   9999  3.79277E-02  6.70980E+01 -1.00000E+00  1.32159E-01
      21    -1     0     0   502   511  0.000000000E+00  0.000000000E+00  1.182771099E+03  1.182771099E+03  0.000000000E+00  0.00000E+00  9.000E+00
      21    -1     0     0   501   502  0.000000000E+00  0.000000000E+00 -6.877905016E+01  6.877905016E+01  0.000000000E+00  0.00000E+00  9.000E+00
      25     1     1     2     0     0 -4.842547680E+01 -1.167148124E+02  4.228992130E+02  4.587331671E+02  1.250000000E+02  0.00000E+00  9.000E+00
      25     1     1     2     0     0 -1.593017288E+01  9.772816515E+01  8.065592880E+01  1.787035073E+02  1.250000000E+02  0.00000E+00  9.000E+00
      21     1     1     2   501   511  6.435564968E+01  1.898664726E+01  6.104369074E+02  6.141134752E+02  7.629394531E-06  0.00000E+00  9.000E+00
#rwgt            1           1   3.7352429514599737E-002          10       52349           0
</event>
<event>
      5   9999  3.79277E-02  1.05681E+02 -1.00000E+00  1.22758E-01
      21    -1     0     0   502   501  0.000000000E+00  0.000000000E+00  7.774767997E+02  7.774767997E+02  0.000000000E+00  0.00000E+00  9.000E+00
      21    -1     0     0   512   502  0.000000000E+00  0.000000000E+00 -5.950089904E+01  5.950089904E+01  0.000000000E+00  0.00000E+00  9.000E+00
      25     1     1     2     0     0  5.574216129E+01  3.911310271E-01  3.523283492E+02  3.779783157E+02  1.250000000E+02  0.00000E+00  9.000E+00
      25     1     1     2     0     0 -3.794537824E+01 -1.045625176E+02  2.627060224E+02  3.114684992E+02  1.250000000E+02  0.00000E+00  9.000E+00
      21     1     1     2   512   501 -1.779678305E+01  1.041713865E+02  1.029415291E+02  1.475308838E+02  1.907348633E-06  0.00000E+00  9.000E+00
#rwgt            1           1   6.4075735960227226E-002          10       52451           0
</event>
<event>
      5   9999  3.79277E-02  2.82859E+01 -1.00000E+00  1.54836E-01
       1    -1     0     0   502     0  0.000000000E+00  0.000000000E+00  9.110371396E+02  9.110371396E+02  0.000000000E+00  0.00000E+00  9.000E+00
      21    -1     0     0   501   502  0.000000000E+00  0.000000000E+00 -5.733371916E+02  5.733371916E+02  0.000000000E+00  0.00000E+00  9.000E+00
      25     1     1     2     0     0  1.486430669E+02 -1.247310871E+02 -2.746456244E+02  3.587587273E+02  1.250000000E+02  0.00000E+00  9.000E+00
      25     1     1     2     0     0 -1.758110806E+02  1.326046829E+02 -1.938657409E+02  3.189082368E+02  1.250000000E+02  0.00000E+00  9.000E+00
       1     1     1     2   501     0  2.716801371E+01 -7.873595862E+00  8.062113132E+02  8.067073671E+02  1.078959322E-05  0.00000E+00  9.000E+00
#rwgt            1           1  0.20029943353180918               10       52690           0
</event>
<event>
      5   9999  3.79277E-02  5.14761E+00 -1.00000E+00  2.36329E-01
      21    -1     0     0   502   511  0.000000000E+00  0.000000000E+00  8.319960106E+02  8.319960106E+02  0.000000000E+00  0.00000E+00  9.000E+00
      21    -1     0     0   501   502  0.000000000E+00  0.000000000E+00 -7.473516008E+01  7.473516008E+01  0.000000000E+00  0.00000E+00  9.000E+00
      25     1     1     2     0     0 -1.796099782E+02  4.157502741E+01  1.817088988E+02  2.874566942E+02  1.250000000E+02  0.00000E+00  9.000E+00
      25     1     1     2     0     0  1.814711086E+02 -3.677564117E+01  5.616511333E+02  6.044511614E+02  1.250000000E+02  0.00000E+00  9.000E+00
      21     1     1     2   501   511 -1.861130389E+00 -4.799386245E+00  1.390081846E+01  1.482331503E+01  1.685873940E-07  0.00000E+00  9.000E+00
#rwgt            1           1   3.4934881120380887E-002          10       52856           0
</event>
<event>
      5   9999  3.79277E-02  1.03339E+02 -1.00000E+00  1.23190E-01
      21    -1     0     0   502   501  0.000000000E+00  0.000000000E+00  4.309122022E+02  4.309122022E+02  0.000000000E+00  0.00000E+00  9.000E+00
      21    -1     0     0   512   502  0.000000000E+00  0.000000000E+00 -4.450405352E+02  4.450405352E+02  0.000000000E+00  0.00000E+00  9.000E+00
      25     1     1     2     0     0  9.467540651E+01  3.222948374E+01  6.424728560E+01  1.724960461E+02  1.250000000E+02  0.00000E+00  9.000E+00
      25     1     1     2     0     0 -9.161123549E+01  7.106406386E+01  2.814631883E+02  3.290733141E+02  1.250000000E+02  0.00000E+00  9.000E+00
      21     1     1     2   512   501 -3.064171022E+00 -1.032935476E+02 -3.598388069E+02  3.743833772E+02  3.814697266E-06  0.00000E+00  9.000E+00
#rwgt            1           1   1.6905413427541108E-002          10       53246           0
</event>
<event>
      5   9999  3.79277E-02  1.79058E+01 -1.00000E+00  1.70432E-01
      21    -1     0     0   502   501  0.000000000E+00  0.000000000E+00  3.756690735E+02  3.756690735E+02  0.000000000E+00  0.00000E+00  9.000E+00
      21    -1     0     0   501   511  0.000000000E+00  0.000000000E+00 -9.560083026E+01  9.560083026E+01  0.000000000E+00  0.00000E+00  9.000E+00
      25     1     1     2     0     0 -7.148713996E+01 -8.379784922E+01  9.264336895E+01  1.906312790E+02  1.250000000E+02  0.00000E+00  9.000E+00
      25     1     1     2     0     0  7.926322644E+01  6.766865156E+01  2.006672389E+02  2.583680442E+02  1.250000000E+02  0.00000E+00  9.000E+00
      21     1     1     2   502   511 -7.776086475E+00  1.612919766E+01 -1.324236465E+01  2.227058058E+01  1.685873940E-07  0.00000E+00  9.000E+00
#rwgt            1           1   4.0300886070989111E-002          10       53296           0
</event>
<event>
      5   9999  3.79277E-02  9.04267E+01 -1.00000E+00  1.25826E-01
      21    -1     0     0   502   512  0.000000000E+00  0.000000000E+00  2.957179001E+02  2.957179001E+02  0.000000000E+00  0.00000E+00  9.000E+00
      21    -1     0     0   501   502  0.000000000E+00  0.000000000E+00 -5.830593549E+02  5.830593549E+02  0.000000000E+00  0.00000E+00  9.000E+00
      25     1     1     2     0     0  1.409105621E+02 -1.475973434E+02 -1.541733532E+02  2.846667967E+02  1.250000000E+02  0.00000E+00  9.000E+00
      25     1     1     2     0     0 -1.550361996E+02  2.369139548E+02 -2.828218338E+02  4.192584344E+02  1.250000000E+02  0.00000E+00  9.000E+00
      21     1     1     2   501   512  1.412563748E+01 -8.931661135E+01  1.496537321E+02  1.748520238E+02  1.907348633E-06  0.00000E+00  9.000E+00
#rwgt            1           1  0.27798542671620780               10       53439           0
</event>
<event>
      5   9999  3.79277E-02  2.10669E+01 -1.00000E+00  1.64528E-01
      21    -1     0     0   502   501  0.000000000E+00  0.000000000E+00  1.523582519E+02  1.523582519E+02  0.000000000E+00  0.00000E+00  9.000E+00
      21    -1     0     0   511   502  0.000000000E+00  0.000000000E+00 -1.530817888E+03  1.530817888E+03  0.000000000E+00  0.00000E+00  9.000E+00
      25     1     1     2     0     0 -1.022123759E+01 -9.106860641E+00 -9.367348977E+01  1.568028421E+02  1.250000000E+02  0.00000E+00  9.000E+00
      25     1     1     2     0     0  2.184979647E+01 -8.459952910E+00  8.721585570E+01  1.542095649E+02  1.250000000E+02  0.00000E+00  9.000E+00
      21     1     1     2   511   501 -1.162855889E+01  1.756681355E+01 -1.372002002E+03  1.372163733E+03  2.157918644E-05  0.00000E+00  9.000E+00
#rwgt            1           1   4.7640329066381444E-002          10       53653           0
</event>
<event>
      5   9999  3.79277E-02  1.71569E+01 -1.00000E+00  1.72058E-01
      21    -1     0     0   512   501  0.000000000E+00  0.000000000E+00  9.633244616E+01  9.633244616E+01  0.000000000E+00  0.00000E+00  9.000E+00
      21    -1     0     0   501   502  0.000000000E+00  0.000000000E+00 -1.273681639E+03  1.273681639E+03  0.000000000E+00  0.00000E+00  9.000E+00
      25     1     1     2     0     0 -2.234072299E+02  6.023690201E+01 -9.992250058E+02  1.033254512E+03  1.250000000E+02  0.00000E+00  9.000E+00
      25     1     1     2     0     0  2.248555550E+02 -7.733256049E+01 -1.671290098E+02  3.163818128E+02  1.250000000E+02  0.00000E+00  9.000E+00
      21     1     1     2   512   502 -1.448325127E+00  1.709565848E+01 -1.099517699E+01  2.037775998E+01  1.192092896E-07  0.00000E+00  9.000E+00
#rwgt            1           1   3.6482391607763162E-002          10       53861           0
</event>
<event>
      5   9999  3.79277E-02  3.62462E+02 -1.00000E+00  1.02990E-01
      21    -1     0     0   502   501  0.000000000E+00  0.000000000E+00  5.997905270E+02  5.997905270E+02  0.000000000E+00  0.00000E+00  9.000E+00
      21    -1     0     0   501   511  0.000000000E+00  0.000000000E+00 -5.486041396E+02  5.486041396E+02  0.000000000E+00  0.00000E+00  9.000E+00
      25     1     1     2     0     0  1.284848937E+02  1.617762815E+02 -1.070210519E+02  2.641182287E+02  1.250000000E+02  0.00000E+00  9.000E+00
      25     1     1     2     0     0  2.729121004E+01  1.655038662E+02  3.980322648E+02  4.496565620E+02  1.250000000E+02  0.00000E+00  9.000E+00
      21     1     1     2   502   511 -1.557761038E+02 -3.272801477E+02 -2.398248256E+02  4.346198760E+02  8.092194914E-06  0.00000E+00  9.000E+00
#rwgt            1           1   3.6457600079632571E-002          10       54225           0
</event>
<event>
      5   9999  3.79277E-02  6.36054E+01 -1.00000E+00  1.33363E-01
      21    -1     0     0   502   501  0.000000000E+00  0.000000000E+00  3.557652573E+02  3.557652573E+02  0.000000000E+00  0.00000E+00  9.000E+00
      21    -1     0     0   512   502  0.000000000E+00  0.000000000E+00 -3.376262331E+02  3.376262331E+02  0.000000000E+00  0.00000E+00  9.000E+00
      25     1     1     2     0     0  1.276189034E+02 -2.191665729E+02  1.279061333E+02  3.103313554E+02  1.250000000E+02  0.00000E+00  9.000E+00
      25     1     1     2     0     0 -7.956253464E+01  1.774984443E+02  2.645059125E+01  2.327241466E+02  1.250000000E+02  0.00000E+00  9.000E+00
      21     1     1     2   512   501 -4.805636872E+01  4.166812862E+01 -1.362177003E+02  1.503359884E+02  1.907348633E-06  0.00000E+00  9.000E+00
#rwgt            1           1   8.2071111205318806E-002          10       54308           0
</event>
<event>
      5   9999  3.79277E-02  2.79835E+01 -1.00000E+00  1.55169E-01
      21    -1     0     0   502   501  0.000000000E+00  0.000000000E+00  1.530111978E+02  1.530111978E+02  0.000000000E+00  0.00000E+00  9.000E+00
      21    -1     0     0   501   511  0.000000000E+00  0.000000000E+00 -8.245187343E+02  8.245187343E+02  0.000000000E+00  0.00000E+00  9.000E+00
      25     1     1     2     0     0  4.538428024E+01  2.253442855E+02 -2.534700606E+02  3.642963787E+02  1.250000000E+02  0.00000E+00  9.000E+00
      25     1     1     2     0     0 -3.537700855E+01 -2.514771943E+02 -1.095986037E+02  3.035278668E+02  1.250000000E+02  0.00000E+00  9.000E+00
      21     1     1     2   502   511 -1.000727169E+01  2.613290882E+01 -3.084388723E+02  3.097056867E+02  3.814697266E-06  0.00000E+00  9.000E+00
#rwgt            1           1   3.7134191683811046E-002          10       54390           0
</event>
<event>
      5   9999  3.79277E-02  8.89716E+01 -1.00000E+00  1.26154E-01
      21    -1     0     0   502   501  0.000000000E+00  0.000000000E+00  3.278448200E+02  3.278448200E+02  0.000000000E+00  0.00000E+00  9.000E+00
      21    -1     0     0   501   512  0.000000000E+00  0.000000000E+00 -1.385244348E+02  1.385244348E+02  0.000000000E+00  0.00000E+00  9.000E+00
      25     1     1     2     0     0  3.765746963E+01  1.268442376E+02  1.581334998E+02  2.411197822E+02  1.250000000E+02  0.00000E+00  9.000E+00
      25     1     1     2     0     0 -5.207244289E+00 -4.400141125E+01  5.889722083E+00  1.327513782E+02  1.250000000E+02  0.00000E+00  9.000E+00
      21     1     1     2   502   512 -3.245022534E+01 -8.284282634E+01  2.529716330E+01  9.249809442E+01  1.011524364E-06  0.00000E+00  9.000E+00
#rwgt            1           1   3.7115544253016872E-002          10       54579           0
</event>
<event>
      5   9999 -3.79277E-02  6.72690E+01 -1.00000E+00  1.32102E-01
      21    -1     0     0   502   501  0.000000000E+00  0.000000000E+00  5.434435919E+02  5.434435919E+02  0.000000000E+00  0.00000E+00  9.000E+00
      21    -1     0     0   511   502  0.000000000E+00  0.000000000E+00 -4.851494674E+02  4.851494674E+02  0.000000000E+00  0.00000E+00  9.000E+00
      25     1     1     2     0     0 -2.234781186E+02 -4.148739068E+01  2.841733036E+02  3.847637451E+02  1.250000000E+02  0.00000E+00  9.000E+00
      25     1     1     2     0     0  2.249690474E+02 -2.576512876E+01  1.244977491E+02  2.870533116E+02  1.250000000E+02  0.00000E+00  9.000E+00
      21     1     1     2   511   501 -1.490928817E+00  6.725251943E+01 -3.503769281E+02  3.567760026E+02  5.394796609E-06  0.00000E+00  9.000E+00
#rwgt            1           1  -8.7987515640214523E-002          10       54822           0
</event>
<event>
      5   9999  3.79277E-02  3.30322E+01 -1.00000E+00  1.50191E-01
      21    -1     0     0   502   512  0.000000000E+00  0.000000000E+00  2.437136093E+02  2.437136093E+02  0.000000000E+00  0.00000E+00  9.000E+00
      21    -1     0     0   501   502  0.000000000E+00  0.000000000E+00 -2.239136437E+02  2.239136437E+02  0.000000000E+00  0.00000E+00  9.000E+00
      25     1     1     2     0     0 -1.381484400E+02 -5.746578683E+00  2.646575033E+01  1.882643104E+02  1.250000000E+02  0.00000E+00  9.000E+00
      25     1     1     2     0     0  1.707286694E+02  3.011050530E-01 -5.701618679E+01  2.191442784E+02  1.250000000E+02  0.00000E+00  9.000E+00
      21     1     1     2   501   512 -3.258022935E+01  5.445473630E+00  5.035040198E+01  6.021866411E+01  0.000000000E+00  0.00000E+00  9.000E+00
#rwgt            1           1   3.6528246677383212E-002          10       54875           0
</event>
<event>
      5   9999  3.79277E-02  1.04324E+02 -1.00000E+00  1.23007E-01
      21    -1     0     0   502   501  0.000000000E+00  0.000000000E+00  3.319885800E+02  3.319885800E+02  0.000000000E+00  0.00000E+00  9.000E+00
      21    -1     0     0   501   511  0.000000000E+00  0.000000000E+00 -1.979002492E+02  1.979002492E+02  0.000000000E+00  0.00000E+00  9.000E+00
      25     1     1     2     0     0  2.062542566E+01 -5.007738939E-01  9.552769821E+01  1.586700983E+02  1.250000000E+02  0.00000E+00  9.000E+00
      25     1     1     2     0     0 -1.238344764E+02 -1.470999737E+01  1.402817603E+02  2.255112721E+02  1.250000000E+02  0.00000E+00  9.000E+00
      21     1     1     2   502   511  1.032090508E+02  1.521077127E+01 -1.017211277E+02  1.457074588E+02  3.015782986E-06  0.00000E+00  9.000E+00
#rwgt            1           1   4.4934547477059723E-002          10       55057           0
</event>
<event>
      5   9999  3.79277E-02  1.27581E+01 -1.00000E+00  1.84273E-01
      21    -1     0     0   502   501  0.000000000E+00  0.000000000E+00  4.042424306E+02  4.042424306E+02  0.000000000E+00  0.00000E+00  9.000E+00
      21    -1     0     0   512   502  0.000000000E+00  0.000000000E+00 -3.025772536E+02  3.025772536E+02  0.000000000E+00  0.00000E+00  9.000E+00
      25     1     1     2     0     0 -4.215009719E+01 -6.937462656E+01  3.341376464E+02  3.658721583E+02  1.250000000E+02  0.00000E+00  9.000E+00
      25     1     1     2     0     0  4.777079009E+01  5.792132225E+01 -4.437434646E+01  1.524172253E+02  1.250000000E+02  0.00000E+00  9.000E+00
      21     1     1     2   512   501 -5.620692902E+00  1.145330431E+01 -1.880981229E+02  1.885303005E+02  0.000000000E+00  0.00000E+00  9.000E+00
#rwgt            1           1   4.1282365359634136E-002          10       55102           0
</event>
<event>
      5   9999  3.79277E-02  4.51548E+01 -1.00000E+00  1.41649E-01
      21    -1     0     0   502   511  0.000000000E+00  0.000000000E+00  3.240330042E+02  3.240330042E+02  0.000000000E+00  0.00000E+00  9.000E+00
      21    -1     0     0   501   502  0.000000000E+00  0.000000000E+00 -2.145252244E+02  2.145252244E+02  0.000000000E+00  0.00000E+00  9.000E+00
      25     1     1     2     0     0 -1.189416139E+02 -9.106545445E+01 -2.892383505E+01  1.972349177E+02  1.250000000E+02  0.00000E+00  9.000E+00
      25     1     1     2     0     0  7.533941875E+01  1.028044175E+02 -1.712965305E+01  1.793410195E+02  1.250000000E+02  0.00000E+00  9.000E+00
      21     1     1     2   501   511  4.360219515E+01 -1.173896300E+01  1.555612679E+02  1.619822915E+02  1.907348633E-06  0.00000E+00  9.000E+00
#rwgt            1           1   4.6362031640674817E-002          10       55341           0
</event>
<event>
      5   9999  3.79277E-02  1.37999E+02 -1.00000E+00  1.17847E-01
       4    -1     0     0   502     0  0.000000000E+00  0.000000000E+00  2.502117163E+02  2.502117163E+02  0.000000000E+00  0.00000E+00  9.000E+00
      21    -1     0     0   501   502  0.000000000E+00  0.000000000E+00 -4.500091381E+02  4.500091381E+02  0.000000000E+00  0.00000E+00  9.000E+00
      25     1     1     2     0     0  9.955111730E+01  1.238419963E+02  1.365843369E+02  2.439826758E+02  1.250000000E+02  0.00000E+00  9.000E+00
      25     1     1     2     0     0  3.629970319E+01 -9.958993589E+01 -1.361974931E+02  2.130975854E+02  1.250000000E+02  0.00000E+00  9.000E+00
       4     1     1     2   501     0 -1.358508205E+02 -2.425206036E+01 -2.001842656E+02  2.431405932E+02  3.814697266E-06  0.00000E+00  9.000E+00
#rwgt            1           1   4.0894309376090669E-002          10       55497           0
</event>
<event>
      5   9999  3.79277E-02  4.91445E+01 -1.00000E+00  1.39505E-01
      21    -1     0     0   511   501  0.000000000E+00  0.000000000E+00  1.006558791E+02  1.006558791E+02  0.000000000E+00  0.00000E+00  9.000E+00
      21    -1     0     0   501   502  0.000000000E+00  0.000000000E+00 -1.412958720E+03  1.412958720E+03  0.000000000E+00  0.00000E+00  9.000E+00
      25     1     1     2     0     0  2.539485351E+02 -6.144014500E+01 -6.256342399E+02  6.894258133E+02  1.250000000E+02  0.00000E+00  9.000E+00
      25     1     1     2     0     0 -2.308802188E+02  1.048340803E+02 -7.140178134E+02  7.679468066E+02  1.250000000E+02  0.00000E+00  9.000E+00
      21     1     1     2   511   502 -2.306831629E+01 -4.339393531E+01  2.734921222E+01  5.624197940E+01  1.581489940E-06  0.00000E+00  9.000E+00
#rwgt            1           1   2.4969318012574886E-002          10       55684           0
</event>
<event>
      5   9999  3.79277E-02  4.94360E+01 -1.00000E+00  1.39357E-01
      21    -1     0     0   502   501  0.000000000E+00  0.000000000E+00  3.546240237E+02  3.546240237E+02  0.000000000E+00  0.00000E+00  9.000E+00
      21    -1     0     0   512   502  0.000000000E+00  0.000000000E+00 -4.052169330E+02  4.052169330E+02  0.000000000E+00  0.00000E+00  9.000E+00
      25     1     1     2     0     0 -1.395720967E+02 -6.127277911E+01 -3.016121544E+02  3.603187690E+02  1.250000000E+02  0.00000E+00  9.000E+00
      25     1     1     2     0     0  1.801756393E+02  8.947329186E+01  2.572755214E+02  3.496918999E+02  1.250000000E+02  0.00000E+00  9.000E+00
      21     1     1     2   512   501 -4.060354256E+01 -2.820051275E+01 -6.256276298E+00  4.983028779E+01  4.298152060E-07  0.00000E+00  9.000E+00
#rwgt            1           1   3.5795796223014861E-002          10       55845           0
</event>
<event>
      5   9999  3.79277E-02  6.25400E+01 -1.00000E+00  1.33748E-01
      21    -1     0     0   502   501  0.000000000E+00  0.000000000E+00  3.701985510E+02  3.701985510E+02  0.000000000E+00  0.00000E+00  9.000E+00
       2    -1     0     0   501     0  0.000000000E+00  0.000000000E+00 -7.009319376E+02  7.009319376E+02  0.000000000E+00  0.00000E+00  9.000E+00
      25     1     1     2     0     0 -1.574703921E+02  2.799627508E+01  2.229983325E+02  3.015526026E+02  1.250000000E+02  0.00000E+00  9.000E+00
      25     1     1     2     0     0  1.359254142E+02 -8.670800501E+01  8.204464626E+00  2.041722547E+02  1.250000000E+02  0.00000E+00  9.000E+00
       2     1     1     2   502     0  2.154497797E+01  5.871172994E+01 -5.619361837E+02  5.654056313E+02  0.000000000E+00  0.00000E+00  9.000E+00
#rwgt            1           1   3.5139434717828960E-002          10       56064           0
</event>
<event>
      5   9999  3.79277E-02  2.10299E+01 -1.00000E+00  1.64590E-01
      21    -1     0     0   502   511  0.000000000E+00  0.000000000E+00  7.277591195E+02  7.277591195E+02  0.000000000E+00  0.00000E+00  9.000E+00
      21    -1     0     0   501   502  0.000000000E+00  0.000000000E+00 -1.625482366E+02  1.625482366E+02  0.000000000E+00  0.00000E+00  9.000E+00
      25     1     1     2     0     0 -1.700232838E+02 -1.058330613E+01  4.215264076E+02  4.715182242E+02  1.250000000E+02  0.00000E+00  9.000E+00
      25     1     1     2     0     0  1.840302320E+02 -5.103057910E+00 -4.659361144E+01  2.273524403E+02  1.250000000E+02  0.00000E+00  9.000E+00
      21     1     1     2   501   511 -1.400694821E+01  1.568636404E+01  1.902780867E+02  1.914366916E+02  2.697398305E-06  0.00000E+00  9.000E+00
#rwgt            1           1   3.8500896353823671E-002          10       56319           0
</event>
<event>
      5   9999  3.79277E-02  1.69014E+01 -1.00000E+00  1.72636E-01
      21    -1     0     0   502   512  0.000000000E+00  0.000000000E+00  1.106348612E+03  1.106348612E+03  0.000000000E+00  0.00000E+00  9.000E+00
      21    -1     0     0   501   502  0.000000000E+00  0.000000000E+00 -3.284544428E+01  3.284544428E+01  0.000000000E+00  0.00000E+00  9.000E+00
      25     1     1     2     0     0 -1.277488605E+02  3.377111514E+01  4.829785274E+02  5.160944850E+02  1.250000000E+02  0.00000E+00  9.000E+00
      25     1     1     2     0     0  1.272204488E+02 -1.687795734E+01  5.028301839E+02  5.337912531E+02  1.250000000E+02  0.00000E+00  9.000E+00
      21     1     1     2   501   512  5.284117634E-01 -1.689315779E+01  8.769445636E+01  8.930831807E+01  9.536743164E-07  0.00000E+00  9.000E+00
#rwgt            1           1   3.4726119491658367E-002          10       56638           0
</event>
<event>
      5   9999  3.79277E-02  2.98341E+01 -1.00000E+00  1.53207E-01
       1    -1     0     0   502     0  0.000000000E+00  0.000000000E+00  3.392417224E+02  3.392417224E+02  0.000000000E+00  0.00000E+00  9.000E+00
      21    -1     0     0   501   502  0.000000000E+00  0.000000000E+00 -3.433930486E+02  3.433930486E+02  0.000000000E+00  0.00000E+00  9.000E+00
      25     1     1     2     0     0 -8.264396086E+01 -2.639831838E+02 -6.732775111E+01  3.109263123E+02  1.250000000E+02  0.00000E+00  9.000E+00
      25     1     1     2     0     0  5.506289741E+01  2.526097164E+02 -1.547367974E+01  2.875900315E+02  1.250000000E+02  0.00000E+00  9.000E+00
       1     1     1     2   501     0  2.758106345E+01  1.137346744E+01  7.865010469E+01  8.411842717E+01  1.651812370E-06  0.00000E+00  9.000E+00
#rwgt            1           1   3.8318455745242411E-002          10       56855           0
</event>
<event>
      5   9999  3.79277E-02  2.07572E+01 -1.00000E+00  1.65048E-01
      21    -1     0     0   511   501  0.000000000E+00  0.000000000E+00  7.403369680E+02  7.403369680E+02  0.000000000E+00  0.00000E+00  9.000E+00
      21    -1     0     0   501   502  0.000000000E+00  0.000000000E+00 -1.415956349E+02  1.415956349E+02  0.000000000E+00  0.00000E+00  9.000E+00
      25     1     1     2     0     0 -2.061529921E+02  1.620758173E+02  3.743685003E+02  4.738611619E+02  1.250000000E+02  0.00000E+00  9.000E+00
      25     1     1     2     0     0  1.978407237E+02 -1.430556696E+02  1.161262018E+02  2.978525999E+02  1.250000000E+02  0.00000E+00  9.000E+00
      21     1     1     2   511   502  8.312268354E+00 -1.902014770E+01  1.082466309E+02  1.102188411E+02  1.348699152E-06  0.00000E+00  9.000E+00
#rwgt            1           1   2.5503269396923847E-002          10       57005           0
</event>
<event>
      5   9999  3.79277E-02  8.44688E+01 -1.00000E+00  1.27217E-01
      21    -1     0     0   502   501  0.000000000E+00  0.000000000E+00  7.618564930E+01  7.618564930E+01  0.000000000E+00  0.00000E+00  9.000E+00
      21    -1     0     0   501   512  0.000000000E+00  0.000000000E+00 -1.467605290E+03  1.467605290E+03  0.000000000E+00  0.00000E+00  9.000E+00
      25     1     1     2     0     0  6.786693374E+01 -1.465390252E+02 -4.006296621E+02  4.496762533E+02  1.250000000E+02  0.00000E+00  9.000E+00
      25     1     1     2     0     0 -4.846413968E+01  2.287492162E+02 -3.092142595E+02  4.073247292E+02  1.250000000E+02  0.00000E+00  9.000E+00
      21     1     1     2   502   512 -1.940279406E+01 -8.221019099E+01 -6.815757189E+02  6.867899566E+02  7.629394531E-06  0.00000E+00  9.000E+00
#rwgt            1           1   4.7870524473821723E-002          10       57404           0
</event>
<event>
      5   9999  4.19140E-02  2.49901E+01 -1.00000E+00  1.58764E-01
      21    -1     0     0   502   501  0.000000000E+00  0.000000000E+00  8.858550470E+02  8.858550470E+02  0.000000000E+00  0.00000E+00  9.000E+00
      21    -1     0     0   511   502  0.000000000E+00  0.000000000E+00 -3.148593616E+02  3.148593616E+02  0.000000000E+00  0.00000E+00  9.000E+00
      25     1     1     2     0     0  9.151140144E+01 -4.237054429E+02  1.640043713E+02  4.800240335E+02  1.250000000E+02  0.00000E+00  9.000E+00
      25     1     1     2     0     0 -6.655427834E+01  4.224222636E+02  4.731935040E+02  6.499285599E+02  1.250000000E+02  0.00000E+00  9.000E+00
      21     1     1     2   511   501 -2.495712310E+01  1.283179304E+00 -6.620218985E+01  7.076181515E+01  0.000000000E+00  0.00000E+00  9.000E+00
#rwgt            1           1  0.36879504315930350               10       57539           0
</event>
<event>
      5   9999  3.79277E-02  1.84004E+02 -1.00000E+00  1.12982E-01
      21    -1     0     0   502   512  0.000000000E+00  0.000000000E+00  8.175431804E+02  8.175431804E+02  0.000000000E+00  0.00000E+00  9.000E+00
      21    -1     0     0   501   502  0.000000000E+00  0.000000000E+00 -1.031997696E+02  1.031997696E+02  0.000000000E+00  0.00000E+00  9.000E+00
      25     1     1     2     0     0 -4.517748598E+01  1.114119009E+02  1.777950543E+02  2.483741095E+02  1.250000000E+02  0.00000E+00  9.000E+00
      25     1     1     2     0     0  1.813037749E+02  1.239044425E+01  2.736259715E+02  3.514551952E+02  1.250000000E+02  0.00000E+00  9.000E+00
      21     1     1     2   501   512 -1.361262890E+02 -1.238023452E+02  2.629223850E+02  3.209136454E+02  3.814697266E-06  0.00000E+00  9.000E+00
#rwgt            1           1   4.6513677714268550E-002          10       57929           0
</event>
<event>
      5   9999  3.79277E-02  5.65625E+01 -1.00000E+00  1.36087E-01
      21    -1     0     0   511   501  0.000000000E+00  0.000000000E+00  1.312288784E+02  1.312288784E+02  0.000000000E+00  0.00000E+00  9.000E+00
      21    -1     0     0   501   502  0.000000000E+00  0.000000000E+00 -3.397169203E+02  3.397169203E+02  0.000000000E+00  0.00000E+00  9.000E+00
      25     1     1     2     0     0 -5.126105872E+01  2.511043647E+01  3.935648909E+01  1.429411186E+02  1.250000000E+02  0.00000E+00  9.000E+00
      25     1     1     2     0     0 -5.163050811E+00 -2.115555599E+01 -2.392223427E+02  2.707887440E+02  1.250000000E+02  0.00000E+00  9.000E+00
      21     1     1     2   511   502  5.642410953E+01 -3.954880473E+00 -8.622188310E+00  5.721593613E+01  3.769728732E-07  0.00000E+00  9.000E+00
#rwgt            1           1   4.5670286999286304E-002          10       58021           0
</event>
<event>
      5   9999  3.79277E-02  1.36854E+02 -1.00000E+00  1.17994E-01
      21    -1     0     0   502   512  0.000000000E+00  0.000000000E+00  1.976005063E+03  1.976005063E+03  0.000000000E+00  0.00000E+00  9.000E+00
      21    -1     0     0   501   502  0.000000000E+00  0.000000000E+00 -5.224442109E+01  5.224442109E+01  0.000000000E+00  0.00000E+00  9.000E+00
      25     1     1     2     0     0  2.183014556E+02  3.196685779E+01  4.113310003E+02  4.832138216E+02  1.250000000E+02  0.00000E+00  9.000E+00
      25     1     1     2     0     0 -9.988257707E+01  3.663359002E+01  5.861107052E+02  6.086618995E+02  1.250000000E+02  0.00000E+00  9.000E+00
      21     1     1     2   501   512 -1.184188785E+02 -6.860044782E+01  9.263189361E+02  9.363737628E+02  0.000000000E+00  0.00000E+00  9.000E+00
#rwgt            1           1   4.3313728472070330E-002          10       58111           0
</event>
<event>
      5   9999  3.79277E-02  2.81864E+02 -1.00000E+00  1.06479E-01
      21    -1     0     0   502   501  0.000000000E+00  0.000000000E+00  1.467641995E+02  1.467641995E+02  0.000000000E+00  0.00000E+00  9.000E+00
       1    -1     0     0   501     0  0.000000000E+00  0.000000000E+00 -1.824920408E+03  1.824920408E+03  0.000000000E+00  0.00000E+00  9.000E+00
      25     1     1     2     0     0 -3.145121341E+02  8.893352497E+01 -3.649792239E+02  5.056301892E+02  1.250000000E+02  0.00000E+00  9.000E+00
      25     1     1     2     0     0  1.518098071E+02  1.412302112E+02 -1.891835186E+02  3.072581875E+02  1.250000000E+02  0.00000E+00  9.000E+00
       1     1     1     2   502     0  1.627023270E+02 -2.301637361E+02 -1.123993466E+03  1.158796231E+03  0.000000000E+00  0.00000E+00  9.000E+00
#rwgt            1           1   3.6028005550561487E-002          10       58167           0
</event>
<event>
      5   9999  3.79277E-02  2.40231E+01 -1.00000E+00  1.60058E-01
      21    -1     0     0   511   501  0.000000000E+00  0.000000000E+00  4.827849562E+01  4.827849562E+01  0.000000000E+00  0.00000E+00  9.000E+00
      21    -1     0     0   501   502  0.000000000E+00  0.000000000E+00 -1.165139394E+03  1.165139394E+03  0.000000000E+00  0.00000E+00  9.000E+00
      25     1     1     2     0     0  1.372986332E+02  2.371513293E+01 -8.997643176E+02  9.190289165E+02  1.250000000E+02  0.00000E+00  9.000E+00
      25     1     1     2     0     0 -1.136506728E+02 -2.794417937E+01 -2.061401706E+02  2.679853028E+02  1.250000000E+02  0.00000E+00  9.000E+00
      21     1     1     2   511   502 -2.364796043E+01  4.229046438E+00 -1.095640976E+01  2.640366984E+01  2.665600750E-07  0.00000E+00  9.000E+00
#rwgt            1           1   4.1742999639575666E-002          10       58213           0
</event>
<event>
      5   9999  3.79277E-02  8.22563E+01 -1.00000E+00  1.27768E-01
      21    -1     0     0   502   512  0.000000000E+00  0.000000000E+00  7.815836958E+01  7.815836958E+01  0.000000000E+00  0.00000E+00  9.000E+00
      21    -1     0     0   501   502  0.000000000E+00  0.000000000E+00 -1.234403290E+03  1.234403290E+03  0.000000000E+00  0.00000E+00  9.000E+00
      25     1     1     2     0     0  1.072792413E+02 -1.715951806E+02 -4.137356693E+02  4.772378293E+02  1.250000000E+02  0.00000E+00  9.000E+00
      25     1     1     2     0     0 -9.934881462E+01  2.534682533E+02 -6.046088635E+02  6.747541925E+02  1.250000000E+02  0.00000E+00  9.000E+00
      21     1     1     2   501   512 -7.930426702E+00 -8.187307273E+01 -1.379003875E+02  1.605696378E+02  2.697398305E-06  0.00000E+00  9.000E+00
#rwgt            1           1   1.9768526561405163E-002          10       58448           0
</event>
<event>
      5   9999  3.79277E-02  6.00138E+01 -1.00000E+00  1.34698E-01
      21    -1     0     0   502   501  0.000000000E+00  0.000000000E+00  1.068089485E+02  1.068089485E+02  0.000000000E+00  0.00000E+00  9.000E+00
       2    -1     0     0   501     0  0.000000000E+00  0.000000000E+00 -1.620974459E+03  1.620974459E+03  0.000000000E+00  0.00000E+00  9.000E+00
      25     1     1     2     0     0  2.245947115E+00  2.179668049E+02 -8.810535647E+01  2.662745315E+02  1.250000000E+02  0.00000E+00  9.000E+00
      25     1     1     2     0     0 -5.779339231E+01 -1.952482541E+02 -8.697563140E+02  9.019772739E+02  1.250000000E+02  0.00000E+00  9.000E+00
       2     1     1     2   502     0  5.554744520E+01 -2.271855078E+01 -5.563038404E+02  5.595316023E+02  0.000000000E+00  0.00000E+00  9.000E+00
#rwgt            1           1   6.9303503514843795E-002          10       58504           0
</event>
<event>
      5   9999 -3.79277E-02  1.26602E+02 -1.00000E+00  1.19389E-01
      21    -1     0     0   502   501  0.000000000E+00  0.000000000E+00  2.792047685E+02  2.792047685E+02  0.000000000E+00  0.00000E+00  9.000E+00
      21    -1     0     0   501   511  0.000000000E+00  0.000000000E+00 -5.359706986E+02  5.359706986E+02  0.000000000E+00  0.00000E+00  9.000E+00
      25     1     1     2     0     0  1.547109138E+02 -9.685650281E+01 -1.753350027E+02  2.822835669E+02  1.250000000E+02  0.00000E+00  9.000E+00
      25     1     1     2     0     0 -2.566284451E+02  1.719615298E+02  6.478128073E+01  3.394857005E+02  1.250000000E+02  0.00000E+00  9.000E+00
      21     1     1     2   502   511  1.019175313E+02 -7.510502695E+01 -1.462122081E+02  1.934061996E+02  0.000000000E+00  0.00000E+00  9.000E+00
#rwgt            1           1  -2.1324258942255304E-002          10       58702           0
</event>
<event>
      5   9999  3.79277E-02  3.91713E+00 -1.00000E+00  2.65631E-01
      21    -1     0     0   512   501  0.000000000E+00  0.000000000E+00  1.083471373E+03  1.083471373E+03  0.000000000E+00  0.00000E+00  9.000E+00
      21    -1     0     0   501   502  0.000000000E+00  0.000000000E+00 -1.022869826E+02  1.022869826E+02  0.000000000E+00  0.00000E+00  9.000E+00
      25     1     1     2     0     0 -1.212738744E+02 -2.074910447E+02  3.874840962E+02  4.727883365E+02  1.250000000E+02  0.00000E+00  9.000E+00
      25     1     1     2     0     0  1.244908204E+02  2.052560495E+02  2.475229975E+02  3.667705612E+02  1.250000000E+02  0.00000E+00  9.000E+00
      21     1     1     2   512   502 -3.216946004E+00  2.234995197E+00  3.461772965E+02  3.461994578E+02  3.814697266E-06  0.00000E+00  9.000E+00
#rwgt            1           1   2.9088119299881178E-002          10       58839           0
</event>
<event>
      5   9999  3.79277E-02  4.01874E+01 -1.00000E+00  1.44714E-01
      21    -1     0     0   502   501  0.000000000E+00  0.000000000E+00  2.676948440E+02  2.676948440E+02  0.000000000E+00  0.00000E+00  9.000E+00
      21    -1     0     0   501   511  0.000000000E+00  0.000000000E+00 -2.246606373E+02  2.246606373E+02  0.000000000E+00  0.00000E+00  9.000E+00
      25     1     1     2     0     0  2.399178938E+01 -1.208530764E+02  1.095316722E+02  2.068894856E+02  1.250000000E+02  0.00000E+00  9.000E+00
      25     1     1     2     0     0 -5.678610039E+01  1.440815658E+02  9.768075050E+00  1.992600665E+02  1.250000000E+02  0.00000E+00  9.000E+00
      21     1     1     2   502   511  3.279431101E+01 -2.322848940E+01 -7.626554056E+01  8.620592922E+01  1.348699152E-06  0.00000E+00  9.000E+00
#rwgt            1           1   3.7728532443435346E-002          10       59537           0
</event>
<event>
      5   9999  3.79277E-02  1.66037E+01 -1.00000E+00  1.73326E-01
      21    -1     0     0   502   501  0.000000000E+00  0.000000000E+00  4.421946389E+01  4.421946389E+01  0.000000000E+00  0.00000E+00  9.000E+00
      21    -1     0     0   501   512  0.000000000E+00  0.000000000E+00 -8.666805599E+02  8.666805599E+02  0.000000000E+00  0.00000E+00  9.000E+00
      25     1     1     2     0     0 -5.644927020E+01 -2.111936207E+01 -5.455072109E+02  5.628815725E+02  1.250000000E+02  0.00000E+00  9.000E+00
      25     1     1     2     0     0  6.828955755E+01  9.479351071E+00 -1.099388179E+02  1.801800917E+02  1.250000000E+02  0.00000E+00  9.000E+00
      21     1     1     2   502   512 -1.184028735E+01  1.164001100E+01 -1.670150672E+02  1.678383596E+02  1.907348633E-06  0.00000E+00  9.000E+00
#rwgt            1           1   4.1236339952313635E-002          10       59587           0
</event>
<event>
      5   9999  3.79277E-02  1.87489E+01 -1.00000E+00  1.68717E-01
       2    -1     0     0   502     0  0.000000000E+00  0.000000000E+00  3.602165657E+03  3.602165657E+03  0.000000000E+00  0.00000E+00  9.000E+00
      21    -1     0     0   501   502  0.000000000E+00  0.000000000E+00 -3.441146230E+02  3.441146230E+02  0.000000000E+00  0.00000E+00  9.000E+00
      25     1     1     2     0     0  6.508630609E+01 -3.721140748E+02  3.494893348E+02  5.295969288E+02  1.250000000E+02  0.00000E+00  9.000E+00
      25     1     1     2     0     0 -4.741565082E+01  3.783806652E+02 -9.554224608E+01  4.125208995E+02  1.250000000E+02  0.00000E+00  9.000E+00
       2     1     1     2   501     0 -1.767065526E+01 -6.266590412E+00  3.004103945E+03  3.004162452E+03  4.315837288E-05  0.00000E+00  9.000E+00
#rwgt            1           1  0.15359852991602882               10       59930           0
</event>
<event>
      5   9999  3.79277E-02  3.94379E+01 -1.00000E+00  1.45222E-01
      21    -1     0     0   502   501  0.000000000E+00  0.000000000E+00  1.025413082E+02  1.025413082E+02  0.000000000E+00  0.00000E+00  9.000E+00
      21    -1     0     0   511   502  0.000000000E+00  0.000000000E+00 -4.810510676E+02  4.810510676E+02  0.000000000E+00  0.00000E+00  9.000E+00
      25     1     1     2     0     0  1.397497901E+02 -1.012016175E+02 -1.866216047E+02  2.832391120E+02  1.250000000E+02  0.00000E+00  9.000E+00
      25     1     1     2     0     0 -1.003584523E+02  1.031165091E+02 -1.477568677E+02  2.411678365E+02  1.250000000E+02  0.00000E+00  9.000E+00
      21     1     1     2   511   501 -3.939133785E+01 -1.914891634E+00 -4.413128704E+01  5.918542729E+01  6.743495762E-07  0.00000E+00  9.000E+00
#rwgt            1           1   4.7458297110755346E-002          10       60071           0
</event>
<event>
      5   9999  3.79277E-02  2.31927E+02 -1.00000E+00  1.09356E-01
      21    -1     0     0   502   512  0.000000000E+00  0.000000000E+00  9.996969628E+02  9.996969628E+02  0.000000000E+00  0.00000E+00  9.000E+00
      21    -1     0     0   501   502  0.000000000E+00  0.000000000E+00 -2.580013261E+02  2.580013261E+02  0.000000000E+00  0.00000E+00  9.000E+00
      25     1     1     2     0     0  1.531857278E+02 -2.989673782E+02  2.299336737E+02  4.258425234E+02  1.250000000E+02  0.00000E+00  9.000E+00
      25     1     1     2     0     0  7.862343567E+01  3.063574974E+02  9.205171095E+01  3.523280834E+02  1.250000000E+02  0.00000E+00  9.000E+00
      21     1     1     2   501   512 -2.318091635E+02 -7.390119194E+00  4.197102521E+02  4.795276820E+02  0.000000000E+00  0.00000E+00  9.000E+00
#rwgt            1           1   3.7447757163842750E-002          10       60179           0
</event>
<event>
      5   9999  3.79277E-02  4.58310E+01 -1.00000E+00  1.41268E-01
       2    -1     0     0   502     0  0.000000000E+00  0.000000000E+00  9.906751662E+01  9.906751662E+01  0.000000000E+00  0.00000E+00  9.000E+00
      21    -1     0     0   501   502  0.000000000E+00  0.000000000E+00 -4.987728131E+02  4.987728131E+02  0.000000000E+00  0.00000E+00  9.000E+00
      25     1     1     2     0     0  9.367739177E-02  6.782890979E+01 -1.994471571E+02  2.449590542E+02  1.250000000E+02  0.00000E+00  9.000E+00
      25     1     1     2     0     0 -1.383649813E+01 -1.115509395E+02 -2.394564394E+02  2.925738320E+02  1.250000000E+02  0.00000E+00  9.000E+00
       2     1     1     2   501     0  1.374282074E+01  4.372202969E+01  3.919830011E+01  6.030744344E+01  4.768371582E-07  0.00000E+00  9.000E+00
#rwgt            1           1   2.9364291127166382E-002          10       60255           0
</event>
<event>
      5   9999  3.79277E-02  1.06754E+02 -1.00000E+00  1.22565E-01
      21    -1     0     0   502   511  0.000000000E+00  0.000000000E+00  3.155885939E+01  3.155885939E+01  0.000000000E+00  0.00000E+00  9.000E+00
      21    -1     0     0   501   502  0.000000000E+00  0.000000000E+00 -2.541059086E+03  2.541059086E+03  0.000000000E+00  0.00000E+00  9.000E+00
      25     1     1     2     0     0  1.575532014E+02 -3.037125282E+01 -1.705726612E+03  1.717810728E+03  1.250000000E+02  0.00000E+00  9.000E+00
      25     1     1     2     0     0 -5.512785147E+01  6.046087392E+01 -6.542183619E+02  6.710598053E+02  1.250000000E+02  0.00000E+00  9.000E+00
      21     1     1     2   501   511 -1.024253500E+02 -3.008962111E+01 -1.495552527E+02  1.837474115E+02  1.907348633E-06  0.00000E+00  9.000E+00
#rwgt            1           1  0.10026705844446542               10       60361           0
</event>
<event>
      5   9999 -3.79277E-02  4.91216E+01 -1.00000E+00  1.39516E-01
      21    -1     0     0   502   501  0.000000000E+00  0.000000000E+00  4.687999447E+02  4.687999447E+02  0.000000000E+00  0.00000E+00  9.000E+00
      21    -1     0     0   501   512  0.000000000E+00  0.000000000E+00 -2.093633075E+02  2.093633075E+02  0.000000000E+00  0.00000E+00  9.000E+00
      25     1     1     2     0     0 -7.456982770E+01 -1.477377204E+02 -5.271333475E+01  2.139878241E+02  1.250000000E+02  0.00000E+00  9.000E+00
      25     1     1     2     0     0  2.993165347E+01  1.682404103E+02  3.452107418E+02  4.049644377E+02  1.250000000E+02  0.00000E+00  9.000E+00
      21     1     1     2   502   512  4.463817423E+01 -2.050268992E+01 -3.306076982E+01  5.921099048E+01  8.259061849E-07  0.00000E+00  9.000E+00
#rwgt            1           1 -0.15627925844344689               10       60421           0
</event>
<event>
      5   9999  3.79277E-02  7.20704E+01 -1.00000E+00  1.30583E-01
      21    -1     0     0   502   511  0.000000000E+00  0.000000000E+00  1.032667093E+03  1.032667093E+03  0.000000000E+00  0.00000E+00  9.000E+00
      21    -1     0     0   501   502  0.000000000E+00  0.000000000E+00 -7.677079182E+01  7.677079182E+01  0.000000000E+00  0.00000E+00  9.000E+00
      25     1     1     2     0     0  2.481578458E+01 -1.262226887E+02  6.237882439E+01  1.899055239E+02  1.250000000E+02  0.00000E+00  9.000E+00
      25     1     1     2     0     0 -4.571151571E+01  5.724794794E+01  5.768210320E+02  5.947389118E+02  1.250000000E+02  0.00000E+00  9.000E+00
      21     1     1     2   501   511  2.089573113E+01  6.897474071E+01  3.166964447E+02  3.247934490E+02  3.814697266E-06  0.00000E+00  9.000E+00
#rwgt            1           1   4.1895571065190200E-002          10       60744           0
</event>
<event>
      5   9999  3.79277E-02  2.51421E+02 -1.00000E+00  1.08146E-01
      21    -1     0     0   502   512  0.000000000E+00  0.000000000E+00  8.364755586E+01  8.364755586E+01  0.000000000E+00  0.00000E+00  9.000E+00
      21    -1     0     0   501   502  0.000000000E+00  0.000000000E+00 -2.194928656E+03  2.194928656E+03  0.000000000E+00  0.00000E+00  9.000E+00
      25     1     1     2     0     0  9.705358511E+01 -1.430660605E+02 -9.180982784E+02  9.425586161E+02  1.250000000E+02  0.00000E+00  9.000E+00
      25     1     1     2     0     0  1.430897454E+02  2.175228196E+02 -9.221749364E+02  9.663448999E+02  1.250000000E+02  0.00000E+00  9.000E+00
      21     1     1     2   501   512 -2.401433305E+02 -7.445675905E+01 -2.710078855E+02  3.696726960E+02  3.814697266E-06  0.00000E+00  9.000E+00
#rwgt            1           1   4.2439036478156382E-002          10       60835           0
</event>
<event>
      5   9999  3.79277E-02  2.54869E+01 -1.00000E+00  1.58126E-01
      21    -1     0     0   511   501  0.000000000E+00  0.000000000E+00  2.397287233E+02  2.397287233E+02  0.000000000E+00  0.00000E+00  9.000E+00
      21    -1     0     0   501   502  0.000000000E+00  0.000000000E+00 -3.866466819E+02  3.866466819E+02  0.000000000E+00  0.00000E+00  9.000E+00
      25     1     1     2     0     0  1.783227865E+02 -9.013754723E+01 -7.085888332E+01  2.461092744E+02  1.250000000E+02  0.00000E+00  9.000E+00
      25     1     1     2     0     0 -1.529357817E+02  8.788272113E+01 -1.749710070E+02  2.781233167E+02  1.250000000E+02  0.00000E+00  9.000E+00
      21     1     1     2   511   502 -2.538700485E+01  2.254826096E+00  9.891193170E+01  1.021428142E+02  1.348699152E-06  0.00000E+00  9.000E+00
#rwgt            1           1   3.5822262466305370E-002          10       60899           0
</event>
<event>
      5   9999  3.79277E-02  6.93281E+01 -1.00000E+00  1.31433E-01
      21    -1     0     0   502   501  0.000000000E+00  0.000000000E+00  1.491114806E+02  1.491114806E+02  0.000000000E+00  0.00000E+00  9.000E+00
      21    -1     0     0   501   512  0.000000000E+00  0.000000000E+00 -4.839372003E+02  4.839372003E+02  0.000000000E+00  0.00000E+00  9.000E+00
      25     1     1     2     0     0 -1.020542493E+02 -9.234109776E+01 -9.094134445E+01  2.069716799E+02  1.250000000E+02  0.00000E+00  9.000E+00
      25     1     1     2     0     0  1.439611929E+02  1.475697091E+02 -9.008665651E+01  2.573756977E+02  1.250000000E+02  0.00000E+00  9.000E+00
      21     1     1     2   502   512 -4.190694360E+01 -5.522861136E+01 -1.537977188E+02  1.687013033E+02  1.907348633E-06  0.00000E+00  9.000E+00
#rwgt            1           1   4.8412459300265408E-002          10       61062           0
</event>
<event>
      5   9999  3.79277E-02  3.26311E+01 -1.00000E+00  1.50546E-01
      21    -1     0     0   502   501  0.000000000E+00  0.000000000E+00  6.138101768E+02  6.138101768E+02  0.000000000E+00  0.00000E+00  9.000E+00
      21    -1     0     0   511   502  0.000000000E+00  0.000000000E+00 -6.171326214E+01  6.171326214E+01  0.000000000E+00  0.00000E+00  9.000E+00
      25     1     1     2     0     0 -7.968404892E+01 -7.558088915E+01  3.893982851E+02  4.234596118E+02  1.250000000E+02  0.00000E+00  9.000E+00
      25     1     1     2     0     0  8.892874289E+01  4.428668171E+01  1.304199279E+02  2.061649560E+02  1.250000000E+02  0.00000E+00  9.000E+00
      21     1     1     2   511   501 -9.244693965E+00  3.129420745E+01  3.227870176E+01  4.589887116E+01  6.743495762E-07  0.00000E+00  9.000E+00
#rwgt            1           1   3.3880271871216172E-002          10       61174           0
</event>
<event>
      5   9999  3.79277E-02  4.23532E+01 -1.00000E+00  1.43317E-01
      21    -1     0     0   512   501  0.000000000E+00  0.000000000E+00  8.614652253E+02  8.614652253E+02  0.000000000E+00  0.00000E+00  9.000E+00
      21    -1     0     0   501   502  0.000000000E+00  0.000000000E+00 -3.619177741E+01  3.619177741E+01  0.000000000E+00  0.00000E+00  9.000E+00
      25     1     1     2     0     0 -1.129433613E+01  1.481820646E+01  1.632708622E+02  2.064691641E+02  1.250000000E+02  0.00000E+00  9.000E+00
      25     1     1     2     0     0  2.955634581E+01  2.339560683E+01  3.061940084E+02  3.328673952E+02  1.250000000E+02  0.00000E+00  9.000E+00
      21     1     1     2   512   502 -1.826200968E+01 -3.821381330E+01  3.558085773E+02  3.583204434E+02  6.607249480E-06  0.00000E+00  9.000E+00
#rwgt            1           1   9.6372849344026380E-003          10       61279           0
</event>
<event>
      5   9999  3.79277E-02  5.73751E+01 -1.00000E+00  1.35750E-01
      21    -1     0     0   502   501  0.000000000E+00  0.000000000E+00  2.798896081E+02  2.798896081E+02  0.000000000E+00  0.00000E+00  9.000E+00
      21    -1     0     0   501   511  0.000000000E+00  0.000000000E+00 -3.480066017E+02  3.480066017E+02  0.000000000E+00  0.00000E+00  9.000E+00
      25     1     1     2     0     0  1.008635858E+02 -1.880254937E+02  1.095493033E+02  2.704682959E+02  1.250000000E+02  0.00000E+00  9.000E+00
      25     1     1     2     0     0 -4.409939516E+01  1.963758614E+02 -9.165282946E+01  2.540344007E+02  1.250000000E+02  0.00000E+00  9.000E+00
      21     1     1     2   502   511 -5.676419063E+01 -8.350367763E+00 -8.601346750E+01  1.033935132E+02  9.536743164E-07  0.00000E+00  9.000E+00
#rwgt            1           1   5.6108402561586196E-002          10       61388           0
</event>
<event>
      5   9999  3.79277E-02  6.84146E+01 -1.00000E+00  1.31727E-01
      21    -1     0     0   502   501  0.000000000E+00  0.000000000E+00  2.094228300E+01  2.094228300E+01  0.000000000E+00  0.00000E+00  9.000E+00
       2    -1     0     0   501     0  0.000000000E+00  0.000000000E+00 -3.298931274E+03  3.298931274E+03  0.000000000E+00  0.00000E+00  9.000E+00
      25     1     1     2     0     0 -8.820795691E+01 -1.755577826E+02 -2.004250331E+03  2.017732779E+03  1.250000000E+02  0.00000E+00  9.000E+00
      25     1     1     2     0     0  2.246022449E+01  1.566424332E+02 -9.190065280E+02  9.408715704E+02  1.250000000E+02  0.00000E+00  9.000E+00
       2     1     1     2   502     0  6.574773242E+01  1.891534936E+01 -3.547321325E+02  3.612692079E+02  5.394796609E-06  0.00000E+00  9.000E+00
#rwgt            1           1  0.35436450175013218               10       61515           0
</event>
<event>
      5   9999  3.79277E-02  8.16225E+01 -1.00000E+00  1.27929E-01
      21    -1     0     0   502   511  0.000000000E+00  0.000000000E+00  6.020732584E+02  6.020732584E+02  0.000000000E+00  0.00000E+00  9.000E+00
      21    -1     0     0   501   502  0.000000000E+00  0.000000000E+00 -2.644940524E+02  2.644940524E+02  0.000000000E+00  0.00000E+00  9.000E+00
      25     1     1     2     0     0 -1.456186931E+02 -6.663828943E+01  4.585778607E+02  5.015616809E+02  1.250000000E+02  0.00000E+00  9.000E+00
      25     1     1     2     0     0  1.734191465E+02 -1.010388700E+01 -1.668672295E+02  2.713778937E+02  1.250000000E+02  0.00000E+00  9.000E+00
      21     1     1     2   501   511 -2.780045338E+01  7.674217642E+01  4.586857481E+01  9.362773631E+01  0.000000000E+00  0.00000E+00  9.000E+00
#rwgt            1           1   5.6478163812185171E-002          10       61667           0
</event>
<event>
      5   9999  3.79277E-02  4.65412E+01 -1.00000E+00  1.40875E-01
      21    -1     0     0   502   501  0.000000000E+00  0.000000000E+00  5.504631064E+02  5.504631064E+02  0.000000000E+00  0.00000E+00  9.000E+00
      21    -1     0     0   512   502  0.000000000E+00  0.000000000E+00 -2.896072401E+02  2.896072401E+02  0.000000000E+00  0.00000E+00  9.000E+00
      25     1     1     2     0     0  5.103572840E+01 -2.564101485E+02 -4.425876768E+00  2.898195960E+02  1.250000000E+02  0.00000E+00  9.000E+00
      25     1     1     2     0     0 -9.672246369E+01  2.652875489E+02  3.418342039E+02  4.606607662E+02  1.250000000E+02  0.00000E+00  9.000E+00
      21     1     1     2   512   501  4.568673529E+01 -8.877400390E+00 -7.655246088E+01  8.958998430E+01  9.536743164E-07  0.00000E+00  9.000E+00
#rwgt            1           1   2.9152756140375557E-002          10       61949           0
</event>
<event>
      5   9999  3.79277E-02  4.17700E+01 -1.00000E+00  1.43683E-01
      21    -1     0     0   502   501  0.000000000E+00  0.000000000E+00  2.559817378E+02  2.559817378E+02  0.000000000E+00  0.00000E+00  9.000E+00
       2    -1     0     0   501     0  0.000000000E+00  0.000000000E+00 -1.687330564E+03  1.687330564E+03  0.000000000E+00  0.00000E+00  9.000E+00
      25     1     1     2     0     0 -5.042720685E+01 -3.307086061E+02 -3.803079095E+02  5.216993304E+02  1.250000000E+02  0.00000E+00  9.000E+00
      25     1     1     2     0     0  9.966932125E+00  3.410864337E+02  6.286424731E+00  3.634608839E+02  1.250000000E+02  0.00000E+00  9.000E+00
       2     1     1     2   502     0  4.046027473E+01 -1.037782763E+01 -1.057327342E+03  1.058152088E+03  0.000000000E+00  0.00000E+00  9.000E+00
#rwgt            1           1   5.4787325149458464E-002          10       62123           0
</event>
<event>
      5   9999  3.79277E-02  5.22513E+01 -1.00000E+00  1.37993E-01
      21    -1     0     0   511   501  0.000000000E+00  0.000000000E+00  1.268465158E+02  1.268465158E+02  0.000000000E+00  0.00000E+00  9.000E+00
      21    -1     0     0   501   502  0.000000000E+00  0.000000000E+00 -8.961392269E+02  8.961392269E+02  0.000000000E+00  0.00000E+00  9.000E+00
      25     1     1     2     0     0  2.211049370E+02  2.204549443E+01 -5.572229355E+02  6.127771184E+02  1.250000000E+02  0.00000E+00  9.000E+00
      25     1     1     2     0     0 -2.703089215E+02 -4.462223216E+00 -1.912567408E+02  3.539646386E+02  1.250000000E+02  0.00000E+00  9.000E+00
      21     1     1     2   511   502  4.920398452E+01 -1.758327121E+01 -2.081303480E+01  5.624398578E+01  1.118282261E-06  0.00000E+00  9.000E+00
#rwgt            1           1   2.3584258975669136E-002          10       62354           0
</event>
<event>
      5   9999  3.79277E-02  8.49039E+01 -1.00000E+00  1.27111E-01
      21    -1     0     0   512   501  0.000000000E+00  0.000000000E+00  1.434459336E+02  1.434459336E+02  0.000000000E+00  0.00000E+00  9.000E+00
      21    -1     0     0   501   502  0.000000000E+00  0.000000000E+00 -1.463266088E+03  1.463266088E+03  0.000000000E+00  0.00000E+00  9.000E+00
      25     1     1     2     0     0 -1.162184870E+02 -3.279117879E+00 -1.006127818E+03  1.020507558E+03  1.250000000E+02  0.00000E+00  9.000E+00
      25     1     1     2     0     0  8.759151513E+01 -7.665315025E+01 -4.180943181E+02  4.516368429E+02  1.250000000E+02  0.00000E+00  9.000E+00
      21     1     1     2   512   502  2.862697191E+01  7.993226813E+01  1.044019813E+02  1.345676214E+02  1.348699152E-06  0.00000E+00  9.000E+00
#rwgt            1           1   2.9025264819416287E-002          10       62786           0
</event>
<event>
      5   9999  3.79277E-02  7.42293E+01 -1.00000E+00  1.29943E-01
      -2    -1     0     0     0   501  0.000000000E+00  0.000000000E+00  3.686918276E+03  3.686918276E+03  0.000000000E+00  0.00000E+00  9.000E+00
      21    -1     0     0   501   502  0.000000000E+00  0.000000000E+00 -5.387395366E+01  5.387395366E+01  0.000000000E+00  0.00000E+00  9.000E+00
      25     1     1     2     0     0  1.471349765E+02  3.624687610E+01  5.067721807E+02  5.435122634E+02  1.250000000E+02  0.00000E+00  9.000E+00
      25     1     1     2     0     0 -2.091972824E+02  4.474816224E+00  3.893373577E+02  4.593387693E+02  1.250000000E+02  0.00000E+00  9.000E+00
      -2     1     1     2     0   502  6.206230588E+01 -4.072169233E+01  2.736934784E+03  2.737941197E+03  0.000000000E+00  0.00000E+00  9.000E+00
#rwgt            1           1  0.36188333453009464               10       62846           0
</event>
<event>
      5   9999  3.79277E-02  8.39060E+01 -1.00000E+00  1.27355E-01
      21    -1     0     0   502   501  0.000000000E+00  0.000000000E+00  1.606891387E+02  1.606891387E+02  0.000000000E+00  0.00000E+00  9.000E+00
       2    -1     0     0   501     0  0.000000000E+00  0.000000000E+00 -9.586806001E+02  9.586806001E+02  0.000000000E+00  0.00000E+00  9.000E+00
      25     1     1     2     0     0  1.293360325E+02 -9.662425747E+01  3.889979340E+01  2.078515104E+02  1.250000000E+02  0.00000E+00  9.000E+00
      25     1     1     2     0     0 -1.906157585E+02  1.539392612E+02 -5.953600742E+02  6.558279359E+02  1.250000000E+02  0.00000E+00  9.000E+00
       2     1     1     2   502     0  6.127972597E+01 -5.731500372E+01 -2.415311806E+02  2.556902925E+02  3.814697266E-06  0.00000E+00  9.000E+00
#rwgt            1           1  0.18468222136981163               10       62943           0
</event>
<event>
      5   9999  3.79277E-02  5.29592E+01 -1.00000E+00  1.37666E-01
       2    -1     0     0   502     0  0.000000000E+00  0.000000000E+00  1.678519553E+02  1.678519553E+02  0.000000000E+00  0.00000E+00  9.000E+00
      21    -1     0     0   501   502  0.000000000E+00  0.000000000E+00 -6.448676648E+02  6.448676648E+02  0.000000000E+00  0.00000E+00  9.000E+00
      25     1     1     2     0     0 -1.102364066E+02 -5.713901016E+01 -2.070680114E+02  2.718806597E+02  1.250000000E+02  0.00000E+00  9.000E+00
      25     1     1     2     0     0  1.449254888E+02  1.712214547E+01 -3.760256696E+02  4.222758215E+02  1.250000000E+02  0.00000E+00  9.000E+00
       2     1     1     2   501     0 -3.468908227E+01  4.001686469E+01  1.060779715E+02  1.185631390E+02  2.336015456E-06  0.00000E+00  9.000E+00
#rwgt            1           1   4.3134011117287201E-002          10       63019           0
</event>
<event>
      5   9999  3.79277E-02  1.88124E+01 -1.00000E+00  1.68593E-01
      21    -1     0     0   502   511  0.000000000E+00  0.000000000E+00  3.981126645E+02  3.981126645E+02  0.000000000E+00  0.00000E+00  9.000E+00
      21    -1     0     0   501   502  0.000000000E+00  0.000000000E+00 -4.925473513E+02  4.925473513E+02  0.000000000E+00  0.00000E+00  9.000E+00
      25     1     1     2     0     0  8.652747301E+01  2.311197270E+02 -3.129590556E+02  4.176980994E+02  1.250000000E+02  0.00000E+00  9.000E+00
      25     1     1     2     0     0 -6.822325992E+01 -2.354629525E+02  2.256360839E+01  2.761002203E+02  1.250000000E+02  0.00000E+00  9.000E+00
      21     1     1     2   501   511 -1.830421309E+01  4.343225577E+00  1.959607604E+02  1.968616962E+02  0.000000000E+00  0.00000E+00  9.000E+00
#rwgt            1           1   4.0305922756617235E-002          10       63186           0
</event>
<event>
      5   9999  3.79277E-02  6.74807E+00 -1.00000E+00  2.17828E-01
      21    -1     0     0   512   501  0.000000000E+00  0.000000000E+00  1.143920745E+03  1.143920745E+03  0.000000000E+00  0.00000E+00  9.000E+00
      21    -1     0     0   501   502  0.000000000E+00  0.000000000E+00 -5.385379938E+01  5.385379938E+01  0.000000000E+00  0.00000E+00  9.000E+00
      25     1     1     2     0     0  2.021141584E+02 -1.831301284E+01  4.324624974E+02  4.937958193E+02  1.250000000E+02  0.00000E+00  9.000E+00
      25     1     1     2     0     0 -2.088207794E+02  1.905980896E+01  6.322659407E+02  6.777570464E+02  1.250000000E+02  0.00000E+00  9.000E+00
      21     1     1     2   512   502  6.706620938E+00 -7.467961279E-01  2.533850761E+01  2.622167876E+01  4.768371582E-07  0.00000E+00  9.000E+00
#rwgt            1           1   8.5116178280014249E-002          10       63356           0
</event>
<event>
      5   9999  3.79277E-02  7.87834E+01 -1.00000E+00  1.28672E-01
      21    -1     0     0   502   501  0.000000000E+00  0.000000000E+00  5.554239145E+02  5.554239145E+02  0.000000000E+00  0.00000E+00  9.000E+00
      21    -1     0     0   501   511  0.000000000E+00  0.000000000E+00 -7.228728550E+01  7.228728550E+01  0.000000000E+00  0.00000E+00  9.000E+00
      25     1     1     2     0     0 -2.338587863E+01  5.364038247E+01  2.485924043E+02  2.843367254E+02  1.250000000E+02  0.00000E+00  9.000E+00
      25     1     1     2     0     0  1.021679222E+02 -5.410938474E+01  1.409697495E+02  2.210510803E+02  1.250000000E+02  0.00000E+00  9.000E+00
      21     1     1     2   502   511 -7.878204362E+01  4.690022621E-01  9.357447523E+01  1.223233942E+02  1.348699152E-06  0.00000E+00  9.000E+00
#rwgt            1           1   3.6685854704292191E-002          10       63848           0
</event>
<event>
      5   9999  3.79277E-02  1.60364E+01 -1.00000E+00  1.74693E-01
      21    -1     0     0   512   501  0.000000000E+00  0.000000000E+00  1.918787853E+02  1.918787853E+02  0.000000000E+00  0.00000E+00  9.000E+00
      21    -1     0     0   501   502  0.000000000E+00  0.000000000E+00 -1.799749091E+03  1.799749091E+03  0.000000000E+00  0.00000E+00  9.000E+00
      25     1     1     2     0     0  1.030500326E+02  8.953821453E+00 -1.304800643E+03  1.314849496E+03  1.250000000E+02  0.00000E+00  9.000E+00
      25     1     1     2     0     0 -1.096511444E+02 -2.356853620E+01 -4.751483042E+02  5.039541252E+02  1.250000000E+02  0.00000E+00  9.000E+00
      21     1     1     2   512   502  6.601111777E+00  1.461471475E+01  1.720786409E+02  1.728242553E+02  5.394796609E-06  0.00000E+00  9.000E+00
#rwgt            1           1   4.4232772905173211E-002          10       63904           0
</event>
<event>
      5   9999 -3.79277E-02  4.95667E+01 -1.00000E+00  1.39292E-01
      21    -1     0     0   502   501  0.000000000E+00  0.000000000E+00  2.471475466E+02  2.471475466E+02  0.000000000E+00  0.00000E+00  9.000E+00
      21    -1     0     0   501   511  0.000000000E+00  0.000000000E+00 -8.558787244E+02  8.558787244E+02  0.000000000E+00  0.00000E+00  9.000E+00
      25     1     1     2     0     0  3.338761765E+02  1.685234832E+01 -2.343978881E+02  4.269949330E+02  1.250000000E+02  0.00000E+00  9.000E+00
      25     1     1     2     0     0 -2.902284426E+02  6.636752225E+00 -1.833986963E+01  3.166037685E+02  1.250000000E+02  0.00000E+00  9.000E+00
      21     1     1     2   502   511 -4.364773391E+01 -2.348910054E+01 -3.559934201E+02  3.594275694E+02  0.000000000E+00  0.00000E+00  9.000E+00
#rwgt            1           1  -5.0596693947724980E-002          10       64128           0
</event>
<event>
      5   9999  3.79277E-02  1.93068E+02 -1.00000E+00  1.12209E-01
      21    -1     0     0   512   501  0.000000000E+00  0.000000000E+00  1.497582382E+02  1.497582382E+02  0.000000000E+00  0.00000E+00  9.000E+00
      21    -1     0     0   501   502  0.000000000E+00  0.000000000E+00 -9.181772328E+02  9.181772328E+02  0.000000000E+00  0.00000E+00  9.000E+00
      25     1     1     2     0     0  1.113102614E+02  8.724151603E+01 -5.151892990E+02  5.486766536E+02  1.250000000E+02  0.00000E+00  9.000E+00
      25     1     1     2     0     0 -2.099139937E+02  7.874833686E+01 -1.120612514E+02  2.800855394E+02  1.250000000E+02  0.00000E+00  9.000E+00
      21     1     1     2   512   502  9.860373230E+01 -1.659898529E+02 -1.411684441E+02  2.391732780E+02  3.303624740E-06  0.00000E+00  9.000E+00
#rwgt            1           1   3.7941436216517105E-002          10       64248           0
</event>
<event>
      5   9999  3.79277E-02  6.35951E+01 -1.00000E+00  1.33367E-01
      21    -1     0     0   511   501  0.000000000E+00  0.000000000E+00  7.125584149E+02  7.125584149E+02  0.000000000E+00  0.00000E+00  9.000E+00
      21    -1     0     0   501   502  0.000000000E+00  0.000000000E+00 -1.185603047E+02  1.185603047E+02  0.000000000E+00  0.00000E+00  9.000E+00
      25     1     1     2     0     0  4.528374779E+01 -2.369886235E+02  3.158026261E+02  4.166179594E+02  1.250000000E+02  0.00000E+00  9.000E+00
      25     1     1     2     0     0 -8.330417054E+01  1.860103963E+02  1.880617779E+02  3.041902113E+02  1.250000000E+02  0.00000E+00  9.000E+00
      21     1     1     2   511   502  3.802042275E+01  5.097822723E+01  9.013370624E+01  1.103105489E+02  9.536743164E-07  0.00000E+00  9.000E+00
#rwgt            1           1   3.8019953419882242E-002          10       64371           0
</event>
<event>
      5   9999  3.79277E-02  1.78580E+02 -1.00000E+00  1.13469E-01
      21    -1     0     0   502   501  0.000000000E+00  0.000000000E+00  2.008077901E+02  2.008077901E+02  0.000000000E+00  0.00000E+00  9.000E+00
       2    -1     0     0   501     0  0.000000000E+00  0.000000000E+00 -3.801946799E+03  3.801946799E+03  0.000000000E+00  0.00000E+00  9.000E+00
      25     1     1     2     0     0 -3.360179074E+01  7.216652767E+01  1.272744494E+02  1.953480830E+02  1.250000000E+02  0.00000E+00  9.000E+00
      25     1     1     2     0     0 -1.369370394E+02 -1.251518600E+02 -2.993593894E+02  3.737054787E+02  1.250000000E+02  0.00000E+00  9.000E+00
       2     1     1     2   502     0  1.705388302E+02  5.298533231E+01 -3.429054069E+03  3.433701027E+03  0.000000000E+00  0.00000E+00  9.000E+00
#rwgt            1           1   4.3509267102360021E-002          10       64467           0
</event>
<event>
      5   9999  3.79277E-02  1.51863E+01 -1.00000E+00  1.76880E-01
      -3    -1     0     0     0   501  0.000000000E+00  0.000000000E+00  9.537709656E+02  9.537709656E+02  0.000000000E+00  0.00000E+00  9.000E+00
      21    -1     0     0   501   502  0.000000000E+00  0.000000000E+00 -2.302806754E+02  2.302806754E+02  0.000000000E+00  0.00000E+00  9.000E+00
      25     1     1     2     0     0  1.375960907E+02  1.916809228E+02 -3.601006878E+01  2.694364218E+02  1.250000000E+02  0.00000E+00  9.000E+00
      25     1     1     2     0     0 -1.317802430E+02 -1.776523911E+02  1.308567310E+02  2.857881882E+02  1.250000000E+02  0.00000E+00  9.000E+00
      -3     1     1     2     0   502 -5.815847692E+00 -1.402853170E+01  6.286436281E+02  6.288270310E+02  1.078959322E-05  0.00000E+00  9.000E+00
#rwgt            1           1   3.9375681884506325E-002          10       64567           0
</event>
<event>
      5   9999  3.79277E-02  8.32789E+01 -1.00000E+00  1.27511E-01
      21    -1     0     0   511   501  0.000000000E+00  0.000000000E+00  9.214859144E+02  9.214859144E+02  0.000000000E+00  0.00000E+00  9.000E+00
      21    -1     0     0   501   502  0.000000000E+00  0.000000000E+00 -1.969347473E+02  1.969347473E+02  0.000000000E+00  0.00000E+00  9.000E+00
      25     1     1     2     0     0 -1.031812243E+02 -1.319684341E+02  2.483231378E+02  3.245788246E+02  1.250000000E+02  0.00000E+00  9.000E+00
      25     1     1     2     0     0  5.396481073E+01  6.478865021E+01 -1.194554216E+02  1.923651937E+02  1.250000000E+02  0.00000E+00  9.000E+00
      21     1     1     2   511   502  4.921641353E+01  6.717978393E+01  5.956834509E+02  6.014766433E+02  7.629394531E-06  0.00000E+00  9.000E+00
#rwgt            1           1   3.8171270080274058E-002          10       64784           0
</event>
<event>
      5   9999  3.79277E-02  2.04976E+01 -1.00000E+00  1.65493E-01
      21    -1     0     0   502   512  0.000000000E+00  0.000000000E+00  1.159712846E+03  1.159712846E+03  0.000000000E+00  0.00000E+00  9.000E+00
      21    -1     0     0   501   502  0.000000000E+00  0.000000000E+00 -5.804931224E+01  5.804931224E+01  0.000000000E+00  0.00000E+00  9.000E+00
      25     1     1     2     0     0 -4.679573215E+00 -1.455463737E+01  2.862448921E+01  1.291437078E+02  1.250000000E+02  0.00000E+00  9.000E+00
      25     1     1     2     0     0  9.991445536E+00  3.435204409E+01  5.492817384E+02  5.644602024E+02  1.250000000E+02  0.00000E+00  9.000E+00
      21     1     1     2   501   512 -5.311872321E+00 -1.979740672E+01  5.237573063E+02  5.241582483E+02  7.629394531E-06  0.00000E+00  9.000E+00
#rwgt            1           1   4.1746764373397964E-002          10       64851           0
</event>
<event>
      5   9999  3.79277E-02  1.77801E+01 -1.00000E+00  1.70698E-01
      21    -1     0     0   511   501  0.000000000E+00  0.000000000E+00  5.397708970E+02  5.397708970E+02  0.000000000E+00  0.00000E+00  9.000E+00
      21    -1     0     0   501   502  0.000000000E+00  0.000000000E+00 -1.162384274E+02  1.162384274E+02  0.000000000E+00  0.00000E+00  9.000E+00
      25     1     1     2     0     0 -9.328013211E+00  1.596558891E+02  3.438300385E+01  2.058742474E+02  1.250000000E+02  0.00000E+00  9.000E+00
      25     1     1     2     0     0  2.709681332E+01 -1.590218271E+02  3.266781368E+02  3.851827927E+02  1.250000000E+02  0.00000E+00  9.000E+00
      21     1     1     2   511   502 -1.776880011E+01 -6.340620782E-01  6.247132904E+01  6.495228436E+01  9.536743164E-07  0.00000E+00  9.000E+00
#rwgt            1           1   4.8102021723059191E-002          10       65191           0
</event>
<event>
      5   9999  3.79277E-02  3.51063E+00 -1.00000E+00  2.77581E-01
      21    -1     0     0   502   512  0.000000000E+00  0.000000000E+00  1.262103611E+03  1.262103611E+03  0.000000000E+00  0.00000E+00  9.000E+00
      21    -1     0     0   501   502  0.000000000E+00  0.000000000E+00 -6.043630122E+01  6.043630122E+01  0.000000000E+00  0.00000E+00  9.000E+00
      25     1     1     2     0     0  1.733674997E+02 -1.112060896E+02  6.183940609E+02  6.636710773E+02  1.250000000E+02  0.00000E+00  9.000E+00
      25     1     1     2     0     0 -1.699564197E+02  1.120361633E+02  3.397593455E+02  4.153296273E+02  1.250000000E+02  0.00000E+00  9.000E+00
      21     1     1     2   501   512 -3.411079970E+00 -8.300736522E-01  2.435139034E+02  2.435392076E+02  6.031565972E-06  0.00000E+00  9.000E+00
#rwgt            1           1   4.1081196194493318E-002          10       65427           0
</event>
<event>
      5   9999  3.79277E-02  1.26657E+02 -1.00000E+00  1.19381E-01
      21    -1     0     0   502   501  0.000000000E+00  0.000000000E+00  1.296816638E+03  1.296816638E+03  0.000000000E+00  0.00000E+00  9.000E+00
       2    -1     0     0   501     0  0.000000000E+00  0.000000000E+00 -8.974858913E+02  8.974858913E+02  0.000000000E+00  0.00000E+00  9.000E+00
      25     1     1     2     0     0  1.218117920E+02  2.763451226E+02  6.972419985E+02  7.700494425E+02  1.250000000E+02  0.00000E+00  9.000E+00
      25     1     1     2     0     0  2.313402489E+00 -2.511495562E+02  5.230718095E+02  5.935575535E+02  1.250000000E+02  0.00000E+00  9.000E+00
       2     1     1     2   502     0 -1.241251945E+02 -2.519556639E+01 -8.209830618E+02  8.306955328E+02  1.078959322E-05  0.00000E+00  9.000E+00
#rwgt            1           1   2.6911109243779090E-002          10       65992           0
</event>
<event>
      5   9999  3.79277E-02  2.22890E+01 -1.00000E+00  1.62577E-01
      21    -1     0     0   502   501  0.000000000E+00  0.000000000E+00  1.473739296E+02  1.473739296E+02  0.000000000E+00  0.00000E+00  9.000E+00
       2    -1     0     0   501     0  0.000000000E+00  0.000000000E+00 -8.842311360E+02  8.842311360E+02  0.000000000E+00  0.00000E+00  9.000E+00
      25     1     1     2     0     0  1.285057811E+02 -5.321277833E+01 -3.572136877E+02  4.032021258E+02  1.250000000E+02  0.00000E+00  9.000E+00
      25     1     1     2     0     0 -1.146752108E+02  3.573376965E+01  6.355898136E+01  1.846403271E+02  1.250000000E+02  0.00000E+00  9.000E+00
       2     1     1     2   502     0 -1.383057028E+01  1.747900868E+01 -4.432025001E+02  4.437626128E+02  0.000000000E+00  0.00000E+00  9.000E+00
#rwgt            1           1   3.4899517123459088E-002          10       66137           0
</event>
<event>
      5   9999  3.79277E-02  2.56842E+01 -1.00000E+00  1.57878E-01
      21    -1     0     0   502   501  0.000000000E+00  0.000000000E+00  7.620940256E+01  7.620940256E+01  0.000000000E+00  0.00000E+00  9.000E+00
       2    -1     0     0   501     0  0.000000000E+00  0.000000000E+00 -4.451089262E+03  4.451089262E+03  0.000000000E+00  0.00000E+00  9.000E+00
      25     1     1     2     0     0  1.040374105E+02 -4.994118239E+01 -2.025624477E+02  2.645268412E+02  1.250000000E+02  0.00000E+00  9.000E+00
      25     1     1     2     0     0 -9.406107180E+01  2.627363316E+01 -9.402870577E+01  1.844022411E+02  1.250000000E+02  0.00000E+00  9.000E+00
       2     1     1     2   502     0 -9.976338748E+00  2.366754922E+01 -4.078288706E+03  4.078369582E+03  8.631674575E-05  0.00000E+00  9.000E+00
#rwgt            1           1   3.9449878413760693E-002          10       66321           0
</event>
<event>
      5   9999  3.79277E-02  1.06458E+02 -1.00000E+00  1.22618E-01
      21    -1     0     0   502   511  0.000000000E+00  0.000000000E+00  2.618245530E+02  2.618245530E+02  0.000000000E+00  0.00000E+00  9.000E+00
      21    -1     0     0   501   502  0.000000000E+00  0.000000000E+00 -4.818540057E+02  4.818540057E+02  0.000000000E+00  0.00000E+00  9.000E+00
      25     1     1     2     0     0  1.984759359E+02  9.762560891E+01 -3.152842097E+02  4.049105945E+02  1.250000000E+02  0.00000E+00  9.000E+00
      25     1     1     2     0     0 -9.219442945E+01 -1.037511846E+02 -1.261544069E+01  1.872118332E+02  1.250000000E+02  0.00000E+00  9.000E+00
      21     1     1     2   501   511 -1.062815065E+02  6.125575713E+00  1.078701977E+02  1.515561310E+02  3.015782986E-06  0.00000E+00  9.000E+00
#rwgt            1           1   3.6216295345974432E-002          10       66436           0
</event>
<event>
      5   9999  3.79277E-02  9.46657E+01 -1.00000E+00  1.24908E-01
      21    -1     0     0   502   501  0.000000000E+00  0.000000000E+00  4.582551892E+02  4.582551892E+02  0.000000000E+00  0.00000E+00  9.000E+00
      21    -1     0     0   501   512  0.000000000E+00  0.000000000E+00 -1.212181207E+02  1.212181207E+02  0.000000000E+00  0.00000E+00  9.000E+00
      25     1     1     2     0     0  1.053497009E+02  2.580426375E+01  6.205672982E+01  1.767497022E+02  1.250000000E+02  0.00000E+00  9.000E+00
      25     1     1     2     0     0 -7.467519744E+01 -1.153624877E+02  2.360088172E+02  3.003498801E+02  1.250000000E+02  0.00000E+00  9.000E+00
      21     1     1     2   502   512 -3.067450342E+01  8.955822392E+01  3.897152151E+01  1.023737277E+02  4.768371582E-07  0.00000E+00  9.000E+00
#rwgt            1           1   4.9397533540245342E-002          10       66564           0
</event>
<event>
      5   9999  3.79277E-02  6.22493E+01 -1.00000E+00  1.33855E-01
      21    -1     0     0   502   501  0.000000000E+00  0.000000000E+00  2.808478056E+01  2.808478056E+01  0.000000000E+00  0.00000E+00  9.000E+00
       2    -1     0     0   501     0  0.000000000E+00  0.000000000E+00 -2.502614829E+03  2.502614829E+03  0.000000000E+00  0.00000E+00  9.000E+00
      25     1     1     2     0     0  1.917236813E+02  5.995877176E+01 -7.161400833E+02  7.542112723E+02  1.250000000E+02  0.00000E+00  9.000E+00
      25     1     1     2     0     0 -1.385557865E+02 -2.758370024E+01 -1.412681281E+03  1.425219972E+03  1.250000000E+02  0.00000E+00  9.000E+00
       2     1     1     2   502     0 -5.316789475E+01 -3.237507152E+01 -3.457086840E+02  3.512683654E+02  3.814697266E-06  0.00000E+00  9.000E+00
#rwgt            1           1   9.6421781794590961E-002          10       66614           0
</event>
<event>
      5   9999  3.79277E-02  5.11375E+01 -1.00000E+00  1.38520E-01
      21    -1     0     0   511   501  0.000000000E+00  0.000000000E+00  2.465285181E+02  2.465285181E+02  0.000000000E+00  0.00000E+00  9.000E+00
      21    -1     0     0   501   502  0.000000000E+00  0.000000000E+00 -3.496946730E+02  3.496946730E+02  0.000000000E+00  0.00000E+00  9.000E+00
      25     1     1     2     0     0 -6.283314242E+01  2.781392750E+01  1.491180155E+02  2.063560053E+02  1.250000000E+02  0.00000E+00  9.000E+00
      25     1     1     2     0     0  1.126910049E+02 -1.644563676E+01 -2.833937929E+02  3.300102474E+02  1.250000000E+02  0.00000E+00  9.000E+00
      21     1     1     2   511   502 -4.985786245E+01 -1.136829074E+01  3.110962238E+01  5.985693851E+01  8.920806376E-07  0.00000E+00  9.000E+00
#rwgt            1           1   4.7592741534449007E-002          10       66735           0
</event>
<event>
      5   9999  3.79277E-02  1.27288E+02 -1.00000E+00  1.19291E-01
      21    -1     0     0   502   501  0.000000000E+00  0.000000000E+00  4.273825494E+01  4.273825494E+01  0.000000000E+00  0.00000E+00  9.000E+00
       2    -1     0     0   501     0  0.000000000E+00  0.000000000E+00 -2.644839850E+03  2.644839850E+03  0.000000000E+00  0.00000E+00  9.000E+00
      25     1     1     2     0     0 -3.512254681E+01  9.292069445E+01 -2.456931876E+02  2.930153429E+02  1.250000000E+02  0.00000E+00  9.000E+00
      25     1     1     2     0     0  1.616090250E+02 -1.071869990E+02 -7.902850570E+02  8.232751673E+02  1.250000000E+02  0.00000E+00  9.000E+00
       2     1     1     2   502     0 -1.264864782E+02  1.426630460E+01 -1.566123351E+03  1.571287595E+03  2.157918644E-05  0.00000E+00  9.000E+00
#rwgt            1           1   3.7145658233259507E-002          10       66863           0
</event>
<event>
      5   9999  3.79277E-02  3.17843E+01 -1.00000E+00  1.51317E-01
      21    -1     0     0   502   511  0.000000000E+00  0.000000000E+00  2.414065936E+02  2.414065936E+02  0.000000000E+00  0.00000E+00  9.000E+00
      21    -1     0     0   501   502  0.000000000E+00  0.000000000E+00 -6.875665574E+02  6.875665574E+02  0.000000000E+00  0.00000E+00  9.000E+00
      25     1     1     2     0     0  3.609974936E+02  4.095801292E+01 -2.277144015E+02  4.466269113E+02  1.250000000E+02  0.00000E+00  9.000E+00
      25     1     1     2     0     0 -3.421168908E+02 -6.652685781E+01 -2.423945192E+02  4.425493110E+02  1.250000000E+02  0.00000E+00  9.000E+00
      21     1     1     2   501   511 -1.888060281E+01  2.556884489E+01  2.394895688E+01  3.979692862E+01  4.768371582E-07  0.00000E+00  9.000E+00
#rwgt            1           1   3.7170325659237696E-002          10       66961           0
</event>
<event>
      5   9999  3.79277E-02  6.11496E+01 -1.00000E+00  1.34264E-01
      21    -1     0     0   502   501  0.000000000E+00  0.000000000E+00  1.075694779E+03  1.075694779E+03  0.000000000E+00  0.00000E+00  9.000E+00
      21    -1     0     0   512   502  0.000000000E+00  0.000000000E+00 -1.047432231E+02  1.047432231E+02  0.000000000E+00  0.00000E+00  9.000E+00
      25     1     1     2     0     0 -4.988648610E+01 -1.685175767E+02  4.334896423E+02  4.841746638E+02  1.250000000E+02  0.00000E+00  9.000E+00
      25     1     1     2     0     0  5.629792172E+01  2.293301586E+02  5.681549741E+02  6.278430156E+02  1.250000000E+02  0.00000E+00  9.000E+00
      21     1     1     2   512   501 -6.411435615E+00 -6.081258184E+01 -3.069306039E+01  6.842032280E+01  1.305872339E-06  0.00000E+00  9.000E+00
#rwgt            1           1   4.7254169847554164E-002          10       67325           0
</event>
<event>
      5   9999  3.79277E-02  5.55768E+01 -1.00000E+00  1.36505E-01
      21    -1     0     0   502   501  0.000000000E+00  0.000000000E+00  4.492109202E+02  4.492109202E+02  0.000000000E+00  0.00000E+00  9.000E+00
      21    -1     0     0   511   502  0.000000000E+00  0.000000000E+00 -2.346784285E+02  2.346784285E+02  0.000000000E+00  0.00000E+00  9.000E+00
      25     1     1     2     0     0 -1.525407788E+02  7.550866566E+01 -1.041816591E+02  2.354762533E+02  1.250000000E+02  0.00000E+00  9.000E+00
      25     1     1     2     0     0  1.144253820E+02 -3.506123640E+01  3.457268768E+02  3.866193628E+02  1.250000000E+02  0.00000E+00  9.000E+00
      21     1     1     2   511   501  3.811539683E+01 -4.044742926E+01 -2.701272605E+01  6.179373251E+01  8.259061849E-07  0.00000E+00  9.000E+00
#rwgt            1           1   4.7989486625794511E-002          10       67409           0
</event>
<event>
      5   9999  3.79277E-02  1.70686E+02 -1.00000E+00  1.14213E-01
      21    -1     0     0   502   501  0.000000000E+00  0.000000000E+00  5.274160412E+02  5.274160412E+02  0.000000000E+00  0.00000E+00  9.000E+00
      21    -1     0     0   512   502  0.000000000E+00  0.000000000E+00 -2.676186786E+02  2.676186786E+02  0.000000000E+00  0.00000E+00  9.000E+00
      25     1     1     2     0     0  1.349030687E+02 -5.744952233E+00 -1.346340973E+02  2.279982074E+02  1.250000000E+02  0.00000E+00  9.000E+00
      25     1     1     2     0     0  2.700986856E+01  5.976267728E+01  3.682192910E+02  3.943495364E+02  1.250000000E+02  0.00000E+00  9.000E+00
      21     1     1     2   512   501 -1.619129373E+02 -5.401772505E+01  2.621216888E+01  1.726869760E+02  3.662655710E-06  0.00000E+00  9.000E+00
#rwgt            2          11   2.7441620640965602E-003          10       67641           0
</event>
<event>
      5   9999  3.79277E-02  2.79780E+01 -1.00000E+00  1.55175E-01
      21    -1     0     0   502   501  0.000000000E+00  0.000000000E+00  1.863966845E+03  1.863966845E+03  0.000000000E+00  0.00000E+00  9.000E+00
      21    -1     0     0   511   502  0.000000000E+00  0.000000000E+00 -2.767731416E+02  2.767731416E+02  0.000000000E+00  0.00000E+00  9.000E+00
      25     1     1     2     0     0 -5.624023965E+02 -3.061818596E+02  4.830768609E+02  8.118078838E+02  1.250000000E+02  0.00000E+00  9.000E+00
      25     1     1     2     0     0  5.873976188E+02  3.187519796E+02  1.108712109E+03  1.300579228E+03  1.250000000E+02  0.00000E+00  9.000E+00
      21     1     1     2   511   501 -2.499522231E+01 -1.257011998E+01 -4.595266349E+00  2.835287512E+01  3.209808354E-07  0.00000E+00  9.000E+00
#rwgt            1           1   2.0446086408798032E-002          10       67691           0
</event>
<event>
      5   9999  3.79277E-02  2.51532E+01 -1.00000E+00  1.58552E-01
      21    -1     0     0   512   501  0.000000000E+00  0.000000000E+00  2.169361439E+02  2.169361439E+02  0.000000000E+00  0.00000E+00  9.000E+00
      21    -1     0     0   501   502  0.000000000E+00  0.000000000E+00 -7.578973008E+02  7.578973008E+02  0.000000000E+00  0.00000E+00  9.000E+00
      25     1     1     2     0     0 -1.518525050E+01  3.251519336E+02 -4.503915477E+02  5.695892538E+02  1.250000000E+02  0.00000E+00  9.000E+00
      25     1     1     2     0     0 -4.181138284E+00 -3.091012536E+02 -1.304824739E+02  3.580666738E+02  1.250000000E+02  0.00000E+00  9.000E+00
      21     1     1     2   512   502  1.936638879E+01 -1.605067998E+01  3.991286471E+01  4.717751702E+01  4.768371582E-07  0.00000E+00  9.000E+00
#rwgt            1           1   3.8442117661097459E-002          10       67874           0
</event>
<event>
      5   9999  3.79277E-02  9.59218E+01 -1.00000E+00  1.24647E-01
      21    -1     0     0   502   501  0.000000000E+00  0.000000000E+00  1.246013268E+02  1.246013268E+02  0.000000000E+00  0.00000E+00  9.000E+00
      21    -1     0     0   501   511  0.000000000E+00  0.000000000E+00 -1.242863470E+03  1.242863470E+03  0.000000000E+00  0.00000E+00  9.000E+00
      25     1     1     2     0     0  1.120907040E+01  1.005568889E+02  1.822753475E+01  1.618473793E+02  1.250000000E+02  0.00000E+00  9.000E+00
      25     1     1     2     0     0  7.447906581E+01 -1.436677144E+02 -2.965273402E+02  3.601957896E+02  1.250000000E+02  0.00000E+00  9.000E+00
      21     1     1     2   502   511 -8.568813621E+01  4.311082548E+01 -8.399623379E+02  8.454216280E+02  0.000000000E+00  0.00000E+00  9.000E+00
#rwgt            1           1   3.5783717884447896E-002          10       68066           0
</event>
<event>
      5   9999 -3.79277E-02  3.16572E+01 -1.00000E+00  1.51435E-01
      21    -1     0     0   502   512  0.000000000E+00  0.000000000E+00  4.366933998E+02  4.366933998E+02  0.000000000E+00  0.00000E+00  9.000E+00
      21    -1     0     0   501   502  0.000000000E+00  0.000000000E+00 -1.720501855E+02  1.720501855E+02  0.000000000E+00  0.00000E+00  9.000E+00
      25     1     1     2     0     0 -8.591307960E+01 -4.009254468E+01 -1.024123649E+02  1.873546420E+02  1.250000000E+02  0.00000E+00  9.000E+00
      25     1     1     2     0     0  1.143694108E+02  2.622119674E+01  3.350825108E+02  3.763950084E+02  1.250000000E+02  0.00000E+00  9.000E+00
      21     1     1     2   501   512 -2.845633123E+01  1.387134795E+01  3.197306846E+01  4.499393501E+01  8.920806376E-07  0.00000E+00  9.000E+00
#rwgt            1           1  -2.9386088132854194E-002          10       68428           0
</event>
<event>
      5   9999  3.79277E-02  4.68042E+01 -1.00000E+00  1.40732E-01
      21    -1     0     0   502   501  0.000000000E+00  0.000000000E+00  3.802295592E+02  3.802295592E+02  0.000000000E+00  0.00000E+00  9.000E+00
      21    -1     0     0   511   502  0.000000000E+00  0.000000000E+00 -1.439438224E+03  1.439438224E+03  0.000000000E+00  0.00000E+00  9.000E+00
      25     1     1     2     0     0 -5.750296000E+01  6.787457648E+01  2.751408656E+02  3.150254663E+02  1.250000000E+02  0.00000E+00  9.000E+00
      25     1     1     2     0     0  1.036274718E+02 -5.992725462E+01 -3.643332720E+00  1.731132653E+02  1.250000000E+02  0.00000E+00  9.000E+00
      21     1     1     2   511   501 -4.612451180E+01 -7.947321856E+00 -1.330706198E+03  1.331529052E+03  1.525878906E-05  0.00000E+00  9.000E+00
#rwgt            1           1   5.1808772698514305E-002          10       68598           0
</event>
<event>
      5   9999  3.79277E-02  3.07012E+01 -1.00000E+00  1.52346E-01
      21    -1     0     0   502   501  0.000000000E+00  0.000000000E+00  4.776349238E+01  4.776349238E+01  0.000000000E+00  0.00000E+00  9.000E+00
      21    -1     0     0   512   502  0.000000000E+00  0.000000000E+00 -1.679030194E+03  1.679030194E+03  0.000000000E+00  0.00000E+00  9.000E+00
      25     1     1     2     0     0  2.404711087E+02 -6.770154131E+01 -8.713888260E+02  9.150701279E+02  1.250000000E+02  0.00000E+00  9.000E+00
      25     1     1     2     0     0 -2.145903403E+02  5.118646998E+01 -6.522640073E+02  6.998159787E+02  1.250000000E+02  0.00000E+00  9.000E+00
      21     1     1     2   512   501 -2.588076845E+01  1.651507133E+01 -1.076138681E+02  1.119075796E+02  1.348699152E-06  0.00000E+00  9.000E+00
#rwgt            1           1   4.9178427081951505E-002          10       68970           0
</event>
<event>
      5   9999  3.79277E-02  9.92685E+00 -1.00000E+00  1.96126E-01
      21    -1     0     0   502   501  0.000000000E+00  0.000000000E+00  6.513521867E+01  6.513521867E+01  0.000000000E+00  0.00000E+00  9.000E+00
      21    -1     0     0   501   511  0.000000000E+00  0.000000000E+00 -1.773437726E+03  1.773437726E+03  0.000000000E+00  0.00000E+00  9.000E+00
      25     1     1     2     0     0  5.061267109E+01  2.357577422E+02 -1.349130967E+03  1.376198649E+03  1.250000000E+02  0.00000E+00  9.000E+00
      25     1     1     2     0     0 -5.999412559E+01 -2.325126405E+02 -3.071902406E+02  4.094536201E+02  1.250000000E+02  0.00000E+00  9.000E+00
      21     1     1     2   502   511  9.381454498E+00 -3.245101689E+00 -5.198129994E+01  5.292067570E+01  9.536743164E-07  0.00000E+00  9.000E+00
#rwgt            1           1   3.5069143256287752E-002          10       69193           0
</event>
<event>
      5   9999  3.79277E-02  1.45689E+01 -1.00000E+00  1.78585E-01
      21    -1     0     0   502   512  0.000000000E+00  0.000000000E+00  1.390653662E+03  1.390653662E+03  0.000000000E+00  0.00000E+00  9.000E+00
      21    -1     0     0   501   502  0.000000000E+00  0.000000000E+00 -3.841171520E+01  3.841171520E+01  0.000000000E+00  0.00000E+00  9.000E+00
      25     1     1     2     0     0  1.559282283E+02 -4.000679373E+01  6.340331547E+02  6.659858836E+02  1.250000000E+02  0.00000E+00  9.000E+00
      25     1     1     2     0     0 -1.652457628E+02  5.120662409E+01  4.907314311E+02  5.351360743E+02  1.250000000E+02  0.00000E+00  9.000E+00
      21     1     1     2   501   512  9.317534528E+00 -1.119983036E+01  2.274773612E+02  2.279434195E+02  2.697398305E-06  0.00000E+00  9.000E+00
#rwgt            1           1   3.2740490608385700E-002          10       69430           0
</event>
<event>
      5   9999  3.79277E-02  4.38771E+01 -1.00000E+00  1.42392E-01
      -2    -1     0     0     0   501  0.000000000E+00  0.000000000E+00  6.367544526E+01  6.367544526E+01  0.000000000E+00  0.00000E+00  9.000E+00
      21    -1     0     0   501   502  0.000000000E+00  0.000000000E+00 -1.133336462E+03  1.133336462E+03  0.000000000E+00  0.00000E+00  9.000E+00
      25     1     1     2     0     0  1.177357837E+02  1.235506710E+02 -4.448293190E+02  4.925693922E+02  1.250000000E+02  0.00000E+00  9.000E+00
      25     1     1     2     0     0 -7.486974779E+01 -1.141858595E+02 -6.332603189E+02  6.597632311E+02  1.250000000E+02  0.00000E+00  9.000E+00
      -2     1     1     2     0   502 -4.286603586E+01 -9.364811517E+00  8.428621497E+00  4.467928363E+01  1.608221240E-06  0.00000E+00  9.000E+00
#rwgt            1           1   1.1315265175650319E-002          10       69751           0
</event>
<event>
      5   9999  3.79277E-02  6.69318E+00 -1.00000E+00  2.18342E-01
      21    -1     0     0   511   501  0.000000000E+00  0.000000000E+00  1.252741336E+01  1.252741336E+01  0.000000000E+00  0.00000E+00  9.000E+00
      21    -1     0     0   501   502  0.000000000E+00  0.000000000E+00 -2.580708230E+03  2.580708230E+03  0.000000000E+00  0.00000E+00  9.000E+00
      25     1     1     2     0     0  3.380554028E+01  1.130330946E+02 -1.047010345E+03  1.061025428E+03  1.250000000E+02  0.00000E+00  9.000E+00
      25     1     1     2     0     0 -4.049811047E+01 -1.131237903E+02 -1.500475452E+03  1.510459755E+03  1.250000000E+02  0.00000E+00  9.000E+00
      21     1     1     2   511   502  6.692570190E+00  9.069565483E-02 -2.069501911E+01  2.175046063E+01  2.384185791E-07  0.00000E+00  9.000E+00
#rwgt            1           1   5.1633750109985194E-002          10       69919           0
</event>
<event>
      5   9999  3.79277E-02  3.77942E+01 -1.00000E+00  1.46385E-01
      21    -1     0     0   502   512  0.000000000E+00  0.000000000E+00  7.177820060E+02  7.177820060E+02  0.000000000E+00  0.00000E+00  9.000E+00
      21    -1     0     0   501   502  0.000000000E+00  0.000000000E+00 -1.449878276E+02  1.449878276E+02  0.000000000E+00  0.00000E+00  9.000E+00
      25     1     1     2     0     0 -1.650938162E+02 -1.060370940E+02  9.273183520E+01  2.504476526E+02  1.250000000E+02  0.00000E+00  9.000E+00
      25     1     1     2     0     0  1.985472376E+02  1.236231387E+02  2.063672885E+02  3.360299745E+02  1.250000000E+02  0.00000E+00  9.000E+00
      21     1     1     2   501   512 -3.345342133E+01 -1.758604476E+01  2.736950547E+02  2.762922065E+02  0.000000000E+00  0.00000E+00  9.000E+00
#rwgt            1           1   2.6030743930220854E-002          10       70352           0
</event>
<event>
      5   9999  3.79277E-02  1.18912E+02 -1.00000E+00  1.20536E-01
      21    -1     0     0   511   501  0.000000000E+00  0.000000000E+00  1.011410355E+03  1.011410355E+03  0.000000000E+00  0.00000E+00  9.000E+00
      21    -1     0     0   501   502  0.000000000E+00  0.000000000E+00 -8.620002853E+01  8.620002853E+01  0.000000000E+00  0.00000E+00  9.000E+00
      25     1     1     2     0     0  2.306656853E+02  2.470467329E+01  2.905730839E+02  3.922686533E+02  1.250000000E+02  0.00000E+00  9.000E+00
      25     1     1     2     0     0 -1.162835581E+02  7.803160162E+00  2.506955455E+02  3.034073363E+02  1.250000000E+02  0.00000E+00  9.000E+00
      21     1     1     2   511   502 -1.143821272E+02 -3.250783345E+01  3.839416974E+02  4.019343942E+02  7.629394531E-06  0.00000E+00  9.000E+00
#rwgt            1           1   4.2095095921393155E-002          10       70519           0
</event>
<event>
      5   9999  3.79277E-02  3.27212E+01 -1.00000E+00  1.50466E-01
      21    -1     0     0   502   501  0.000000000E+00  0.000000000E+00  3.291326776E+02  3.291326776E+02  0.000000000E+00  0.00000E+00  9.000E+00
      21    -1     0     0   501   512  0.000000000E+00  0.000000000E+00 -1.532199207E+02  1.532199207E+02  0.000000000E+00  0.00000E+00  9.000E+00
      25     1     1     2     0     0 -7.828946240E+00 -1.559897168E+02  1.815342665E+02  2.701365841E+02  1.250000000E+02  0.00000E+00  9.000E+00
      25     1     1     2     0     0  2.050810575E+01  1.258249293E+02 -1.173777414E+01  1.789281157E+02  1.250000000E+02  0.00000E+00  9.000E+00
      21     1     1     2   502   512 -1.267915951E+01  3.016478752E+01  6.116264604E+00  3.328789848E+01  5.654593098E-07  0.00000E+00  9.000E+00
#rwgt            1           1   3.6513681405072829E-002          10       70632           0
</event>
<event>
      5   9999  3.79277E-02  6.05517E+01 -1.00000E+00  1.34491E-01
      21    -1     0     0   502   501  0.000000000E+00  0.000000000E+00  3.845621110E+02  3.845621110E+02  0.000000000E+00  0.00000E+00  9.000E+00
      21    -1     0     0   511   502  0.000000000E+00  0.000000000E+00 -7.796038070E+02  7.796038070E+02  0.000000000E+00  0.00000E+00  9.000E+00
      25     1     1     2     0     0  1.671903060E+01 -2.047901435E+02  3.010989744E+02  3.853623246E+02  1.250000000E+02  0.00000E+00  9.000E+00
      25     1     1     2     0     0 -5.458391899E+01  1.575380769E+02 -2.365601178E+02  3.152512319E+02  1.250000000E+02  0.00000E+00  9.000E+00
      21     1     1     2   511   501  3.786488840E+01  4.725206658E+01 -4.595805526E+02  4.635523615E+02  5.394796609E-06  0.00000E+00  9.000E+00
#rwgt            1           1   3.8010467610461354E-002          10       70774           0
</event>
<event>
      5   9999 -3.79277E-02  3.58136E+01 -1.00000E+00  1.47882E-01
      21    -1     0     0   502   512  0.000000000E+00  0.000000000E+00  8.149365363E+01  8.149365363E+01  0.000000000E+00  0.00000E+00  9.000E+00
      21    -1     0     0   501   502  0.000000000E+00  0.000000000E+00 -8.539927611E+02  8.539927611E+02  0.000000000E+00  0.00000E+00  9.000E+00
      25     1     1     2     0     0 -1.686281810E+02  1.476443854E+00 -2.534403831E+02  3.290815569E+02  1.250000000E+02  0.00000E+00  9.000E+00
      25     1     1     2     0     0  2.024156601E+02  1.039861465E+01 -5.185215586E+02  5.705872741E+02  1.250000000E+02  0.00000E+00  9.000E+00
      21     1     1     2   501   512 -3.378747911E+01 -1.187505850E+01 -5.371658242E-01  3.581758376E+01  5.175874958E-07  0.00000E+00  9.000E+00
#rwgt            1           1 -0.21153073783270337               10       70864           0
</event>
<event>
      5   9999  3.79277E-02  8.54629E+01 -1.00000E+00  1.26976E-01
      21    -1     0     0   502   511  0.000000000E+00  0.000000000E+00  3.201851576E+02  3.201851576E+02  0.000000000E+00  0.00000E+00  9.000E+00
      21    -1     0     0   501   502  0.000000000E+00  0.000000000E+00 -2.437011784E+02  2.437011784E+02  0.000000000E+00  0.00000E+00  9.000E+00
      25     1     1     2     0     0  9.908124399E+00  8.779088510E+01  1.660485068E+02  2.258373686E+02  1.250000000E+02  0.00000E+00  9.000E+00
      25     1     1     2     0     0 -5.700504783E+01 -1.591056281E+02 -1.260676705E+02  2.451167761E+02  1.250000000E+02  0.00000E+00  9.000E+00
      21     1     1     2   501   511  4.709692343E+01  7.131474297E+01  3.650314290E+01  9.293219142E+01  9.536743164E-07  0.00000E+00  9.000E+00
#rwgt            1           1   3.9095016634502877E-002          10       70982           0
</event>
<event>
      5   9999  3.79277E-02  6.32509E+01 -1.00000E+00  1.33490E-01
      21    -1     0     0   512   501  0.000000000E+00  0.000000000E+00  5.924201610E+02  5.924201610E+02  0.000000000E+00  0.00000E+00  9.000E+00
      21    -1     0     0   501   502  0.000000000E+00  0.000000000E+00 -4.026406043E+02  4.026406043E+02  0.000000000E+00  0.00000E+00  9.000E+00
      25     1     1     2     0     0  9.294244944E+01  7.270127577E+01 -1.044351024E+01  1.722145212E+02  1.250000000E+02  0.00000E+00  9.000E+00
      25     1     1     2     0     0 -1.508267860E+02 -4.720452731E+01 -2.763963899E+02  3.420481708E+02  1.250000000E+02  0.00000E+00  9.000E+00
      21     1     1     2   512   502  5.788433654E+01 -2.549674846E+01  4.766194569E+02  4.807980733E+02  0.000000000E+00  0.00000E+00  9.000E+00
#rwgt            1           1   4.2858889155819258E-002          10       71106           0
</event>
<event>
      5   9999  3.79277E-02  3.87390E+01 -1.00000E+00  1.45708E-01
       2    -1     0     0   502     0  0.000000000E+00  0.000000000E+00  1.527081416E+03  1.527081416E+03  0.000000000E+00  0.00000E+00  9.000E+00
      21    -1     0     0   501   502  0.000000000E+00  0.000000000E+00 -2.275984699E+02  2.275984699E+02  0.000000000E+00  0.00000E+00  9.000E+00
      25     1     1     2     0     0 -8.962811037E+01  1.540858546E+02 -1.322066699E+02  2.547140599E+02  1.250000000E+02  0.00000E+00  9.000E+00
      25     1     1     2     0     0  5.146310986E+01 -1.474419335E+02  2.619808519E+02  3.296157493E+02  1.250000000E+02  0.00000E+00  9.000E+00
       2     1     1     2   501     0  3.816500051E+01 -6.643921115E+00  1.169708764E+03  1.170350077E+03  2.157918644E-05  0.00000E+00  9.000E+00
#rwgt            1           1   4.4453923414301398E-002          10       71187           0
</event>
<event>
      5   9999  3.79277E-02  6.22995E+01 -1.00000E+00  1.33836E-01
      21    -1     0     0   502   501  0.000000000E+00  0.000000000E+00  7.102595341E+01  7.102595341E+01  0.000000000E+00  0.00000E+00  9.000E+00
      -5    -1     0     0     0   502  0.000000000E+00  0.000000000E+00 -9.672910332E+02  9.672910332E+02  0.000000000E+00  0.00000E+00  9.000E+00
      25     1     1     2     0     0 -4.383909530E+01 -1.576304816E+02 -4.937180861E+02  5.349315691E+02  1.250000000E+02  0.00000E+00  9.000E+00
      25     1     1     2     0     0  1.452050115E+00  1.119734258E+02 -1.018715917E+02  1.963236555E+02  1.250000000E+02  0.00000E+00  9.000E+00
      -5     1     1     2     0   501  4.238704518E+01  4.565705584E+01 -3.006754019E+02  3.070617620E+02  0.000000000E+00  0.00000E+00  9.000E+00
#rwgt            1           1   4.8894511147236426E-002          10       71314           0
</event>
<event>
      5   9999  3.79277E-02  5.59314E+01 -1.00000E+00  1.36353E-01
      21    -1     0     0   502   501  0.000000000E+00  0.000000000E+00  2.864904201E+02  2.864904201E+02  0.000000000E+00  0.00000E+00  9.000E+00
      21    -1     0     0   511   502  0.000000000E+00  0.000000000E+00 -7.825211412E+02  7.825211412E+02  0.000000000E+00  0.00000E+00  9.000E+00
      25     1     1     2     0     0  7.693102984E+01  1.139191477E+02  1.452082942E+02  2.358101021E+02  1.250000000E+02  0.00000E+00  9.000E+00
      25     1     1     2     0     0 -9.067470501E+01 -5.970264151E+01  2.252169869E+01  1.670884031E+02  1.250000000E+02  0.00000E+00  9.000E+00
      21     1     1     2   511   501  1.374367517E+01 -5.421650624E+01 -6.637607139E+02  6.661130561E+02  1.078959322E-05  0.00000E+00  9.000E+00
#rwgt            1           1   4.0086250285887491E-002          10       71387           0
</event>
<event>
      5   9999  3.79277E-02  6.76282E+01 -1.00000E+00  1.31983E-01
      21    -1     0     0   512   501  0.000000000E+00  0.000000000E+00  1.807055826E+02  1.807055826E+02  0.000000000E+00  0.00000E+00  9.000E+00
      21    -1     0     0   501   502  0.000000000E+00  0.000000000E+00 -7.799474483E+02  7.799474483E+02  0.000000000E+00  0.00000E+00  9.000E+00
      25     1     1     2     0     0  7.689650165E+01 -1.446870174E+02 -3.877359197E+02  4.391031182E+02  1.250000000E+02  0.00000E+00  9.000E+00
      25     1     1     2     0     0 -1.188344000E+01  1.633117478E+02 -3.277213992E+02  3.870894711E+02  1.250000000E+02  0.00000E+00  9.000E+00
      21     1     1     2   512   502 -6.501306164E+01 -1.862473039E+01  1.162154533E+02  1.344604416E+02  2.697398305E-06  0.00000E+00  9.000E+00
#rwgt            1           1   3.1669799280477397E-002          10       71520           0
</event>
<event>
      5   9999  3.79277E-02  4.29082E+01 -1.00000E+00  1.42975E-01
      21    -1     0     0   502   511  0.000000000E+00  0.000000000E+00  3.164023196E+02  3.164023196E+02  0.000000000E+00  0.00000E+00  9.000E+00
      21    -1     0     0   501   502  0.000000000E+00  0.000000000E+00 -2.620102240E+02  2.620102240E+02  0.000000000E+00  0.00000E+00  9.000E+00
      25     1     1     2     0     0  1.533103152E+02  1.436978477E+02 -9.085287032E+01  2.608301520E+02  1.250000000E+02  0.00000E+00  9.000E+00
      25     1     1     2     0     0 -1.742299658E+02 -1.062348066E+02  1.274788681E+02  2.711416179E+02  1.250000000E+02  0.00000E+00  9.000E+00
      21     1     1     2   501   511  2.091965064E+01 -3.746304106E+01  1.776609786E+01  4.644077370E+01  5.331201500E-07  0.00000E+00  9.000E+00
#rwgt            1           1   4.3628504245115191E-002          10       71627           0
</event>
<event>
      5   9999  3.79277E-02  3.83899E+01 -1.00000E+00  1.45956E-01
      21    -1     0     0   502   501  0.000000000E+00  0.000000000E+00  1.008776023E+03  1.008776023E+03  0.000000000E+00  0.00000E+00  9.000E+00
      21    -1     0     0   501   512  0.000000000E+00  0.000000000E+00 -1.179854613E+02  1.179854613E+02  0.000000000E+00  0.00000E+00  9.000E+00
      25     1     1     2     0     0  1.428804970E+02  1.275601173E+02  7.676202190E+02  8.009695503E+02  1.250000000E+02  0.00000E+00  9.000E+00
      25     1     1     2     0     0 -1.066496260E+02 -1.402529216E+02  1.628834043E+02  2.705568852E+02  1.250000000E+02  0.00000E+00  9.000E+00
      21     1     1     2   502   512 -3.623087097E+01  1.269280432E+01 -3.971306189E+01  5.523504845E+01  8.259061849E-07  0.00000E+00  9.000E+00
#rwgt            1           1   4.5592167629975672E-002          10       71757           0
</event>
<event>
      5   9999  3.79277E-02  5.96474E+01 -1.00000E+00  1.34840E-01
      21    -1     0     0   502   501  0.000000000E+00  0.000000000E+00  2.404277665E+02  2.404277665E+02  0.000000000E+00  0.00000E+00  9.000E+00
      21    -1     0     0   511   502  0.000000000E+00  0.000000000E+00 -4.120616453E+02  4.120616453E+02  0.000000000E+00  0.00000E+00  9.000E+00
      25     1     1     2     0     0 -9.000594986E+01 -1.055091796E+02 -7.814025373E+00  1.868671105E+02  1.250000000E+02  0.00000E+00  9.000E+00
      25     1     1     2     0     0  1.037691664E+02  1.635469453E+02  5.652119770E+01  2.373505614E+02  1.250000000E+02  0.00000E+00  9.000E+00
      21     1     1     2   511   501 -1.376321650E+01 -5.803776577E+01 -2.203410512E+02  2.282717399E+02  0.000000000E+00  0.00000E+00  9.000E+00
#rwgt            1           1   3.0016118962611842E-002          10       71924           0
</event>
<event>
      5   9999  3.79277E-02  7.98924E+01 -1.00000E+00  1.28378E-01
      21    -1     0     0   502   512  0.000000000E+00  0.000000000E+00  3.144298530E+01  3.144298530E+01  0.000000000E+00  0.00000E+00  9.000E+00
      21    -1     0     0   501   502  0.000000000E+00  0.000000000E+00 -3.096408018E+03  3.096408018E+03  0.000000000E+00  0.00000E+00  9.000E+00
      25     1     1     2     0     0 -9.253582538E+01 -1.891158933E+02 -1.081834061E+03  1.109196843E+03  1.250000000E+02  0.00000E+00  9.000E+00
      25     1     1     2     0     0  5.129310927E+01  2.575397971E+02 -1.689468441E+03  1.714318040E+03  1.250000000E+02  0.00000E+00  9.000E+00
      21     1     1     2   501   512  4.124271611E+01 -6.842390378E+01 -2.936625304E+02  3.043361201E+02  6.607249480E-06  0.00000E+00  9.000E+00
#rwgt            1           1   3.5292768372740792E-002          10       72170           0
</event>
<event>
      5   9999  3.79277E-02  1.98121E+01 -1.00000E+00  1.66708E-01
      21    -1     0     0   502   501  0.000000000E+00  0.000000000E+00  1.675376645E+02  1.675376645E+02  0.000000000E+00  0.00000E+00  9.000E+00
      21    -1     0     0   501   511  0.000000000E+00  0.000000000E+00 -2.772184091E+02  2.772184091E+02  0.000000000E+00  0.00000E+00  9.000E+00
      25     1     1     2     0     0  3.103956469E+01  5.229330268E+01  1.078322210E+02  1.759284854E+02  1.250000000E+02  0.00000E+00  9.000E+00
      25     1     1     2     0     0 -1.283925235E+01 -4.446604174E+01 -2.075132032E+02  2.466349626E+02  1.250000000E+02  0.00000E+00  9.000E+00
      21     1     1     2   502   511 -1.820031234E+01 -7.827260933E+00 -9.999762453E+00  2.219262563E+01  0.000000000E+00  0.00000E+00  9.000E+00
#rwgt            1           1   3.8827503381783243E-002          10       72250           0
</event>
<event>
      5   9999  3.79277E-02  8.52203E+01 -1.00000E+00  1.27035E-01
       2    -1     0     0   502     0  0.000000000E+00  0.000000000E+00  2.804433090E+02  2.804433090E+02  0.000000000E+00  0.00000E+00  9.000E+00
      21    -1     0     0   501   502  0.000000000E+00  0.000000000E+00 -6.515363651E+02  6.515363651E+02  0.000000000E+00  0.00000E+00  9.000E+00
      25     1     1     2     0     0 -8.858725073E+01  2.180936262E+02 -4.057269346E+02  4.854398791E+02  1.250000000E+02  0.00000E+00  9.000E+00
      25     1     1     2     0     0  1.102413431E+01 -2.533988035E+02 -8.894427422E+01  2.964263299E+02  1.250000000E+02  0.00000E+00  9.000E+00
       2     1     1     2   501     0  7.756311642E+01  3.530517729E+01  1.235781527E+02  1.501134650E+02  1.907348633E-06  0.00000E+00  9.000E+00
#rwgt            1           1   2.0459960566050372E-002          10       72446           0
</event>
<event>
      5   9999  3.79277E-02  2.92390E+01 -1.00000E+00  1.53819E-01
      21    -1     0     0   502   501  0.000000000E+00  0.000000000E+00  2.839003279E+02  2.839003279E+02  0.000000000E+00  0.00000E+00  9.000E+00
      21    -1     0     0   501   511  0.000000000E+00  0.000000000E+00 -2.401081047E+02  2.401081047E+02  0.000000000E+00  0.00000E+00  9.000E+00
      25     1     1     2     0     0  1.087296454E+02  1.955302696E+01 -1.467552546E+02  2.221858713E+02  1.250000000E+02  0.00000E+00  9.000E+00
      25     1     1     2     0     0 -1.361684119E+02 -9.451768053E+00  1.986209974E+02  2.714893606E+02  1.250000000E+02  0.00000E+00  9.000E+00
      21     1     1     2   502   511  2.743876653E+01 -1.010125890E+01 -8.073519572E+00  3.033320059E+01  2.384185791E-07  0.00000E+00  9.000E+00
#rwgt            1           1   4.9580974087536173E-002          10       72519           0
</event>
<event>
      5   9999  3.79277E-02  1.74785E+01 -1.00000E+00  1.71347E-01
      21    -1     0     0   502   501  0.000000000E+00  0.000000000E+00  2.946064506E+02  2.946064506E+02  0.000000000E+00  0.00000E+00  9.000E+00
      21    -1     0     0   512   502  0.000000000E+00  0.000000000E+00 -2.362969970E+02  2.362969970E+02  0.000000000E+00  0.00000E+00  9.000E+00
      25     1     1     2     0     0  6.724906324E+01 -5.987681323E+00  1.624847470E+02  2.158346168E+02  1.250000000E+02  0.00000E+00  9.000E+00
      25     1     1     2     0     0 -8.455807805E+01  8.415724040E+00  5.053620459E+01  1.593731500E+02  1.250000000E+02  0.00000E+00  9.000E+00
      21     1     1     2   512   501  1.730901481E+01 -2.428042718E+00 -1.547114980E+02  1.556956807E+02  1.907348633E-06  0.00000E+00  9.000E+00
#rwgt            1           1   3.3357721316211487E-002          10       72677           0
</event>
<event>
      5   9999  3.79277E-02  3.17605E+01 -1.00000E+00  1.51339E-01
      21    -1     0     0   502   511  0.000000000E+00  0.000000000E+00  3.402665971E+02  3.402665971E+02  0.000000000E+00  0.00000E+00  9.000E+00
      21    -1     0     0   501   502  0.000000000E+00  0.000000000E+00 -1.527750427E+02  1.527750427E+02  0.000000000E+00  0.00000E+00  9.000E+00
      25     1     1     2     0     0 -1.140711338E+02 -6.455972535E+01 -4.217720112E+01  1.859680026E+02  1.250000000E+02  0.00000E+00  9.000E+00
      25     1     1     2     0     0  1.122552181E+02  3.285120492E+01  2.034466806E+02  2.658871706E+02  1.250000000E+02  0.00000E+00  9.000E+00
      21     1     1     2   501   511  1.815915671E+00  3.170852043E+01  2.622207487E+01  4.118646656E+01  3.371747881E-07  0.00000E+00  9.000E+00
#rwgt            1           1   4.2167034854816661E-002          10       72950           0
</event>
<event>
      5   9999  3.79277E-02  2.33530E+02 -1.00000E+00  1.09251E-01
      21    -1     0     0   502   501  0.000000000E+00  0.000000000E+00  1.422233434E+03  1.422233434E+03  0.000000000E+00  0.00000E+00  9.000E+00
      21    -1     0     0   512   502  0.000000000E+00  0.000000000E+00 -1.356290051E+02  1.356290051E+02  0.000000000E+00  0.00000E+00  9.000E+00
      25     1     1     2     0     0  1.120201677E+02  1.991520361E+02  5.382961179E+02  5.979947843E+02  1.250000000E+02  0.00000E+00  9.000E+00
      25     1     1     2     0     0 -2.140453706E+02  1.091269797E+01  6.685306388E+02  7.130867568E+02  1.250000000E+02  0.00000E+00  9.000E+00
      21     1     1     2   512   501  1.020252029E+02 -2.100647341E+02  7.977767167E+01  2.467808976E+02  2.861022949E-06  0.00000E+00  9.000E+00
#rwgt            1           1   1.3849545033525926E-002          10       73086           0
</event>
<event>
      5   9999  3.79277E-02  2.66265E+01 -1.00000E+00  1.56727E-01
      21    -1     0     0   502   511  0.000000000E+00  0.000000000E+00  1.442435952E+02  1.442435952E+02  0.000000000E+00  0.00000E+00  9.000E+00
      21    -1     0     0   501   502  0.000000000E+00  0.000000000E+00 -3.425195571E+02  3.425195571E+02  0.000000000E+00  0.00000E+00  9.000E+00
      25     1     1     2     0     0 -9.764319108E+01 -1.153114716E+01  5.114737419E+01  1.670575171E+02  1.250000000E+02  0.00000E+00  9.000E+00
      25     1     1     2     0     0  9.107465221E+01 -1.427239998E+01 -2.485219606E+02  2.930639155E+02  1.250000000E+02  0.00000E+00  9.000E+00
      21     1     1     2   501   511  6.568538871E+00  2.580354714E+01 -9.013754814E-01  2.664171965E+01  3.585579817E-07  0.00000E+00  9.000E+00
#rwgt            1           1   4.2513123110835271E-002          10       73147           0
</event>
<event>
      5   9999  3.79277E-02  2.44111E+02 -1.00000E+00  1.08585E-01
      21    -1     0     0   502   501  0.000000000E+00  0.000000000E+00  1.673594677E+03  1.673594677E+03  0.000000000E+00  0.00000E+00  9.000E+00
      21    -1     0     0   501   512  0.000000000E+00  0.000000000E+00 -1.138650327E+03  1.138650327E+03  0.000000000E+00  0.00000E+00  9.000E+00
      25     1     1     2     0     0 -2.127949229E+02  1.447799584E+02  2.111221429E+02  3.555846943E+02  1.250000000E+02  0.00000E+00  9.000E+00
      25     1     1     2     0     0  1.631198721E+01 -2.896411686E+02  1.357901148E+03  1.394158748E+03  1.250000000E+02  0.00000E+00  9.000E+00
      21     1     1     2   502   512  1.964829357E+02  1.448612102E+02 -1.034078940E+03  1.062501562E+03  0.000000000E+00  0.00000E+00  9.000E+00
#rwgt            1           1   2.8117807102211189E-002          10       73247           0
</event>
<event>
      5   9999  3.79277E-02  2.10878E+01 -1.00000E+00  1.64493E-01
      21    -1     0     0   502   511  0.000000000E+00  0.000000000E+00  9.870932511E+01  9.870932511E+01  0.000000000E+00  0.00000E+00  9.000E+00
      21    -1     0     0   501   502  0.000000000E+00  0.000000000E+00 -3.863337408E+02  3.863337408E+02  0.000000000E+00  0.00000E+00  9.000E+00
      25     1     1     2     0     0 -2.317587098E+01  4.291462660E+01 -2.991712856E+02  3.278829735E+02  1.250000000E+02  0.00000E+00  9.000E+00
      25     1     1     2     0     0  4.131040592E+01 -3.215197427E+01  1.216230139E+01  1.360632965E+02  1.250000000E+02  0.00000E+00  9.000E+00
      21     1     1     2   501   511 -1.813453493E+01 -1.076265233E+01 -6.154315018E-01  2.109679592E+01  3.313624257E-07  0.00000E+00  9.000E+00
#rwgt            1           1   1.4846401217093455E-002          10       73356           0
</event>
<event>
      5   9999  3.79277E-02  2.22700E+01 -1.00000E+00  1.62607E-01
      21    -1     0     0   502   501  0.000000000E+00  0.000000000E+00  1.162050979E+03  1.162050979E+03  0.000000000E+00  0.00000E+00  9.000E+00
      21    -1     0     0   512   502  0.000000000E+00  0.000000000E+00 -3.522139322E+01  3.522139322E+01  0.000000000E+00  0.00000E+00  9.000E+00
      25     1     1     2     0     0 -2.333373924E+01  5.107593321E+01  1.417871528E+02  1.971847130E+02  1.250000000E+02  0.00000E+00  9.000E+00
      25     1     1     2     0     0  1.339944727E+01 -3.114449971E+01  9.484424230E+02  9.572447727E+02  1.250000000E+02  0.00000E+00  9.000E+00
      21     1     1     2   512   501  9.934291971E+00 -1.993143349E+01  3.660000994E+01  4.284288653E+01  9.536743164E-07  0.00000E+00  9.000E+00
#rwgt            1           1   3.7562542913595648E-002          10       73542           0
</event>
<event>
      5   9999  3.79277E-02  6.16390E+01 -1.00000E+00  1.34081E-01
       1    -1     0     0   502     0  0.000000000E+00  0.000000000E+00  1.323890602E+02  1.323890602E+02  0.000000000E+00  0.00000E+00  9.000E+00
      21    -1     0     0   501   502  0.000000000E+00  0.000000000E+00 -1.136097949E+03  1.136097949E+03  0.000000000E+00  0.00000E+00  9.000E+00
      25     1     1     2     0     0  2.620205961E+02  1.136166835E+02 -4.401010329E+02  5.393305690E+02  1.250000000E+02  0.00000E+00  9.000E+00
      25     1     1     2     0     0 -2.396368500E+02 -1.710477743E+02 -5.826251662E+02  6.646504685E+02  1.250000000E+02  0.00000E+00  9.000E+00
       1     1     1     2   501     0 -2.238374610E+01  5.743109072E+01  1.901731049E+01  6.450597158E+01  1.143415337E-06  0.00000E+00  9.000E+00
#rwgt            1           1   3.2729873493079688E-002          10       73707           0
</event>
<event>
      5   9999  3.79277E-02  1.13586E+02 -1.00000E+00  1.21390E-01
       2    -1     0     0   502     0  0.000000000E+00  0.000000000E+00  1.495289347E+03  1.495289347E+03  0.000000000E+00  0.00000E+00  9.000E+00
      21    -1     0     0   501   502  0.000000000E+00  0.000000000E+00 -8.960574110E+02  8.960574110E+02  0.000000000E+00  0.00000E+00  9.000E+00
      25     1     1     2     0     0 -1.065226032E+02 -2.312544520E+01 -4.875164754E+02  5.149554981E+02  1.250000000E+02  0.00000E+00  9.000E+00
      25     1     1     2     0     0  1.569688391E+02 -7.864424672E+01 -3.630221127E+02  4.221779107E+02  1.250000000E+02  0.00000E+00  9.000E+00
       2     1     1     2   501     0 -5.044623588E+01  1.017696919E+02  1.449770524E+03  1.454213349E+03  2.157918644E-05  0.00000E+00  9.000E+00
#rwgt            1           1   3.5669262053891253E-002          10       74146           0
</event>
<event>
      5   9999  3.79277E-02  5.12604E+01 -1.00000E+00  1.38461E-01
      -2    -1     0     0     0   501  0.000000000E+00  0.000000000E+00  1.492297348E+03  1.492297348E+03  0.000000000E+00  0.00000E+00  9.000E+00
      21    -1     0     0   501   502  0.000000000E+00  0.000000000E+00 -4.053433890E+02  4.053433890E+02  0.000000000E+00  0.00000E+00  9.000E+00
      25     1     1     2     0     0 -7.682139352E+01  1.182237783E+02 -2.503995215E+02  3.133740714E+02  1.250000000E+02  0.00000E+00  9.000E+00
      25     1     1     2     0     0  1.144042135E+02 -8.336463346E+01 -5.048790944E+01  1.954789380E+02  1.250000000E+02  0.00000E+00  9.000E+00
      -2     1     1     2     0   502 -3.758282002E+01 -3.485914485E+01  1.387841390E+03  1.388787727E+03  0.000000000E+00  0.00000E+00  9.000E+00
#rwgt            1           1   3.1076931531563844E-002          10       74397           0
</event>
<event>
      5   9999  3.79277E-02  2.26752E+01 -1.00000E+00  1.61993E-01
      21    -1     0     0   502   511  0.000000000E+00  0.000000000E+00  5.200133726E+02  5.200133726E+02  0.000000000E+00  0.00000E+00  9.000E+00
      21    -1     0     0   501   502  0.000000000E+00  0.000000000E+00 -2.504631266E+02  2.504631266E+02  0.000000000E+00  0.00000E+00  9.000E+00
      25     1     1     2     0     0 -5.644500450E+01 -9.366215369E+01 -1.152887555E+02  2.021759993E+02  1.250000000E+02  0.00000E+00  9.000E+00
      25     1     1     2     0     0  4.498210239E+01  7.409773795E+01 -2.814328301E+01  1.546961819E+02  1.250000000E+02  0.00000E+00  9.000E+00
      21     1     1     2   501   511  1.146290210E+01  1.956441575E+01  4.129822845E+02  4.136043180E+02  0.000000000E+00  0.00000E+00  9.000E+00
#rwgt            1           1   3.6653243540252879E-002          10       74512           0
</event>
<event>
      5   9999  3.79277E-02  5.19912E+01 -1.00000E+00  1.38115E-01
      21    -1     0     0   502   501  0.000000000E+00  0.000000000E+00  2.992824278E+02  2.992824278E+02  0.000000000E+00  0.00000E+00  9.000E+00
      21    -1     0     0   501   512  0.000000000E+00  0.000000000E+00 -2.169801883E+02  2.169801883E+02  0.000000000E+00  0.00000E+00  9.000E+00
      25     1     1     2     0     0  2.441394759E+01 -8.482222469E+01  2.324160010E+02  2.782679431E+02  1.250000000E+02  0.00000E+00  9.000E+00
      25     1     1     2     0     0 -6.829767779E+00  3.589492933E+01 -8.889761921E+01  1.576796702E+02  1.250000000E+02  0.00000E+00  9.000E+00
      21     1     1     2   502   512 -1.758417981E+01  4.892729536E+01 -6.121614233E+01  8.031500291E+01  1.507891493E-06  0.00000E+00  9.000E+00
#rwgt            1           1   4.3474557247908378E-002          10       74660           0
</event>
<event>
      5   9999  3.79277E-02  4.53122E+01 -1.00000E+00  1.41560E-01
      21    -1     0     0   502   501  0.000000000E+00  0.000000000E+00  5.184870838E+02  5.184870838E+02  0.000000000E+00  0.00000E+00  9.000E+00
      -5    -1     0     0     0   502  0.000000000E+00  0.000000000E+00 -1.856629151E+02  1.856629151E+02  0.000000000E+00  0.00000E+00  9.000E+00
      25     1     1     2     0     0  1.525360548E+01 -1.683823570E+02  1.548308589E+02  2.611185277E+02  1.250000000E+02  0.00000E+00  9.000E+00
      25     1     1     2     0     0 -5.480794970E+01  1.462768816E+02  2.725978691E+02  3.381352328E+02  1.250000000E+02  0.00000E+00  9.000E+00
      -5     1     1     2     0   501  3.955434422E+01  2.210547540E+01 -9.460455932E+01  1.048962384E+02  0.000000000E+00  0.00000E+00  9.000E+00
#rwgt            1           1   4.0018360729982494E-002          10       74725           0
</event>
<event>
      5   9999  3.79277E-02  8.13460E+01 -1.00000E+00  1.28000E-01
      21    -1     0     0   511   501  0.000000000E+00  0.000000000E+00  7.929903902E+02  7.929903902E+02  0.000000000E+00  0.00000E+00  9.000E+00
      21    -1     0     0   501   502  0.000000000E+00  0.000000000E+00 -4.282509791E+02  4.282509791E+02  0.000000000E+00  0.00000E+00  9.000E+00
      25     1     1     2     0     0 -2.334820631E+02  2.309624158E+02  4.997950483E+02  6.109644847E+02  1.250000000E+02  0.00000E+00  9.000E+00
      25     1     1     2     0     0  2.967786953E+02 -1.798673480E+02 -2.669456269E+02  4.553183772E+02  1.250000000E+02  0.00000E+00  9.000E+00
      21     1     1     2   511   502 -6.329663220E+01 -5.109506784E+01  1.318899897E+02  1.549585073E+02  0.000000000E+00  0.00000E+00  9.000E+00
#rwgt            1           1   8.0520811048986243E-002          10       74977           0
</event>
<event>
      5   9999  3.79277E-02  3.39584E+01 -1.00000E+00  1.49393E-01
      21    -1     0     0   502   501  0.000000000E+00  0.000000000E+00  2.342774822E+03  2.342774822E+03  0.000000000E+00  0.00000E+00  9.000E+00
      21    -1     0     0   501   512  0.000000000E+00  0.000000000E+00 -2.255657707E+01  2.255657707E+01  0.000000000E+00  0.00000E+00  9.000E+00
      25     1     1     2     0     0 -7.512514793E+00 -2.795156122E+01  1.867900144E+03  1.872301705E+03  1.250000000E+02  0.00000E+00  9.000E+00
      25     1     1     2     0     0  3.655417300E+01  1.035175075E+01  4.363799225E+02  4.555170722E+02  1.250000000E+02  0.00000E+00  9.000E+00
      21     1     1     2   502   512 -2.904165820E+01  1.759981047E+01  1.593817827E+01  3.751262143E+01  8.259061849E-07  0.00000E+00  9.000E+00
#rwgt            1           1   6.7992002134957555E-002          10       75214           0
</event>
<event>
      5   9999  3.79277E-02  2.26150E+01 -1.00000E+00  1.62083E-01
      21    -1     0     0   502   511  0.000000000E+00  0.000000000E+00  1.353508304E+03  1.353508304E+03  0.000000000E+00  0.00000E+00  9.000E+00
      21    -1     0     0   501   502  0.000000000E+00  0.000000000E+00 -1.447845830E+02  1.447845830E+02  0.000000000E+00  0.00000E+00  9.000E+00
      25     1     1     2     0     0 -1.091401511E+02  1.336807061E+02  4.196885205E+01  2.171830756E+02  1.250000000E+02  0.00000E+00  9.000E+00
      25     1     1     2     0     0  1.219146415E+02 -1.150192195E+02  1.345100362E+02  2.486172772E+02  1.250000000E+02  0.00000E+00  9.000E+00
      21     1     1     2   501   511 -1.277449040E+01 -1.866148660E+01  1.032244833E+03  1.032492534E+03  0.000000000E+00  0.00000E+00  9.000E+00
#rwgt            1           1   3.1813962932859895E-002          10       75419           0
</event>
<event>
      5   9999  3.79277E-02  1.77600E+01 -1.00000E+00  1.70741E-01
      21    -1     0     0   502   512  0.000000000E+00  0.000000000E+00  9.490506639E+02  9.490506639E+02  0.000000000E+00  0.00000E+00  9.000E+00
      21    -1     0     0   501   502  0.000000000E+00  0.000000000E+00 -7.773515415E+01  7.773515415E+01  0.000000000E+00  0.00000E+00  9.000E+00
      25     1     1     2     0     0 -9.699146801E+00 -1.938655413E+02  3.545265587E+02  4.230744643E+02  1.250000000E+02  0.00000E+00  9.000E+00
      25     1     1     2     0     0  1.020893362E+01  2.116182230E+02  3.080398596E+02  3.942081299E+02  1.250000000E+02  0.00000E+00  9.000E+00
      21     1     1     2   501   512 -5.097868205E-01 -1.775268168E+01  2.087490915E+02  2.095032238E+02  0.000000000E+00  0.00000E+00  9.000E+00
#rwgt            1           1   3.4063832238243996E-002          10       75568           0
</event>
<event>
      5   9999  3.79277E-02  3.68408E+01 -1.00000E+00  1.47091E-01
      21    -1     0     0   511   501  0.000000000E+00  0.000000000E+00  4.764826768E+02  4.764826768E+02  0.000000000E+00  0.00000E+00  9.000E+00
      21    -1     0     0   501   502  0.000000000E+00  0.000000000E+00 -4.584503901E+02  4.584503901E+02  0.000000000E+00  0.00000E+00  9.000E+00
      25     1     1     2     0     0  3.560980922E+00 -1.359343183E+02  8.417326992E+01  2.029801932E+02  1.250000000E+02  0.00000E+00  9.000E+00
      25     1     1     2     0     0  2.002051540E+01  1.642391038E+02 -3.709232005E+02  4.249521443E+02  1.250000000E+02  0.00000E+00  9.000E+00
      21     1     1     2   511   502 -2.358149632E+01 -2.830478550E+01  3.047822173E+02  3.070007294E+02  3.814697266E-06  0.00000E+00  9.000E+00
#rwgt            1           1  0.14591586492836645               10       75818           0
</event>
<event>
      5   9999  3.79277E-02  7.12495E+01 -1.00000E+00  1.30833E-01
      21    -1     0     0   502   501  0.000000000E+00  0.000000000E+00  1.324089298E+02  1.324089298E+02  0.000000000E+00  0.00000E+00  9.000E+00
       2    -1     0     0   501     0  0.000000000E+00  0.000000000E+00 -9.815586726E+02  9.815586726E+02  0.000000000E+00  0.00000E+00  9.000E+00
      25     1     1     2     0     0  3.829193166E+01 -1.232936956E+02 -1.429839084E+02  2.296453907E+02  1.250000000E+02  0.00000E+00  9.000E+00
      25     1     1     2     0     0  2.807632698E+01  1.492116270E+02 -2.363295929E+01  1.980805557E+02  1.250000000E+02  0.00000E+00  9.000E+00
       2     1     1     2   502     0 -6.636825864E+01 -2.591793139E+01 -6.825328751E+02  6.862416560E+02  1.078959322E-05  0.00000E+00  9.000E+00
#rwgt            2          13   5.9088033726590185E-004          10       76276           0
</event>
<event>
      5   9999  3.79277E-02  1.23720E+02 -1.00000E+00  1.19808E-01
       1    -1     0     0   502     0  0.000000000E+00  0.000000000E+00  3.442078673E+02  3.442078673E+02  0.000000000E+00  0.00000E+00  9.000E+00
      21    -1     0     0   501   502  0.000000000E+00  0.000000000E+00 -4.155065160E+02  4.155065160E+02  0.000000000E+00  0.00000E+00  9.000E+00
      25     1     1     2     0     0  9.227701756E+00 -7.171689121E+00 -7.171104475E+00  1.257497847E+02  1.250000000E+02  0.00000E+00  9.000E+00
      25     1     1     2     0     0 -5.875776536E+01  1.205442134E+02 -3.091839363E+02  3.594483118E+02  1.250000000E+02  0.00000E+00  9.000E+00
       1     1     1     2   501     0  4.953006360E+01 -1.133725243E+02  2.450563921E+02  2.745162869E+02  2.697398305E-06  0.00000E+00  9.000E+00
#rwgt            2          17   2.2476255404407959E-004          10       76370           0
</event>
<event>
      5   9999 -4.02460E-02  2.12876E+01 -1.00000E+00  1.64164E-01
      21    -1     0     0   502   501  0.000000000E+00  0.000000000E+00  1.959012864E+02  1.959012864E+02  0.000000000E+00  0.00000E+00  9.000E+00
       1    -1     0     0   501     0  0.000000000E+00  0.000000000E+00 -6.325683777E+02  6.325683777E+02  0.000000000E+00  0.00000E+00  9.000E+00
      25     1     1     2     0     0 -1.326753654E+02 -2.807206238E+02 -1.205388736E+02  3.557547487E+02  1.250000000E+02  0.00000E+00  9.000E+00
      25     1     1     2     0     0  1.229967989E+02  2.617604778E+02 -2.469042839E+02  4.002917507E+02  1.250000000E+02  0.00000E+00  9.000E+00
       1     1     1     2   502     0  9.678566466E+00  1.896014594E+01 -6.922393369E+01  7.242316466E+01  0.000000000E+00  0.00000E+00  9.000E+00
#rwgt            1           1 -0.40405986267490446               10       76599           0
</event>
<event>
      5   9999  3.79277E-02  6.66691E+02 -1.00000E+00  9.54272E-02
       2    -1     0     0   502     0  0.000000000E+00  0.000000000E+00  3.058434718E+03  3.058434718E+03  0.000000000E+00  0.00000E+00  9.000E+00
      21    -1     0     0   501   502  0.000000000E+00  0.000000000E+00 -4.430824593E+02  4.430824593E+02  0.000000000E+00  0.00000E+00  9.000E+00
      25     1     1     2     0     0  2.438295847E+02 -2.854012504E+00  1.321082698E+02  3.042015889E+02  1.250000000E+02  0.00000E+00  9.000E+00
      25     1     1     2     0     0  5.133028751E+01 -5.949399339E+02 -1.637742181E+01  6.103126603E+02  1.250000000E+02  0.00000E+00  9.000E+00
       2     1     1     2   501     0 -2.951598722E+02  5.977939464E+02  2.499621411E+03  2.587002929E+03  0.000000000E+00  0.00000E+00  9.000E+00
#rwgt            2          18   2.4107610547694115E-004          10       76831           0
</event>
<event>
      5   9999  3.79277E-02  1.47969E+02 -1.00000E+00  1.16629E-01
      21    -1     0     0   502   501  0.000000000E+00  0.000000000E+00  7.485243988E+01  7.485243988E+01  0.000000000E+00  0.00000E+00  9.000E+00
      21    -1     0     0   511   502  0.000000000E+00  0.000000000E+00 -8.104179556E+02  8.104179556E+02  0.000000000E+00  0.00000E+00  9.000E+00
      25     1     1     2     0     0 -1.462062274E+01  2.246964179E+01 -1.757334754E+02  2.173152130E+02  1.250000000E+02  0.00000E+00  9.000E+00
      25     1     1     2     0     0  8.523642154E+01 -1.525009995E+02 -3.006565054E+02  3.695147313E+02  1.250000000E+02  0.00000E+00  9.000E+00
      21     1     1     2   511   501 -7.061579881E+01  1.300313577E+02 -2.591755349E+02  2.984404512E+02  6.607249480E-06  0.00000E+00  9.000E+00
#rwgt            1           1   3.1366118107231167E-002          10       76880           0
</event>
<event>
      5   9999 -3.79277E-02  1.22413E+02 -1.00000E+00  1.20002E-01
      21    -1     0     0   502   501  0.000000000E+00  0.000000000E+00  3.204749401E+02  3.204749401E+02  0.000000000E+00  0.00000E+00  9.000E+00
      21    -1     0     0   512   502  0.000000000E+00  0.000000000E+00 -2.107941334E+02  2.107941334E+02  0.000000000E+00  0.00000E+00  9.000E+00
      25     1     1     2     0     0  1.623585908E+00  9.041544738E+01  9.663057178E+01  1.820441061E+02  1.250000000E+02  0.00000E+00  9.000E+00
      25     1     1     2     0     0 -1.221707072E+02 -6.912288695E+01  8.602600203E+01  2.067102518E+02  1.250000000E+02  0.00000E+00  9.000E+00
      21     1     1     2   512   501  1.205471212E+02 -2.129256043E+01 -7.297576707E+01  1.425147156E+02  1.907348633E-06  0.00000E+00  9.000E+00
#rwgt            1           1 -0.16072017346668938               10       76985           0
</event>
<event>
      5   9999  3.79277E-02  3.58051E+01 -1.00000E+00  1.47889E-01
       2    -1     0     0   502     0  0.000000000E+00  0.000000000E+00  1.488707122E+03  1.488707122E+03  0.000000000E+00  0.00000E+00  9.000E+00
      21    -1     0     0   501   502  0.000000000E+00  0.000000000E+00 -4.690221488E+01  4.690221488E+01  0.000000000E+00  0.00000E+00  9.000E+00
      25     1     1     2     0     0 -8.478687049E+01  8.637321026E+01  3.392400207E+02  3.812583593E+02  1.250000000E+02  0.00000E+00  9.000E+00
      25     1     1     2     0     0  5.691267596E+01 -1.088461222E+02  2.755204308E+02  3.265318342E+02  1.250000000E+02  0.00000E+00  9.000E+00
       2     1     1     2   501     0  2.787419453E+01  2.247291199E+01  8.270444552E+02  8.278191429E+02  0.000000000E+00  0.00000E+00  9.000E+00
#rwgt            1           1   5.5866472276147681E-002          10       77121           0
</event>
<event>
      5   9999  3.79277E-02  2.12720E+02 -1.00000E+00  1.10682E-01
      21    -1     0     0   502   511  0.000000000E+00  0.000000000E+00  6.253773814E+02  6.253773814E+02  0.000000000E+00  0.00000E+00  9.000E+00
      21    -1     0     0   501   502  0.000000000E+00  0.000000000E+00 -3.410847457E+02  3.410847457E+02  0.000000000E+00  0.00000E+00  9.000E+00
      25     1     1     2     0     0 -1.486665500E+02  1.614012619E+02  4.079054405E+02  4.797540607E+02  1.250000000E+02  0.00000E+00  9.000E+00
      25     1     1     2     0     0  1.246041192E+02  4.995293734E+01 -1.897779921E+02  2.639359179E+02  1.250000000E+02  0.00000E+00  9.000E+00
      21     1     1     2   501   511  2.406243085E+01 -2.113541992E+02  6.616518735E+01  2.227721485E+02  4.046097457E-06  0.00000E+00  9.000E+00
#rwgt            1           1   7.7117764193593563E-002          10       77222           0
</event>
<event>
      5   9999  3.79277E-02  1.82511E+01 -1.00000E+00  1.69716E-01
      21    -1     0     0   502   512  0.000000000E+00  0.000000000E+00  1.320621648E+02  1.320621648E+02  0.000000000E+00  0.00000E+00  9.000E+00
      21    -1     0     0   501   502  0.000000000E+00  0.000000000E+00 -3.343006547E+02  3.343006547E+02  0.000000000E+00  0.00000E+00  9.000E+00
      25     1     1     2     0     0  1.363838675E+02  1.120358765E+01 -4.731029854E+00  1.854008154E+02  1.250000000E+02  0.00000E+00  9.000E+00
      25     1     1     2     0     0 -1.241972638E+02  2.382819573E+00 -1.945061049E+02  2.624657368E+02  1.250000000E+02  0.00000E+00  9.000E+00
      21     1     1     2   501   512 -1.218660369E+01 -1.358640722E+01 -3.001355150E+00  1.849626728E+01  3.291774099E-07  0.00000E+00  9.000E+00
#rwgt            1           1   4.4317198008039398E-002          10       77330           0
</event>
<event>
      5   9999  3.79277E-02  1.68379E+01 -1.00000E+00  1.72782E-01
      21    -1     0     0   502   501  0.000000000E+00  0.000000000E+00  3.212806020E+03  3.212806020E+03  0.000000000E+00  0.00000E+00  9.000E+00
      21    -1     0     0   501   511  0.000000000E+00  0.000000000E+00 -1.019452901E+03  1.019452901E+03  0.000000000E+00  0.00000E+00  9.000E+00
      25     1     1     2     0     0 -1.502191041E+02  8.289614109E+01  9.223350135E+02  9.464483222E+02  1.250000000E+02  0.00000E+00  9.000E+00
      25     1     1     2     0     0  1.509803884E+02 -6.607544915E+01  2.273648801E+03  2.283038527E+03  1.250000000E+02  0.00000E+00  9.000E+00
      21     1     1     2   502   511 -7.612843438E-01 -1.682069194E+01 -1.002630696E+03  1.002772072E+03  1.868812365E-05  0.00000E+00  9.000E+00
#rwgt            1           1   2.0852650739213191E-002          10       77596           0
</event>
<event>
      5   9999  4.04868E-02  1.80381E+02 -1.00000E+00  1.13305E-01
      21    -1     0     0   512   501  0.000000000E+00  0.000000000E+00  3.357886384E+02  3.357886384E+02  0.000000000E+00  0.00000E+00  9.000E+00
      21    -1     0     0   501   502  0.000000000E+00  0.000000000E+00 -7.717731962E+02  7.717731962E+02  0.000000000E+00  0.00000E+00  9.000E+00
      25     1     1     2     0     0 -2.335774659E+02  1.444385412E+02 -5.272715404E+02  6.075040758E+02  1.250000000E+02  0.00000E+00  9.000E+00
      25     1     1     2     0     0  5.694465568E+01 -1.810191765E+02 -8.991675063E+01  2.443781048E+02  1.250000000E+02  0.00000E+00  9.000E+00
      21     1     1     2   512   502  1.766328102E+02  3.658063531E+01  1.812037333E+02  2.556796540E+02  2.697398305E-06  0.00000E+00  9.000E+00
#rwgt            1           1  0.32353160987614787               10       77784           0
</event>
<event>
      5   9999  3.79277E-02  2.02032E+01 -1.00000E+00  1.66008E-01
      21    -1     0     0   502   511  0.000000000E+00  0.000000000E+00  1.727281467E+02  1.727281467E+02  0.000000000E+00  0.00000E+00  9.000E+00
      21    -1     0     0   501   502  0.000000000E+00  0.000000000E+00 -7.368277176E+02  7.368277176E+02  0.000000000E+00  0.00000E+00  9.000E+00
      25     1     1     2     0     0 -1.490059571E+02  2.363054986E+02 -4.498110423E+02  5.440570169E+02  1.250000000E+02  0.00000E+00  9.000E+00
      25     1     1     2     0     0  1.652198911E+02 -2.483586227E+02 -1.192244127E+02  3.447014338E+02  1.250000000E+02  0.00000E+00  9.000E+00
      21     1     1     2   501   511 -1.621393404E+01  1.205312408E+01  4.935884077E+00  2.079741351E+01  5.591411304E-07  0.00000E+00  9.000E+00
#rwgt            1           1   3.4923907091495156E-002          10       77963           0
</event>
<event>
      5   9999  3.79277E-02  3.35785E+01 -1.00000E+00  1.49717E-01
      21    -1     0     0   502   512  0.000000000E+00  0.000000000E+00  4.671691393E+01  4.671691393E+01  0.000000000E+00  0.00000E+00  9.000E+00
      21    -1     0     0   501   502  0.000000000E+00  0.000000000E+00 -1.528269776E+03  1.528269776E+03  0.000000000E+00  0.00000E+00  9.000E+00
      25     1     1     2     0     0 -1.074592593E+02  1.580468643E+01 -1.208310418E+03  1.219604997E+03  1.250000000E+02  0.00000E+00  9.000E+00
      25     1     1     2     0     0  1.371327720E+02 -3.152081401E+01 -2.556902648E+02  3.174924730E+02  1.250000000E+02  0.00000E+00  9.000E+00
      21     1     1     2   501   512 -2.967351267E+01  1.571612758E+01 -1.755217844E+01  3.788921994E+01  5.840038640E-07  0.00000E+00  9.000E+00
#rwgt            1           1   4.3340178468730201E-002          10       78223           0
</event>
<event>
      5   9999  3.79277E-02  2.34095E+01 -1.00000E+00  1.60919E-01
      21    -1     0     0   502   501  0.000000000E+00  0.000000000E+00  5.667145282E+02  5.667145282E+02  0.000000000E+00  0.00000E+00  9.000E+00
      21    -1     0     0   501   511  0.000000000E+00  0.000000000E+00 -1.696798745E+02  1.696798745E+02  0.000000000E+00  0.00000E+00  9.000E+00
      25     1     1     2     0     0  4.780744039E+01 -1.686203737E+02  2.000329884E+02  2.938648979E+02  1.250000000E+02  0.00000E+00  9.000E+00
      25     1     1     2     0     0 -2.521383731E+01  1.747466947E+02  2.814021668E+02  3.549427057E+02  1.250000000E+02  0.00000E+00  9.000E+00
      21     1     1     2   502   511 -2.259360308E+01 -6.126320966E+00 -8.440050153E+01  8.758679904E+01  2.861022949E-06  0.00000E+00  9.000E+00
#rwgt            1           1   3.1521035153064016E-002          10       78381           0
</event>
<event>
      5   9999  3.79277E-02  1.50466E+02 -1.00000E+00  1.16340E-01
      21    -1     0     0   502   512  0.000000000E+00  0.000000000E+00  6.203167016E+02  6.203167016E+02  0.000000000E+00  0.00000E+00  9.000E+00
      21    -1     0     0   501   502  0.000000000E+00  0.000000000E+00 -2.963222039E+02  2.963222039E+02  0.000000000E+00  0.00000E+00  9.000E+00
      25     1     1     2     0     0  8.654741115E+01  1.289604075E+01 -2.184710512E+01  1.541397361E+02  1.250000000E+02  0.00000E+00  9.000E+00
      25     1     1     2     0     0  5.762450485E+01  3.016800133E+01 -1.725131975E+02  2.227476042E+02  1.250000000E+02  0.00000E+00  9.000E+00
      21     1     1     2   501   512 -1.441719160E+02 -4.306404207E+01  5.183548003E+02  5.397515651E+02  7.629394531E-06  0.00000E+00  9.000E+00
#rwgt            1           1   7.3598604063325149E-002          10       78530           0
</event>
<event>
      5   9999  3.79277E-02  1.21512E+02 -1.00000E+00  1.20138E-01
      21    -1     0     0   511   501  0.000000000E+00  0.000000000E+00  2.691541995E+02  2.691541995E+02  0.000000000E+00  0.00000E+00  9.000E+00
      21    -1     0     0   501   502  0.000000000E+00  0.000000000E+00 -3.147567581E+02  3.147567581E+02  0.000000000E+00  0.00000E+00  9.000E+00
      25     1     1     2     0     0  3.560668395E+01  4.227004710E+01  1.584311601E+02  2.092367685E+02  1.250000000E+02  0.00000E+00  9.000E+00
      25     1     1     2     0     0  8.102600754E+01 -8.180483570E+00 -2.045316592E+02  2.531606877E+02  1.250000000E+02  0.00000E+00  9.000E+00
      21     1     1     2   511   502 -1.166326915E+02 -3.408956353E+01  4.979404303E-01  1.215135013E+02  5.010203847E-07  0.00000E+00  9.000E+00
#rwgt            2          11   2.5554658500763472E-003          10       78673           0
</event>
<event>
      5   9999  3.79277E-02  2.74730E+01 -1.00000E+00  1.55742E-01
      21    -1     0     0   512   501  0.000000000E+00  0.000000000E+00  9.345288604E+02  9.345288604E+02  0.000000000E+00  0.00000E+00  9.000E+00
      21    -1     0     0   501   502  0.000000000E+00  0.000000000E+00 -1.074556281E+02  1.074556281E+02  0.000000000E+00  0.00000E+00  9.000E+00
      25     1     1     2     0     0 -1.674918927E+02  8.246933221E+01  5.575661901E+02  6.011320830E+02  1.250000000E+02  0.00000E+00  9.000E+00
      25     1     1     2     0     0  1.400724796E+02 -8.075405956E+01  3.818578914E+01  2.079054404E+02  1.250000000E+02  0.00000E+00  9.000E+00
      21     1     1     2   512   502  2.741941311E+01 -1.715272659E+00  2.313212531E+02  2.329469650E+02  0.000000000E+00  0.00000E+00  9.000E+00
#rwgt            1           1   3.0407318388767930E-002          10       78738           0
</event>
<event>
      5   9999  3.79277E-02  9.74909E+01 -1.00000E+00  1.24326E-01
      21    -1     0     0   502   501  0.000000000E+00  0.000000000E+00  9.820107005E+01  9.820107005E+01  0.000000000E+00  0.00000E+00  9.000E+00
      21    -1     0     0   501   511  0.000000000E+00  0.000000000E+00 -1.136232673E+03  1.136232673E+03  0.000000000E+00  0.00000E+00  9.000E+00
      25     1     1     2     0     0 -7.886341498E+01  1.688449444E+02 -3.914601008E+02  4.512139892E+02  1.250000000E+02  0.00000E+00  9.000E+00
      25     1     1     2     0     0  1.763489172E+02 -1.678217382E+02 -2.364128423E+02  3.616339425E+02  1.250000000E+02  0.00000E+00  9.000E+00
      21     1     1     2   502   511 -9.748550220E+01 -1.023206178E+00 -4.101586603E+02  4.215858118E+02  7.629394531E-06  0.00000E+00  9.000E+00
#rwgt            1           1   4.9682526238869255E-002          10       78883           0
</event>
<event>
      5   9999  3.79277E-02  1.73477E+02 -1.00000E+00  1.13945E-01
      21    -1     0     0   502   512  0.000000000E+00  0.000000000E+00  1.722165958E+02  1.722165958E+02  0.000000000E+00  0.00000E+00  9.000E+00
      21    -1     0     0   501   502  0.000000000E+00  0.000000000E+00 -8.850000378E+02  8.850000378E+02  0.000000000E+00  0.00000E+00  9.000E+00
      25     1     1     2     0     0  8.099186830E+00  1.442643909E+02 -5.131554183E+02  5.475685296E+02  1.250000000E+02  0.00000E+00  9.000E+00
      25     1     1     2     0     0 -1.764078442E+02 -1.022342815E+02 -2.319759559E+02  3.331807616E+02  1.250000000E+02  0.00000E+00  9.000E+00
      21     1     1     2   501   512  1.683086573E+02 -4.203010945E+01  3.234793216E+01  1.764673424E+02  1.261592536E-06  0.00000E+00  9.000E+00
#rwgt            2          11   2.7487689077511156E-003          10       79096           0
</event>
<event>
      5   9999  3.79277E-02  5.38683E+01 -1.00000E+00  1.37254E-01
      21    -1     0     0   511   501  0.000000000E+00  0.000000000E+00  6.701024631E+02  6.701024631E+02  0.000000000E+00  0.00000E+00  9.000E+00
      21    -1     0     0   501   502  0.000000000E+00  0.000000000E+00 -1.810462639E+02  1.810462639E+02  0.000000000E+00  0.00000E+00  9.000E+00
      25     1     1     2     0     0 -1.989056041E+02 -3.385010594E+01  4.590415234E+02  5.167720863E+02  1.250000000E+02  0.00000E+00  9.000E+00
      25     1     1     2     0     0  2.208004236E+02  8.306804275E+01 -1.016645019E+01  2.671731340E+02  1.250000000E+02  0.00000E+00  9.000E+00
      21     1     1     2   511   502 -2.189481957E+01 -4.921793681E+01  4.018112601E+01  6.720350672E+01  9.536743164E-07  0.00000E+00  9.000E+00
#rwgt            1           1   3.5099134474234121E-002          10       79131           0
</event>
<event>
      5   9999  3.79277E-02  1.14627E+01 -1.00000E+00  1.89145E-01
      -2    -1     0     0     0   501  0.000000000E+00  0.000000000E+00  1.533749302E+03  1.533749302E+03  0.000000000E+00  0.00000E+00  9.000E+00
      21    -1     0     0   501   502  0.000000000E+00  0.000000000E+00 -7.837210672E+01  7.837210672E+01  0.000000000E+00  0.00000E+00  9.000E+00
      25     1     1     2     0     0  1.175746746E+02 -4.595482286E+01  4.188706691E+02  4.549871287E+02  1.250000000E+02  0.00000E+00  9.000E+00
      25     1     1     2     0     0 -1.066977590E+02  4.233749065E+01  5.916957709E+01  1.797301136E+02  1.250000000E+02  0.00000E+00  9.000E+00
      -2     1     1     2     0   502 -1.087691559E+01  3.617332208E+00  9.773369492E+02  9.774041665E+02  1.868812365E-05  0.00000E+00  9.000E+00
#rwgt            1           1   4.1260918702598515E-002          10       79254           0
</event>
<event>
      5   9999  3.79277E-02  4.50275E+02 -1.00000E+00  1.00162E-01
      21    -1     0     0   511   501  0.000000000E+00  0.000000000E+00  1.085442194E+03  1.085442194E+03  0.000000000E+00  0.00000E+00  9.000E+00
      21    -1     0     0   501   502  0.000000000E+00  0.000000000E+00 -7.775267986E+02  7.775267986E+02  0.000000000E+00  0.00000E+00  9.000E+00
      25     1     1     2     0     0 -1.170189526E+02  1.044540636E+02 -1.332719721E+01  2.010141807E+02  1.250000000E+02  0.00000E+00  9.000E+00
      25     1     1     2     0     0 -1.829756417E+02  2.313299375E+02 -5.754230443E+02  6.585820415E+02  1.250000000E+02  0.00000E+00  9.000E+00
      21     1     1     2   511   502  2.999945942E+02 -3.357840012E+02  8.966656366E+02  1.003372770E+03  0.000000000E+00  0.00000E+00  9.000E+00
#rwgt            2          11   7.8559690523007791E-004          10       79413           0
</event>
<event>
      5   9999  3.79277E-02  8.02964E+01 -1.00000E+00  1.28272E-01
      21    -1     0     0   502   501  0.000000000E+00  0.000000000E+00  6.833050725E+02  6.833050725E+02  0.000000000E+00  0.00000E+00  9.000E+00
      21    -1     0     0   501   512  0.000000000E+00  0.000000000E+00 -1.362103711E+02  1.362103711E+02  0.000000000E+00  0.00000E+00  9.000E+00
      25     1     1     2     0     0  8.871406274E+01 -3.013012985E+01  4.474764931E+02  4.739601476E+02  1.250000000E+02  0.00000E+00  9.000E+00
      25     1     1     2     0     0 -1.637858282E+02  5.862110570E+01  1.397706480E+02  2.557793299E+02  1.250000000E+02  0.00000E+00  9.000E+00
      21     1     1     2   502   512  7.507176550E+01 -2.849097585E+01 -4.015243969E+01  8.977596612E+01  1.907348633E-06  0.00000E+00  9.000E+00
#rwgt            1           1   4.1231594368969268E-002          10       79598           0
</event>
<event>
      5   9999  3.79277E-02  1.16883E+02 -1.00000E+00  1.20855E-01
      21    -1     0     0   502   501  0.000000000E+00  0.000000000E+00  7.914086438E+01  7.914086438E+01  0.000000000E+00  0.00000E+00  9.000E+00
      21    -1     0     0   511   502  0.000000000E+00  0.000000000E+00 -8.259369422E+02  8.259369422E+02  0.000000000E+00  0.00000E+00  9.000E+00
      25     1     1     2     0     0  4.662647089E+01  4.148249554E+01 -3.614730376E+02  3.875339755E+02  1.250000000E+02  0.00000E+00  9.000E+00
      25     1     1     2     0     0 -9.247188427E+01 -1.489990474E+02 -1.773646516E+02  2.789892205E+02  1.250000000E+02  0.00000E+00  9.000E+00
      21     1     1     2   511   501  4.584541338E+01  1.075165519E+02 -2.079583886E+02  2.385546106E+02  0.000000000E+00  0.00000E+00  9.000E+00
#rwgt            1           1   4.6981543640053719E-002          10       79661           0
</event>
<event>
      5   9999  3.79277E-02  1.99535E+01 -1.00000E+00  1.66453E-01
      21    -1     0     0   502   501  0.000000000E+00  0.000000000E+00  6.083439906E+02  6.083439906E+02  0.000000000E+00  0.00000E+00  9.000E+00
      21    -1     0     0   512   502  0.000000000E+00  0.000000000E+00 -1.254670394E+02  1.254670394E+02  0.000000000E+00  0.00000E+00  9.000E+00
      25     1     1     2     0     0  1.667085756E+02 -1.659318263E+02  2.042444115E+02  3.356574143E+02  1.250000000E+02  0.00000E+00  9.000E+00
      25     1     1     2     0     0 -1.750311998E+02  1.477969007E+02  2.724327902E+02  3.772591549E+02  1.250000000E+02  0.00000E+00  9.000E+00
      21     1     1     2   512   501  8.322624241E+00  1.813492559E+01  6.199749431E+00  2.089446083E+01  4.042583694E-07  0.00000E+00  9.000E+00
#rwgt            1           1   3.1730947626494539E-002          10       79738           0
</event>
<event>
      5   9999  3.79277E-02  3.45672E+02 -1.00000E+00  1.03630E-01
      21    -1     0     0   511   501  0.000000000E+00  0.000000000E+00  4.550086122E+02  4.550086122E+02  0.000000000E+00  0.00000E+00  9.000E+00
      21    -1     0     0   501   502  0.000000000E+00  0.000000000E+00 -4.364488046E+02  4.364488046E+02  0.000000000E+00  0.00000E+00  9.000E+00
      25     1     1     2     0     0  2.664092956E+02 -2.590271813E+02 -3.582381793E+01  3.936716136E+02  1.250000000E+02  0.00000E+00  9.000E+00
      25     1     1     2     0     0  2.715027338E+01  7.651152477E+01  1.219912823E+01  1.495492210E+02  1.250000000E+02  0.00000E+00  9.000E+00
      21     1     1     2   511   502 -2.935595690E+02  1.825156565E+02  4.218449731E+01  3.482365822E+02  3.960906917E-06  0.00000E+00  9.000E+00
#rwgt            1           1   3.4717739978036045E-002          10       79914           0
</event>
<event>
      5   9999  3.79277E-02  5.62969E+01 -1.00000E+00  1.36199E-01
      21    -1     0     0   512   501  0.000000000E+00  0.000000000E+00  2.988269607E+02  2.988269607E+02  0.000000000E+00  0.00000E+00  9.000E+00
      21    -1     0     0   501   502  0.000000000E+00  0.000000000E+00 -4.866592022E+02  4.866592022E+02  0.000000000E+00  0.00000E+00  9.000E+00
      25     1     1     2     0     0  7.899478774E-01 -8.980329811E+01 -2.866146955E+02  3.253278962E+02  1.250000000E+02  0.00000E+00  9.000E+00
      25     1     1     2     0     0 -4.138721392E+00  1.460004776E+02 -1.250612082E+02  2.293437905E+02  1.250000000E+02  0.00000E+00  9.000E+00
      21     1     1     2   512   502  3.348773514E+00 -5.619717945E+01  2.238436622E+02  2.308144761E+02  2.697398305E-06  0.00000E+00  9.000E+00
#rwgt            2          11   1.9492084931259975E-003          10       79976           0
</event>
<event>
      5   9999  3.79277E-02  1.63105E+02 -1.00000E+00  1.14970E-01
      -2    -1     0     0     0   501  0.000000000E+00  0.000000000E+00  1.022306335E+02  1.022306335E+02  0.000000000E+00  0.00000E+00  9.000E+00
      21    -1     0     0   501   502  0.000000000E+00  0.000000000E+00 -1.319704977E+03  1.319704977E+03  0.000000000E+00  0.00000E+00  9.000E+00
      25     1     1     2     0     0  3.838865902E+01  7.126400400E+01 -1.002594520E+03  1.013594109E+03  1.250000000E+02  0.00000E+00  9.000E+00
      25     1     1     2     0     0 -1.125457005E+02  7.400862551E+01 -1.045121837E+02  2.114038975E+02  1.250000000E+02  0.00000E+00  9.000E+00
      -2     1     1     2     0   502  7.415704146E+01 -1.452726295E+02 -1.103676396E+02  1.969376032E+02  1.907348633E-06  0.00000E+00  9.000E+00
#rwgt            1           1   4.1206751373929748E-002          10       80056           0
</event>
<event>
      5   9999  3.79277E-02  4.38441E+01 -1.00000E+00  1.42411E-01
      21    -1     0     0   502   501  0.000000000E+00  0.000000000E+00  8.429552251E+02  8.429552251E+02  0.000000000E+00  0.00000E+00  9.000E+00
      21    -1     0     0   501   511  0.000000000E+00  0.000000000E+00 -8.819439946E+02  8.819439946E+02  0.000000000E+00  0.00000E+00  9.000E+00
      25     1     1     2     0     0  3.767554866E+01  2.680835340E+02  3.110665725E+02  4.309009639E+02  1.250000000E+02  0.00000E+00  9.000E+00
      25     1     1     2     0     0 -3.598692885E+01 -2.242720000E+02  4.357092660E+02  5.070113938E+02  1.250000000E+02  0.00000E+00  9.000E+00
      21     1     1     2   502   511 -1.688619806E+00 -4.381153400E+01 -7.857646078E+02  7.869868620E+02  1.078959322E-05  0.00000E+00  9.000E+00
#rwgt            1           1   1.7464908347576177E-002          10       80125           0
</event>
<event>
      5   9999  3.79277E-02  2.68759E+01 -1.00000E+00  1.56433E-01
      21    -1     0     0   512   501  0.000000000E+00  0.000000000E+00  8.654460418E+01  8.654460418E+01  0.000000000E+00  0.00000E+00  9.000E+00
      21    -1     0     0   501   502  0.000000000E+00  0.000000000E+00 -2.002535602E+03  2.002535602E+03  0.000000000E+00  0.00000E+00  9.000E+00
      25     1     1     2     0     0 -1.941448091E+02  1.592774265E+02 -1.590798994E+03  1.615341433E+03  1.250000000E+02  0.00000E+00  9.000E+00
      25     1     1     2     0     0  2.195365796E+02 -1.680848371E+02 -3.278632308E+02  4.467304784E+02  1.250000000E+02  0.00000E+00  9.000E+00
      21     1     1     2   512   502 -2.539177056E+01  8.807410558E+00  2.671227755E+00  2.700829410E+01  5.717076687E-07  0.00000E+00  9.000E+00
#rwgt            1           1   3.2228930927170343E-002          10       80586           0
</event>
<event>
      5   9999  3.79277E-02  2.36673E+01 -1.00000E+00  1.60554E-01
      21    -1     0     0   502   501  0.000000000E+00  0.000000000E+00  6.621175032E+01  6.621175032E+01  0.000000000E+00  0.00000E+00  9.000E+00
       1    -1     0     0   501     0  0.000000000E+00  0.000000000E+00 -1.621975788E+03  1.621975788E+03  0.000000000E+00  0.00000E+00  9.000E+00
      25     1     1     2     0     0  5.477338809E+01 -5.853003786E+01 -7.559961047E+01  1.666319011E+02  1.250000000E+02  0.00000E+00  9.000E+00
      25     1     1     2     0     0 -7.172413295E+01  4.201291729E+01 -2.531406428E+02  2.943036213E+02  1.250000000E+02  0.00000E+00  9.000E+00
       1     1     1     2   502     0  1.695074486E+01  1.651712056E+01 -1.227023784E+03  1.227252016E+03  1.525878906E-05  0.00000E+00  9.000E+00
#rwgt            1           1   3.7358488023476216E-002          10       80789           0
</event>
<event>
      5   9999  3.79277E-02  4.45895E+01 -1.00000E+00  1.41974E-01
      21    -1     0     0   502   511  0.000000000E+00  0.000000000E+00  2.324360490E+02  2.324360490E+02  0.000000000E+00  0.00000E+00  9.000E+00
      21    -1     0     0   501   502  0.000000000E+00  0.000000000E+00 -2.244216402E+02  2.244216402E+02  0.000000000E+00  0.00000E+00  9.000E+00
      25     1     1     2     0     0 -2.077878788E+00  1.390405170E+02 -2.721488688E-01  1.869803653E+02  1.250000000E+02  0.00000E+00  9.000E+00
      25     1     1     2     0     0 -1.685401771E+01 -1.794113369E+02 -1.452436473E+01  2.197918172E+02  1.250000000E+02  0.00000E+00  9.000E+00
      21     1     1     2   501   511  1.893189650E+01  4.037081985E+01  2.281092237E+01  5.008550669E+01  1.118282261E-06  0.00000E+00  9.000E+00
#rwgt            1           1   4.0150246552593319E-002          10       80987           0
</event>
<event>
      5   9999  3.79277E-02  4.53615E+01 -1.00000E+00  1.41532E-01
      21    -1     0     0   502   501  0.000000000E+00  0.000000000E+00  1.010385750E+03  1.010385750E+03  0.000000000E+00  0.00000E+00  9.000E+00
      21    -1     0     0   501   512  0.000000000E+00  0.000000000E+00 -4.167999876E+01  4.167999876E+01  0.000000000E+00  0.00000E+00  9.000E+00
      25     1     1     2     0     0 -4.729709030E+01 -7.509491013E+01  6.161082551E+02  6.348941977E+02  1.250000000E+02  0.00000E+00  9.000E+00
      25     1     1     2     0     0  3.900515487E+01  1.196920730E+02  2.874579463E+02  3.377938207E+02  1.250000000E+02  0.00000E+00  9.000E+00
      21     1     1     2   502   512  8.291935432E+00 -4.459716285E+01  6.513955027E+01  7.937773074E+01  1.348699152E-06  0.00000E+00  9.000E+00
#rwgt            1           1   5.6608239872871786E-002          10       81126           0
</event>
<event>
      5   9999  3.79277E-02  3.35467E+01 -1.00000E+00  1.49744E-01
      21    -1     0     0   502   511  0.000000000E+00  0.000000000E+00  3.771242422E+01  3.771242422E+01  0.000000000E+00  0.00000E+00  9.000E+00
      21    -1     0     0   501   502  0.000000000E+00  0.000000000E+00 -1.438660517E+03  1.438660517E+03  0.000000000E+00  0.00000E+00  9.000E+00
      25     1     1     2     0     0  4.458045391E+01  2.586053656E+00 -2.180790814E+02  2.552990213E+02  1.250000000E+02  0.00000E+00  9.000E+00
      25     1     1     2     0     0 -4.162819528E+01 -3.600262252E+01 -1.179474413E+03  1.187355881E+03  1.250000000E+02  0.00000E+00  9.000E+00
      21     1     1     2   501   511 -2.952258630E+00  3.341656886E+01 -3.394598484E+00  3.371803975E+01  1.683237701E-06  0.00000E+00  9.000E+00
#rwgt            1           1   7.1216886215606151E-002          10       81233           0
</event>
<event>
      5   9999  3.79277E-02  5.43956E+01 -1.00000E+00  1.37019E-01
      21    -1     0     0   502   512  0.000000000E+00  0.000000000E+00  1.059049675E+02  1.059049675E+02  0.000000000E+00  0.00000E+00  9.000E+00
      21    -1     0     0   501   502  0.000000000E+00  0.000000000E+00 -6.177420385E+02  6.177420385E+02  0.000000000E+00  0.00000E+00  9.000E+00
      25     1     1     2     0     0  2.670526242E+01 -1.353991773E+02 -3.614560296E+02  4.065975524E+02  1.250000000E+02  0.00000E+00  9.000E+00
      25     1     1     2     0     0 -6.577064188E+01  1.732512268E+02 -1.089365019E+02  2.486642844E+02  1.250000000E+02  0.00000E+00  9.000E+00
      21     1     1     2   501   512  3.906537946E+01 -3.785204947E+01 -4.144453948E+01  6.838516926E+01  4.768371582E-07  0.00000E+00  9.000E+00
#rwgt            1           1   4.3390129834893064E-002          10       81360           0
</event>
<event>
      5   9999  3.79277E-02  2.68094E+01 -1.00000E+00  1.56511E-01
      21    -1     0     0   511   501  0.000000000E+00  0.000000000E+00  4.453549897E+02  4.453549897E+02  0.000000000E+00  0.00000E+00  9.000E+00
      21    -1     0     0   501   502  0.000000000E+00  0.000000000E+00 -1.003146172E+02  1.003146172E+02  0.000000000E+00  0.00000E+00  9.000E+00
      25     1     1     2     0     0  2.179769335E+01  1.341444581E+02  8.187007793E+01  2.019841200E+02  1.250000000E+02  0.00000E+00  9.000E+00
      25     1     1     2     0     0  1.469978758E+00 -1.474620634E+02  2.200097028E+02  2.928762372E+02  1.250000000E+02  0.00000E+00  9.000E+00
      21     1     1     2   511   502 -2.326767211E+01  1.331760531E+01  4.316059179E+01  5.080924975E+01  4.768371582E-07  0.00000E+00  9.000E+00
#rwgt            1           1   3.0979233096359159E-002          10       81464           0
</event>
<event>
      5   9999  3.79277E-02  4.33718E+01 -1.00000E+00  1.42694E-01
      21    -1     0     0   502   512  0.000000000E+00  0.000000000E+00  2.826081976E+02  2.826081976E+02  0.000000000E+00  0.00000E+00  9.000E+00
      21    -1     0     0   501   502  0.000000000E+00  0.000000000E+00 -1.395490310E+02  1.395490310E+02  0.000000000E+00  0.00000E+00  9.000E+00
      25     1     1     2     0     0 -1.021911272E+02  5.894714989E+01  1.368097546E+02  2.196809093E+02  1.250000000E+02  0.00000E+00  9.000E+00
      25     1     1     2     0     0  7.881046572E+01 -2.241692948E+01 -2.148171454E+01  1.509969281E+02  1.250000000E+02  0.00000E+00  9.000E+00
      21     1     1     2   501   512  2.338066148E+01 -3.653022041E+01  2.773112664E+01  5.147939120E+01  3.371747881E-07  0.00000E+00  9.000E+00
#rwgt            1           1   4.6042562379881795E-002          10       81619           0
</event>
<event>
      5   9999  3.79277E-02  8.34554E+01 -1.00000E+00  1.27467E-01
      21    -1     0     0   502   511  0.000000000E+00  0.000000000E+00  7.327701617E+02  7.327701617E+02  0.000000000E+00  0.00000E+00  9.000E+00
      21    -1     0     0   501   502  0.000000000E+00  0.000000000E+00 -1.911071058E+02  1.911071058E+02  0.000000000E+00  0.00000E+00  9.000E+00
      25     1     1     2     0     0  9.700564705E+00  1.200682965E+02  2.599943700E+01  1.755319558E+02  1.250000000E+02  0.00000E+00  9.000E+00
      25     1     1     2     0     0 -7.268588189E+01 -1.748191170E+02  9.113762200E-01  2.268717517E+02  1.250000000E+02  0.00000E+00  9.000E+00
      21     1     1     2   501   511  6.298531718E+01  5.475082052E+01  5.147522427E+02  5.214735601E+02  7.629394531E-06  0.00000E+00  9.000E+00
#rwgt            2          11   1.3548613486570687E-003          10       81751           0
</event>
<event>
      5   9999 -3.79277E-02  8.20014E+01 -1.00000E+00  1.27832E-01
      21    -1     0     0   512   501  0.000000000E+00  0.000000000E+00  5.369466406E+01  5.369466406E+01  0.000000000E+00  0.00000E+00  9.000E+00
      21    -1     0     0   501   502  0.000000000E+00  0.000000000E+00 -1.576441488E+03  1.576441488E+03  0.000000000E+00  0.00000E+00  9.000E+00
      25     1     1     2     0     0 -1.707696676E+01  1.926651619E+02 -7.092739028E+02  7.457251213E+02  1.250000000E+02  0.00000E+00  9.000E+00
      25     1     1     2     0     0  7.361725240E+01 -1.332729749E+02 -7.632276891E+02  7.882402496E+02  1.250000000E+02  0.00000E+00  9.000E+00
      21     1     1     2   512   502 -5.654028564E+01 -5.939218707E+01 -5.024523193E+01  9.617078099E+01  0.000000000E+00  0.00000E+00  9.000E+00
#rwgt            1           1  -2.3361877476290181E-002          10       81816           0
</event>
<event>
      5   9999  3.79277E-02  1.58349E+02 -1.00000E+00  1.15469E-01
       3    -1     0     0   502     0  0.000000000E+00  0.000000000E+00  5.224766473E+01  5.224766473E+01  0.000000000E+00  0.00000E+00  9.000E+00
      21    -1     0     0   501   502  0.000000000E+00  0.000000000E+00 -2.108058641E+03  2.108058641E+03  0.000000000E+00  0.00000E+00  9.000E+00
      25     1     1     2     0     0  6.360077861E+01 -1.096097158E+02 -1.280171480E+03  1.292487279E+03  1.250000000E+02  0.00000E+00  9.000E+00
      25     1     1     2     0     0 -1.931674654E+02  1.857746364E+01 -4.539599978E+02  5.092774013E+02  1.250000000E+02  0.00000E+00  9.000E+00
       3     1     1     2   501     0  1.295666868E+02  9.103225220E+01 -3.216794985E+02  3.585416253E+02  7.629394531E-06  0.00000E+00  9.000E+00
#rwgt            1           1   2.4819950533391113E-002          10       81886           0
</event>
<event>
      5   9999  3.79277E-02  5.99481E+01 -1.00000E+00  1.34723E-01
      21    -1     0     0   511   501  0.000000000E+00  0.000000000E+00  4.390415861E+02  4.390415861E+02  0.000000000E+00  0.00000E+00  9.000E+00
      21    -1     0     0   501   502  0.000000000E+00  0.000000000E+00 -1.525463670E+02  1.525463670E+02  0.000000000E+00  0.00000E+00  9.000E+00
      25     1     1     2     0     0  1.558942581E+02 -1.035457756E+02  1.899307315E+02  2.944884211E+02  1.250000000E+02  0.00000E+00  9.000E+00
      25     1     1     2     0     0 -9.594644187E+01  1.033598801E+02  6.069249464E+00  1.885492517E+02  1.250000000E+02  0.00000E+00  9.000E+00
      21     1     1     2   511   502 -5.994781626E+01  1.858955453E-01  9.049523816E+01  1.085502803E+02  9.536743164E-07  0.00000E+00  9.000E+00
#rwgt            1           1   4.4471048449064451E-002          10       81931           0
</event>
<event>
      5   9999  3.79277E-02  7.33370E+01 -1.00000E+00  1.30204E-01
      21    -1     0     0   502   501  0.000000000E+00  0.000000000E+00  1.187084356E+02  1.187084356E+02  0.000000000E+00  0.00000E+00  9.000E+00
      21    -1     0     0   501   512  0.000000000E+00  0.000000000E+00 -4.380773856E+02  4.380773856E+02  0.000000000E+00  0.00000E+00  9.000E+00
      25     1     1     2     0     0  3.044681370E+01  2.812520302E+01 -1.626846379E+02  2.093067770E+02  1.250000000E+02  0.00000E+00  9.000E+00
      25     1     1     2     0     0 -1.031583816E+02 -1.856757481E+01  1.197124516E+01  1.635686928E+02  1.250000000E+02  0.00000E+00  9.000E+00
      21     1     1     2   502   512  7.271156794E+01 -9.557628213E+00 -1.686555572E+02  1.839103514E+02  4.672030912E-06  0.00000E+00  9.000E+00
#rwgt            1           1   3.7836572740751515E-002          10       82092           0
</event>
<event>
      5   9999  3.79277E-02  1.67044E+01 -1.00000E+00  1.73091E-01
       2    -1     0     0   502     0  0.000000000E+00  0.000000000E+00  2.925716276E+03  2.925716276E+03  0.000000000E+00  0.00000E+00  9.000E+00
      21    -1     0     0   501   502  0.000000000E+00  0.000000000E+00 -3.047795700E+01  3.047795700E+01  0.000000000E+00  0.00000E+00  9.000E+00
      25     1     1     2     0     0 -1.184925774E+02  3.862071878E+01  4.361599902E+02  4.705237379E+02  1.250000000E+02  0.00000E+00  9.000E+00
      25     1     1     2     0     0  1.181755960E+02 -5.532213771E+01  6.024027925E+02  6.289198159E+02  1.250000000E+02  0.00000E+00  9.000E+00
       2     1     1     2   501     0  3.169814240E-01  1.670141892E+01  1.856675536E+03  1.856750679E+03  0.000000000E+00  0.00000E+00  9.000E+00
#rwgt            1           1   3.0568135533310760E-002          10       82300           0
</event>
<event>
      5   9999  3.79277E-02  4.13413E+01 -1.00000E+00  1.43957E-01
      21    -1     0     0   502   511  0.000000000E+00  0.000000000E+00  2.891983475E+02  2.891983475E+02  0.000000000E+00  0.00000E+00  9.000E+00
      21    -1     0     0   501   502  0.000000000E+00  0.000000000E+00 -3.778066735E+02  3.778066735E+02  0.000000000E+00  0.00000E+00  9.000E+00
      25     1     1     2     0     0 -9.392888509E+01  1.362547652E+02  3.343593540E+01  2.100736972E+02  1.250000000E+02  0.00000E+00  9.000E+00
      25     1     1     2     0     0  5.914422327E+01 -1.585959810E+02 -2.474898731E+02  3.248491367E+02  1.250000000E+02  0.00000E+00  9.000E+00
      21     1     1     2   501   511  3.478466182E+01  2.234121580E+01  1.254456118E+02  1.320821870E+02  0.000000000E+00  0.00000E+00  9.000E+00
#rwgt            1           1   3.6484552210668167E-002          10       82652           0
</event>
<event>
      5   9999  3.79277E-02  6.93632E+01 -1.00000E+00  1.31422E-01
      21    -1     0     0   502   501  0.000000000E+00  0.000000000E+00  1.182968654E+03  1.182968654E+03  0.000000000E+00  0.00000E+00  9.000E+00
      21    -1     0     0   501   512  0.000000000E+00  0.000000000E+00 -3.324766147E+01  3.324766147E+01  0.000000000E+00  0.00000E+00  9.000E+00
      25     1     1     2     0     0  1.203870895E+02  1.095606909E-01  7.052703734E+02  7.263087243E+02  1.250000000E+02  0.00000E+00  9.000E+00
      25     1     1     2     0     0 -5.297301798E+01  1.621824430E+01  2.945576738E+02  3.247435839E+02  1.250000000E+02  0.00000E+00  9.000E+00
      21     1     1     2   502   512 -6.741407147E+01 -1.632780499E+01  1.498929449E+02  1.651640069E+02  2.697398305E-06  0.00000E+00  9.000E+00
#rwgt            1           1   6.3269468771114681E-002          10       82919           0
</event>
<event>
      5   9999  3.79277E-02  3.15678E+01 -1.00000E+00  1.51519E-01
       2    -1     0     0   502     0  0.000000000E+00  0.000000000E+00  7.136657250E+02  7.136657250E+02  0.000000000E+00  0.00000E+00  9.000E+00
      21    -1     0     0   501   502  0.000000000E+00  0.000000000E+00 -7.088433171E+02  7.088433171E+02  0.000000000E+00  0.00000E+00  9.000E+00
      25     1     1     2     0     0 -1.198777912E+02  2.189978550E+02 -4.492797448E+02  5.289688407E+02  1.250000000E+02  0.00000E+00  9.000E+00
      25     1     1     2     0     0  1.351760232E+02 -2.466110566E+02 -1.112945195E+02  3.272629532E+02  1.250000000E+02  0.00000E+00  9.000E+00
       2     1     1     2   501     0 -1.529823193E+01  2.761320167E+01  5.653966722E+02  5.662772481E+02  0.000000000E+00  0.00000E+00  9.000E+00
#rwgt            1           1   2.3067408865020241E-002          10       83360           0
</event>
<event>
      5   9999  3.79277E-02  9.33617E+01 -1.00000E+00  1.25185E-01
      21    -1     0     0   502   501  0.000000000E+00  0.000000000E+00  2.176720976E+02  2.176720976E+02  0.000000000E+00  0.00000E+00  9.000E+00
       2    -1     0     0   501     0  0.000000000E+00  0.000000000E+00 -9.334695253E+02  9.334695253E+02  0.000000000E+00  0.00000E+00  9.000E+00
      25     1     1     2     0     0  3.186309304E+02 -7.838025186E+01 -1.453904548E+02  3.800427845E+02  1.250000000E+02  0.00000E+00  9.000E+00
      25     1     1     2     0     0 -3.752778735E+02  1.525930054E+02 -4.434246574E+02  6.134888218E+02  1.250000000E+02  0.00000E+00  9.000E+00
       2     1     1     2   502     0  5.664694312E+01 -7.421275352E+01 -1.269823154E+02  1.576100167E+02  1.348699152E-06  0.00000E+00  9.000E+00
#rwgt            1           1   3.8126591797234266E-002          10       83545           0
</event>
<event>
      5   9999  3.79277E-02  1.91683E+02 -1.00000E+00  1.12324E-01
      21    -1     0     0   502   501  0.000000000E+00  0.000000000E+00  9.173845263E+01  9.173845263E+01  0.000000000E+00  0.00000E+00  9.000E+00
       1    -1     0     0   501     0  0.000000000E+00  0.000000000E+00 -1.977431358E+03  1.977431358E+03  0.000000000E+00  0.00000E+00  9.000E+00
      25     1     1     2     0     0 -4.168639585E+00 -1.485502441E+02 -2.706282651E+02  3.330903938E+02  1.250000000E+02  0.00000E+00  9.000E+00
      25     1     1     2     0     0  1.849133315E+02  2.123758178E+02 -3.944814526E+02  5.005367565E+02  1.250000000E+02  0.00000E+00  9.000E+00
       1     1     1     2   502     0 -1.807446919E+02 -6.382557365E+01 -1.220583188E+03  1.235542661E+03  1.525878906E-05  0.00000E+00  9.000E+00
#rwgt            1           1   4.0865972421577204E-002          10       83677           0
</event>
<event>
      5   9999  3.79277E-02  2.32276E+01 -1.00000E+00  1.61181E-01
      21    -1     0     0   502   501  0.000000000E+00  0.000000000E+00  2.942673540E+02  2.942673540E+02  0.000000000E+00  0.00000E+00  9.000E+00
      21    -1     0     0   511   502  0.000000000E+00  0.000000000E+00 -3.968767903E+02  3.968767903E+02  0.000000000E+00  0.00000E+00  9.000E+00
      25     1     1     2     0     0  1.689237020E+02 -3.619317789E+01 -2.529683698E+02  3.308521714E+02  1.250000000E+02  0.00000E+00  9.000E+00
      25     1     1     2     0     0 -1.503872275E+02  2.219607614E+01  2.150757208E+02  2.915331022E+02  1.250000000E+02  0.00000E+00  9.000E+00
      21     1     1     2   511   501 -1.853647451E+01  1.399710175E+01 -6.471678730E+01  6.875887072E+01  1.348699152E-06  0.00000E+00  9.000E+00
#rwgt            1           1   4.7998497188576343E-002          10       83874           0
</event>
<event>
      5   9999  3.79277E-02  1.70568E+01 -1.00000E+00  1.72283E-01
      21    -1     0     0   502   501  0.000000000E+00  0.000000000E+00  4.002670184E+02  4.002670184E+02  0.000000000E+00  0.00000E+00  9.000E+00
      21    -1     0     0   512   502  0.000000000E+00  0.000000000E+00 -3.318045094E+02  3.318045094E+02  0.000000000E+00  0.00000E+00  9.000E+00
      25     1     1     2     0     0 -3.239536592E+02  3.689561661E+01  7.348441933E+01  3.568364047E+02  1.250000000E+02  0.00000E+00  9.000E+00
      25     1     1     2     0     0  3.303226677E+02 -5.271867465E+01  1.145694607E+00  3.570975162E+02  1.250000000E+02  0.00000E+00  9.000E+00
      21     1     1     2   512   501 -6.369008467E+00  1.582305804E+01 -6.167604881E+00  1.813760691E+01  3.862822472E-07  0.00000E+00  9.000E+00
#rwgt            1           1   2.5113246147573993E-002          10       84126           0
</event>
<event>
      5   9999  3.79277E-02  6.90198E+01 -1.00000E+00  1.31532E-01
      21    -1     0     0   502   511  0.000000000E+00  0.000000000E+00  1.275935497E+02  1.275935497E+02  0.000000000E+00  0.00000E+00  9.000E+00
      21    -1     0     0   501   502  0.000000000E+00  0.000000000E+00 -2.839503214E+03  2.839503214E+03  0.000000000E+00  0.00000E+00  9.000E+00
      25     1     1     2     0     0  5.578414631E+00 -2.562643423E+02 -2.147956201E+03  2.166804876E+03  1.250000000E+02  0.00000E+00  9.000E+00
      25     1     1     2     0     0 -4.617477297E+01  3.120824751E+02 -6.230246944E+02  7.094451006E+02  1.250000000E+02  0.00000E+00  9.000E+00
      21     1     1     2   501   511  4.059635834E+01 -5.581813273E+01  5.907123120E+01  9.084678645E+01  1.507891493E-06  0.00000E+00  9.000E+00
#rwgt            1           1   5.0086743842475030E-002          10       84358           0
</event>
<event>
      5   9999  3.79277E-02  1.73023E+02 -1.00000E+00  1.13988E-01
      21    -1     0     0   502   501  0.000000000E+00  0.000000000E+00  8.527239140E+01  8.527239140E+01  0.000000000E+00  0.00000E+00  9.000E+00
      21    -1     0     0   501   512  0.000000000E+00  0.000000000E+00 -1.015145524E+03  1.015145524E+03  0.000000000E+00  0.00000E+00  9.000E+00
      25     1     1     2     0     0 -1.423214381E+02  7.092431888E+01 -2.042424644E+02  2.874467516E+02  1.250000000E+02  0.00000E+00  9.000E+00
      25     1     1     2     0     0 -2.123518946E+01 -1.447709835E+01 -9.515669207E+01  1.591864181E+02  1.250000000E+02  0.00000E+00  9.000E+00
      21     1     1     2   502   512  1.635566276E+02 -5.644722053E+01 -6.304739761E+02  6.537847456E+02  1.078959322E-05  0.00000E+00  9.000E+00
#rwgt            1           1   3.7110326311033635E-002          10       84508           0
</event>
<event>
      5   9999 -3.79277E-02  1.05537E+02 -1.00000E+00  1.22784E-01
       2    -1     0     0   502     0  0.000000000E+00  0.000000000E+00  1.505350210E+03  1.505350210E+03  0.000000000E+00  0.00000E+00  9.000E+00
      21    -1     0     0   501   502  0.000000000E+00  0.000000000E+00 -8.130316403E+01  8.130316403E+01  0.000000000E+00  0.00000E+00  9.000E+00
      25     1     1     2     0     0  5.855683474E+01 -4.800964206E+01  1.577226680E+02  2.150238792E+02  1.250000000E+02  0.00000E+00  9.000E+00
      25     1     1     2     0     0 -5.204274346E+01 -5.732647976E+01  5.698363671E+01  1.576924452E+02  1.250000000E+02  0.00000E+00  9.000E+00
       2     1     1     2   501     0 -6.514091274E+00  1.053361218E+02  1.209340741E+03  1.213937049E+03  2.157918644E-05  0.00000E+00  9.000E+00
#rwgt            1           1  -3.8205866542240570E-002          10       84565           0
</event>
<event>
      5   9999  3.79277E-02  3.75195E+01 -1.00000E+00  1.46586E-01
      21    -1     0     0   502   511  0.000000000E+00  0.000000000E+00  6.369279386E+02  6.369279386E+02  0.000000000E+00  0.00000E+00  9.000E+00
      21    -1     0     0   501   502  0.000000000E+00  0.000000000E+00 -9.495120172E+01  9.495120172E+01  0.000000000E+00  0.00000E+00  9.000E+00
      25     1     1     2     0     0  1.184035982E+02  9.663243657E+01  2.028495026E+02  2.830727125E+02  1.250000000E+02  0.00000E+00  9.000E+00
      25     1     1     2     0     0 -8.309905727E+01 -8.393188797E+01  8.483327830E+01  1.917594854E+02  1.250000000E+02  0.00000E+00  9.000E+00
      21     1     1     2   501   511 -3.530454092E+01 -1.270054860E+01  2.542939561E+02  2.570469425E+02  5.394796609E-06  0.00000E+00  9.000E+00
#rwgt            1           1   4.1214747096910739E-002          10       84636           0
</event>
<event>
      5   9999  3.79277E-02  1.69924E+01 -1.00000E+00  1.72429E-01
      21    -1     0     0   502   501  0.000000000E+00  0.000000000E+00  4.797731035E+02  4.797731035E+02  0.000000000E+00  0.00000E+00  9.000E+00
      21    -1     0     0   512   502  0.000000000E+00  0.000000000E+00 -1.074637947E+02  1.074637947E+02  0.000000000E+00  0.00000E+00  9.000E+00
      25     1     1     2     0     0  3.233462244E+01  6.025550948E+01  3.949895892E+02  4.199024051E+02  1.250000000E+02  0.00000E+00  9.000E+00
      25     1     1     2     0     0 -1.638008640E+01 -6.610302350E+01 -4.456386685E+00  1.424176124E+02  1.250000000E+02  0.00000E+00  9.000E+00
      21     1     1     2   512   501 -1.595453604E+01  5.847514018E+00 -1.822389374E+01  2.491688069E+01  5.331201500E-07  0.00000E+00  9.000E+00
#rwgt            1           1   2.5173961649806099E-002          10       84796           0
</event>
<event>
      5   9999  3.79277E-02  1.16521E+02 -1.00000E+00  1.20913E-01
      -3    -1     0     0     0   501  0.000000000E+00  0.000000000E+00  1.010909817E+02  1.010909817E+02  0.000000000E+00  0.00000E+00  9.000E+00
      21    -1     0     0   501   502  0.000000000E+00  0.000000000E+00 -1.612358976E+03  1.612358976E+03  0.000000000E+00  0.00000E+00  9.000E+00
      25     1     1     2     0     0 -1.422839228E+02 -1.887742281E+02 -7.243458701E+02  7.721284630E+02  1.250000000E+02  0.00000E+00  9.000E+00
      25     1     1     2     0     0  1.556585010E+02  7.302325146E+01 -7.965279811E+02  8.244051121E+02  1.250000000E+02  0.00000E+00  9.000E+00
      -3     1     1     2     0   502 -1.337457819E+01  1.157509766E+02  9.605857308E+00  1.169163822E+02  1.322094978E-06  0.00000E+00  9.000E+00
#rwgt            1           1   5.2922893721439844E-002          10       85033           0
</event>
<event>
      5   9999  3.79277E-02  8.30420E+01 -1.00000E+00  1.27570E-01
      -3    -1     0     0     0   501  0.000000000E+00  0.000000000E+00  1.566162116E+03  1.566162116E+03  0.000000000E+00  0.00000E+00  9.000E+00
      21    -1     0     0   501   502  0.000000000E+00  0.000000000E+00 -2.813866436E+02  2.813866436E+02  0.000000000E+00  0.00000E+00  9.000E+00
      25     1     1     2     0     0 -2.003513765E+02 -5.981788107E+01  6.152292278E+00  2.436836139E+02  1.250000000E+02  0.00000E+00  9.000E+00
      25     1     1     2     0     0  1.184924821E+02  7.378554348E+01 -1.069872632E+02  2.157685084E+02  1.250000000E+02  0.00000E+00  9.000E+00
      -3     1     1     2     0   502  8.185889439E+01 -1.396766241E+01  1.385610443E+03  1.388096637E+03  1.525878906E-05  0.00000E+00  9.000E+00
#rwgt            1           1   3.9614536915825234E-002          10       85096           0
</event>
<event>
      5   9999  3.79277E-02  2.38539E+01 -1.00000E+00  1.60293E-01
      21    -1     0     0   511   501  0.000000000E+00  0.000000000E+00  7.025565045E+01  7.025565045E+01  0.000000000E+00  0.00000E+00  9.000E+00
      21    -1     0     0   501   502  0.000000000E+00  0.000000000E+00 -7.168407959E+02  7.168407959E+02  0.000000000E+00  0.00000E+00  9.000E+00
      25     1     1     2     0     0  1.969312453E+01  3.640704841E+01 -1.402741037E+01  1.324200157E+02  1.250000000E+02  0.00000E+00  9.000E+00
      25     1     1     2     0     0 -8.326488717E-01 -2.180252142E+01 -6.052907850E+02  6.184480396E+02  1.250000000E+02  0.00000E+00  9.000E+00
      21     1     1     2   511   502 -1.886047566E+01 -1.460452699E+01 -2.726695012E+01  3.622839107E+01  0.000000000E+00  0.00000E+00  9.000E+00
#rwgt            1           1   4.0152474747897328E-002          10       85222           0
</event>
<event>
      5   9999  3.79277E-02  4.05630E+01 -1.00000E+00  1.44465E-01
      21    -1     0     0   502   512  0.000000000E+00  0.000000000E+00  1.185360777E+02  1.185360777E+02  0.000000000E+00  0.00000E+00  9.000E+00
      21    -1     0     0   501   502  0.000000000E+00  0.000000000E+00 -3.619530654E+02  3.619530654E+02  0.000000000E+00  0.00000E+00  9.000E+00
      25     1     1     2     0     0 -8.669152524E+01 -3.883424066E+01 -2.447790467E+02  2.908011357E+02  1.250000000E+02  0.00000E+00  9.000E+00
      25     1     1     2     0     0  5.242344061E+01  6.053806870E+01  7.607255303E+00  1.486470491E+02  1.250000000E+02  0.00000E+00  9.000E+00
      21     1     1     2   501   512  3.426808463E+01 -2.170382804E+01 -6.245196316E+00  4.104095823E+01  2.795705652E-07  0.00000E+00  9.000E+00
#rwgt            1           1   7.0851005033948644E-002          10       85356           0
</event>
<event>
      5   9999  3.79277E-02  6.97920E+01 -1.00000E+00  1.31286E-01
      21    -1     0     0   502   511  0.000000000E+00  0.000000000E+00  2.965218573E+02  2.965218573E+02  0.000000000E+00  0.00000E+00  9.000E+00
      21    -1     0     0   501   502  0.000000000E+00  0.000000000E+00 -2.471314589E+02  2.471314589E+02  0.000000000E+00  0.00000E+00  9.000E+00
      25     1     1     2     0     0 -7.524175775E+01  1.264300147E+02  8.752593737E+01  2.119708953E+02  1.250000000E+02  0.00000E+00  9.000E+00
      25     1     1     2     0     0  9.175929822E+00 -1.489294300E+02 -1.164156267E+02  2.268077841E+02  1.250000000E+02  0.00000E+00  9.000E+00
      21     1     1     2   501   511  6.606582793E+01  2.249941529E+01  7.828008769E+01  1.048746368E+02  0.000000000E+00  0.00000E+00  9.000E+00
#rwgt            1           1   4.9946646213924882E-002          10       85666           0
</event>
<event>
      5   9999  3.79277E-02  3.88570E+01 -1.00000E+00  1.45625E-01
      21    -1     0     0   502   501  0.000000000E+00  0.000000000E+00  8.703768939E+02  8.703768939E+02  0.000000000E+00  0.00000E+00  9.000E+00
      21    -1     0     0   501   512  0.000000000E+00  0.000000000E+00 -1.263142858E+02  1.263142858E+02  0.000000000E+00  0.00000E+00  9.000E+00
      25     1     1     2     0     0  1.800535793E+02  5.132757463E+01  5.469501752E+02  5.914670789E+02  1.250000000E+02  0.00000E+00  9.000E+00
      25     1     1     2     0     0 -1.721989066E+02 -1.327277208E+01  2.569471765E+02  3.338794414E+02  1.250000000E+02  0.00000E+00  9.000E+00
      21     1     1     2   502   512 -7.854672672E+00 -3.805480255E+01 -5.983474351E+01  7.134465930E+01  2.023048729E-06  0.00000E+00  9.000E+00
#rwgt            1           1   1.6795133397305401E-002          10       85788           0
</event>
<event>
      5   9999  3.79277E-02  1.17366E+01 -1.00000E+00  1.88047E-01
      21    -1     0     0   502   501  0.000000000E+00  0.000000000E+00  9.453331900E+02  9.453331900E+02  0.000000000E+00  0.00000E+00  9.000E+00
      21    -1     0     0   501   511  0.000000000E+00  0.000000000E+00 -1.313307397E+02  1.313307397E+02  0.000000000E+00  0.00000E+00  9.000E+00
      25     1     1     2     0     0  1.097231633E+00  8.086670335E+00 -9.225769368E+01  1.555733917E+02  1.250000000E+02  0.00000E+00  9.000E+00
      25     1     1     2     0     0  1.005217503E+00 -1.963346389E+01  8.976741459E+02  9.065485953E+02  1.250000000E+02  0.00000E+00  9.000E+00
      21     1     1     2   502   511 -2.102449136E+00  1.154679356E+01  8.585998045E+00  1.454194266E+01  1.685873940E-07  0.00000E+00  9.000E+00
#rwgt            1           1   4.1260789994894485E-002          10       85943           0
</event>
<event>
      5   9999  3.79277E-02  3.68762E+01 -1.00000E+00  1.47065E-01
      21    -1     0     0   502   501  0.000000000E+00  0.000000000E+00  1.021072179E+03  1.021072179E+03  0.000000000E+00  0.00000E+00  9.000E+00
      21    -1     0     0   501   512  0.000000000E+00  0.000000000E+00 -1.379963568E+02  1.379963568E+02  0.000000000E+00  0.00000E+00  9.000E+00
      25     1     1     2     0     0 -1.575906497E+02  2.211612533E+02  4.828986071E+02  5.679464566E+02  1.250000000E+02  0.00000E+00  9.000E+00
      25     1     1     2     0     0  1.922537618E+02 -2.337437614E+02  4.322322118E+02  5.422613206E+02  1.250000000E+02  0.00000E+00  9.000E+00
      21     1     1     2   502   512 -3.466311210E+01  1.258250811E+01 -3.205499711E+01  4.886075819E+01  1.168007728E-06  0.00000E+00  9.000E+00
#rwgt            1           1   2.8819808320612900E-002          10       86289           0
</event>
<event>
      5   9999  3.79277E-02  1.78552E+01 -1.00000E+00  1.70539E-01
      21    -1     0     0   511   501  0.000000000E+00  0.000000000E+00  3.428280304E+02  3.428280304E+02  0.000000000E+00  0.00000E+00  9.000E+00
      21    -1     0     0   501   502  0.000000000E+00  0.000000000E+00 -2.303266017E+02  2.303266017E+02  0.000000000E+00  0.00000E+00  9.000E+00
      25     1     1     2     0     0  3.339117595E+01 -1.890896044E+02  3.703869977E+00  2.291474804E+02  1.250000000E+02  0.00000E+00  9.000E+00
      25     1     1     2     0     0 -3.299586710E+01  1.712387484E+02 -1.859880487E+01  2.153656234E+02  1.250000000E+02  0.00000E+00  9.000E+00
      21     1     1     2   511   502 -3.953088463E-01  1.785085605E+01  1.273963637E+02  1.286415283E+02  1.348699152E-06  0.00000E+00  9.000E+00
#rwgt            1           1   4.2728159590013665E-002          10       86387           0
</event>
<event>
      5   9999  3.79277E-02  6.87636E+01 -1.00000E+00  1.31614E-01
      21    -1     0     0   502   512  0.000000000E+00  0.000000000E+00  1.390374046E+02  1.390374046E+02  0.000000000E+00  0.00000E+00  9.000E+00
      21    -1     0     0   501   502  0.000000000E+00  0.000000000E+00 -7.918355930E+02  7.918355930E+02  0.000000000E+00  0.00000E+00  9.000E+00
      25     1     1     2     0     0  5.594100363E+01  6.475329462E+01 -5.339821789E+02  5.550534681E+02  1.250000000E+02  0.00000E+00  9.000E+00
      25     1     1     2     0     0 -3.778438263E+01 -1.310765558E+02 -1.979674477E+02  2.709701707E+02  1.250000000E+02  0.00000E+00  9.000E+00
      21     1     1     2   501   512 -1.815662100E+01  6.632326114E+01  7.915143830E+01  1.048493588E+02  9.536743164E-07  0.00000E+00  9.000E+00
#rwgt            1           1   4.1204980814188698E-002          10       86520           0
</event>
<event>
      5   9999  3.79277E-02  1.70799E+01 -1.00000E+00  1.72231E-01
      21    -1     0     0   511   501  0.000000000E+00  0.000000000E+00  1.763726275E+02  1.763726275E+02  0.000000000E+00  0.00000E+00  9.000E+00
      21    -1     0     0   501   502  0.000000000E+00  0.000000000E+00 -2.502636831E+02  2.502636831E+02  0.000000000E+00  0.00000E+00  9.000E+00
      25     1     1     2     0     0  4.004895359E+01  3.474301338E+01  1.233854759E+01  1.363386791E+02  1.250000000E+02  0.00000E+00  9.000E+00
      25     1     1     2     0     0 -2.959989615E+01 -4.825377563E+01 -1.621844031E+02  2.124461375E+02  1.250000000E+02  0.00000E+00  9.000E+00
      21     1     1     2   511   502 -1.044905744E+01  1.351076225E+01  7.595479988E+01  7.785149404E+01  9.536743164E-07  0.00000E+00  9.000E+00
#rwgt            1           1   3.9985713529775625E-002          10       86647           0
</event>
<event>
      5   9999  3.79277E-02  4.43882E+01 -1.00000E+00  1.42091E-01
      21    -1     0     0   512   501  0.000000000E+00  0.000000000E+00  7.540775414E+02  7.540775414E+02  0.000000000E+00  0.00000E+00  9.000E+00
      21    -1     0     0   501   502  0.000000000E+00  0.000000000E+00 -1.283761840E+02  1.283761840E+02  0.000000000E+00  0.00000E+00  9.000E+00
      25     1     1     2     0     0  3.040763336E+01 -1.984350727E+02  7.170251601E+01  2.471180953E+02  1.250000000E+02  0.00000E+00  9.000E+00
      25     1     1     2     0     0 -4.401583305E+01  1.561842917E+02  2.286796610E+02  3.070021399E+02  1.250000000E+02  0.00000E+00  9.000E+00
      21     1     1     2   512   502  1.360819969E+01  4.225078096E+01  3.253191805E+02  3.283334902E+02  5.394796609E-06  0.00000E+00  9.000E+00
#rwgt            1           1   4.0487917366675549E-002          10       86791           0
</event>
<event>
      5   9999  3.79277E-02  1.92182E+01 -1.00000E+00  1.67811E-01
       2    -1     0     0   502     0  0.000000000E+00  0.000000000E+00  1.173171812E+03  1.173171812E+03  0.000000000E+00  0.00000E+00  9.000E+00
      21    -1     0     0   501   502  0.000000000E+00  0.000000000E+00 -9.085828476E+01  9.085828476E+01  0.000000000E+00  0.00000E+00  9.000E+00
      25     1     1     2     0     0  1.828911534E+01  4.904455047E+01  1.623072387E+02  2.114438446E+02  1.250000000E+02  0.00000E+00  9.000E+00
      25     1     1     2     0     0  9.001475396E-01 -4.798979129E+01  1.528380230E+00  1.339073048E+02  1.250000000E+02  0.00000E+00  9.000E+00
       2     1     1     2   501     0 -1.918926288E+01 -1.054759182E+00  9.184779083E+02  9.186789474E+02  0.000000000E+00  0.00000E+00  9.000E+00
#rwgt            1           1  0.12017747469187622               10       86940           0
</event>
<event>
      5   9999 -4.12671E-02  7.31396E+01 -1.00000E+00  1.30263E-01
      21    -1     0     0   502   501  0.000000000E+00  0.000000000E+00  5.579843714E+02  5.579843714E+02  0.000000000E+00  0.00000E+00  9.000E+00
      21    -1     0     0   501   511  0.000000000E+00  0.000000000E+00 -3.664660100E+02  3.664660100E+02  0.000000000E+00  0.00000E+00  9.000E+00
      25     1     1     2     0     0 -2.791300842E+02 -9.820959631E+00  3.373381665E+02  4.554471360E+02  1.250000000E+02  0.00000E+00  9.000E+00
      25     1     1     2     0     0  3.461622474E+02  3.907998019E+01 -1.397425881E+02  3.956115990E+02  1.250000000E+02  0.00000E+00  9.000E+00
      21     1     1     2   502   511 -6.703216324E+01 -2.925902056E+01 -6.077217040E+00  7.339164639E+01  3.576278687E-07  0.00000E+00  9.000E+00
#rwgt            1           1 -0.33531586136446684               10       87279           0
</event>
<event>
      5   9999  3.79277E-02  1.44781E+01 -1.00000E+00  1.78845E-01
      21    -1     0     0   502   501  0.000000000E+00  0.000000000E+00  2.366298862E+02  2.366298862E+02  0.000000000E+00  0.00000E+00  9.000E+00
      21    -1     0     0   501   512  0.000000000E+00  0.000000000E+00 -7.189589891E+02  7.189589891E+02  0.000000000E+00  0.00000E+00  9.000E+00
      25     1     1     2     0     0 -2.969375800E+02 -2.012224456E+02 -3.169470888E+02  4.947149241E+02  1.250000000E+02  0.00000E+00  9.000E+00
      25     1     1     2     0     0  3.114105437E+02  2.008352485E+02 -1.137903598E+02  4.072892949E+02  1.250000000E+02  0.00000E+00  9.000E+00
      21     1     1     2   502   512 -1.447296366E+01  3.871971148E-01 -5.159165430E+01  5.358465631E+01  6.743495762E-07  0.00000E+00  9.000E+00
#rwgt            1           1   3.0815038434627698E-002          10       87474           0
</event>
<event>
      5   9999  3.79277E-02  6.16906E+01 -1.00000E+00  1.34062E-01
      21    -1     0     0   511   501  0.000000000E+00  0.000000000E+00  1.651489041E+02  1.651489041E+02  0.000000000E+00  0.00000E+00  9.000E+00
      21    -1     0     0   501   502  0.000000000E+00  0.000000000E+00 -8.666856566E+02  8.666856566E+02  0.000000000E+00  0.00000E+00  9.000E+00
      25     1     1     2     0     0  2.723788415E+02  8.857259174E+01 -1.082792085E+02  3.307336153E+02  1.250000000E+02  0.00000E+00  9.000E+00
      25     1     1     2     0     0 -2.374291637E+02 -1.394081338E+02 -5.430603165E+02  6.215679712E+02  1.250000000E+02  0.00000E+00  9.000E+00
      21     1     1     2   511   502 -3.494967784E+01  5.083554207E+01 -5.019722750E+01  7.953297409E+01  6.743495762E-07  0.00000E+00  9.000E+00
#rwgt            1           1  0.13962495630579766               10       87947           0
</event>
<event>
      5   9999  3.79277E-02  2.08772E+01 -1.00000E+00  1.64845E-01
       1    -1     0     0   502     0  0.000000000E+00  0.000000000E+00  3.099521104E+03  3.099521104E+03  0.000000000E+00  0.00000E+00  9.000E+00
      21    -1     0     0   501   502  0.000000000E+00  0.000000000E+00 -1.299481882E+02  1.299481882E+02  0.000000000E+00  0.00000E+00  9.000E+00
      25     1     1     2     0     0 -1.442234269E+02 -7.519619064E+01  3.371540323E+02  3.946551728E+02  1.250000000E+02  0.00000E+00  9.000E+00
      25     1     1     2     0     0  1.283114421E+02  8.871162135E+01 -2.401680829E+00  1.999108451E+02  1.250000000E+02  0.00000E+00  9.000E+00
       1     1     1     2   501     0  1.591198480E+01 -1.351543071E+01  2.634820564E+03  2.634903274E+03  4.315837288E-05  0.00000E+00  9.000E+00
#rwgt            1           1   4.1562575448539349E-002          10       88079           0
</event>
<event>
      5   9999  3.79277E-02  1.70416E+02 -1.00000E+00  1.14239E-01
      21    -1     0     0   511   501  0.000000000E+00  0.000000000E+00  1.028989558E+03  1.028989558E+03  0.000000000E+00  0.00000E+00  9.000E+00
      21    -1     0     0   501   502  0.000000000E+00  0.000000000E+00 -1.557886389E+02  1.557886389E+02  0.000000000E+00  0.00000E+00  9.000E+00
      25     1     1     2     0     0 -1.235356126E+02  6.021973861E+01 -5.208005010E+01  1.929372855E+02  1.250000000E+02  0.00000E+00  9.000E+00
      25     1     1     2     0     0  2.895034535E+01  8.153853459E+01  2.279922332E+02  2.740294027E+02  1.250000000E+02  0.00000E+00  9.000E+00
      21     1     1     2   511   502  9.458526726E+01 -1.417582732E+02  6.972887361E+02  7.178115089E+02  7.629394531E-06  0.00000E+00  9.000E+00
#rwgt            1           1   3.5639058639319723E-002          10       88433           0
</event>
<event>
      5   9999  3.79277E-02  1.80114E+01 -1.00000E+00  1.70211E-01
      21    -1     0     0   502   501  0.000000000E+00  0.000000000E+00  2.853296494E+02  2.853296494E+02  0.000000000E+00  0.00000E+00  9.000E+00
      21    -1     0     0   501   512  0.000000000E+00  0.000000000E+00 -1.670676089E+02  1.670676089E+02  0.000000000E+00  0.00000E+00  9.000E+00
      25     1     1     2     0     0  8.988133353E+01 -1.130757973E+02  1.287942829E+02  2.303861049E+02  1.250000000E+02  0.00000E+00  9.000E+00
      25     1     1     2     0     0 -7.589440838E+01  1.244237667E+02  1.292066354E+01  1.924400647E+02  1.250000000E+02  0.00000E+00  9.000E+00
      21     1     1     2   502   512 -1.398692515E+01 -1.134796946E+01 -2.345290597E+01  2.957108866E+01  3.371747881E-07  0.00000E+00  9.000E+00
#rwgt            1           1   3.3983580009808050E-002          10       88486           0
</event>
<event>
      5   9999  3.79277E-02  4.62908E+01 -1.00000E+00  1.41013E-01
      21    -1     0     0   502   501  0.000000000E+00  0.000000000E+00  5.903401909E+02  5.903401909E+02  0.000000000E+00  0.00000E+00  9.000E+00
      21    -1     0     0   501   511  0.000000000E+00  0.000000000E+00 -1.299963496E+02  1.299963496E+02  0.000000000E+00  0.00000E+00  9.000E+00
      25     1     1     2     0     0  8.425411894E+01  1.057397844E+02  3.258421040E+02  3.742696024E+02  1.250000000E+02  0.00000E+00  9.000E+00
      25     1     1     2     0     0 -3.866400907E+01 -1.137636243E+02  2.007427830E+02  2.652540909E+02  1.250000000E+02  0.00000E+00  9.000E+00
      21     1     1     2   502   511 -4.559010986E+01  8.023839950E+00 -6.624104573E+01  8.081284715E+01  0.000000000E+00  0.00000E+00  9.000E+00
#rwgt            1           1   4.0263798115549025E-002          10       88641           0
</event>
<event>
      5   9999  3.79277E-02  2.36071E+01 -1.00000E+00  1.60639E-01
      21    -1     0     0   502   501  0.000000000E+00  0.000000000E+00  9.325860801E+01  9.325860801E+01  0.000000000E+00  0.00000E+00  9.000E+00
      21    -1     0     0   501   512  0.000000000E+00  0.000000000E+00 -3.196916600E+02  3.196916600E+02  0.000000000E+00  0.00000E+00  9.000E+00
      25     1     1     2     0     0  5.428579856E+01  3.668825155E+01 -2.047535243E+02  2.486804807E+02  1.250000000E+02  0.00000E+00  9.000E+00
      25     1     1     2     0     0 -5.105461197E+01 -1.330337257E+01 -5.767299638E+00  1.358006439E+02  1.250000000E+02  0.00000E+00  9.000E+00
      21     1     1     2   502   512 -3.231186587E+00 -2.338487898E+01 -1.591222799E+01  2.846914349E+01  2.384185791E-07  0.00000E+00  9.000E+00
#rwgt            1           1   4.7829525262668558E-002          10       88778           0
</event>
<event>
      5   9999  3.79277E-02  5.80893E+01 -1.00000E+00  1.35459E-01
      21    -1     0     0   502   511  0.000000000E+00  0.000000000E+00  3.007495707E+02  3.007495707E+02  0.000000000E+00  0.00000E+00  9.000E+00
      21    -1     0     0   501   502  0.000000000E+00  0.000000000E+00 -2.333484972E+02  2.333484972E+02  0.000000000E+00  0.00000E+00  9.000E+00
      25     1     1     2     0     0 -4.368552022E+01 -9.252422115E+01  2.047772468E+02  2.608215424E+02  1.250000000E+02  0.00000E+00  9.000E+00
      25     1     1     2     0     0  3.989034606E+01  3.455900130E+01 -1.610145531E+02  2.105617501E+02  1.250000000E+02  0.00000E+00  9.000E+00
      21     1     1     2   501   511  3.795174161E+00  5.796521985E+01  2.363837978E+01  6.271477543E+01  8.259061849E-07  0.00000E+00  9.000E+00
#rwgt            1           1   4.6595178481848812E-002          10       88936           0
</event>
<event>
      5   9999  3.79277E-02  3.25287E+01 -1.00000E+00  1.50638E-01
      21    -1     0     0   502   501  0.000000000E+00  0.000000000E+00  3.160513624E+02  3.160513624E+02  0.000000000E+00  0.00000E+00  9.000E+00
      21    -1     0     0   501   512  0.000000000E+00  0.000000000E+00 -1.656637031E+03  1.656637031E+03  0.000000000E+00  0.00000E+00  9.000E+00
      25     1     1     2     0     0  1.464736553E+02  9.953887215E+01 -1.582367549E+02  2.683773265E+02  1.250000000E+02  0.00000E+00  9.000E+00
      25     1     1     2     0     0 -1.472354253E+02 -1.320586726E+02  2.083132415E+02  3.132685271E+02  1.250000000E+02  0.00000E+00  9.000E+00
      21     1     1     2   502   512  7.617699772E-01  3.251980048E+01 -1.390662156E+03  1.391042540E+03  1.525878906E-05  0.00000E+00  9.000E+00
#rwgt            1           1   3.4926201911305292E-002          10       89047           0
</event>
<event>
      5   9999 -3.79277E-02  2.60825E+01 -1.00000E+00  1.57384E-01
      21    -1     0     0   502   501  0.000000000E+00  0.000000000E+00  1.614069141E+03  1.614069141E+03  0.000000000E+00  0.00000E+00  9.000E+00
       2    -1     0     0   501     0  0.000000000E+00  0.000000000E+00 -3.375402294E+01  3.375402294E+01  0.000000000E+00  0.00000E+00  9.000E+00
      25     1     1     2     0     0 -7.546738585E+01  7.580346651E+01  2.898319736E+02  3.332702579E+02  1.250000000E+02  0.00000E+00  9.000E+00
      25     1     1     2     0     0  7.275617942E+01 -1.017446319E+02  1.267539772E+03  1.279815419E+03  1.250000000E+02  0.00000E+00  9.000E+00
       2     1     1     2   502     0  2.711206425E+00  2.594116543E+01  2.294337247E+01  3.473748759E+01  8.259061849E-07  0.00000E+00  9.000E+00
#rwgt            1           1  -1.7021053020817828E-002          10       89310           0
</event>
<event>
      5   9999 -3.79277E-02  4.39045E+01 -1.00000E+00  1.42375E-01
      21    -1     0     0   502   501  0.000000000E+00  0.000000000E+00  1.936782040E+01  1.936782040E+01  0.000000000E+00  0.00000E+00  9.000E+00
       1    -1     0     0   501     0  0.000000000E+00  0.000000000E+00 -1.868916014E+03  1.868916014E+03  0.000000000E+00  0.00000E+00  9.000E+00
      25     1     1     2     0     0  8.265449031E+01  2.657969702E+01 -7.876930233E+02  8.022615185E+02  1.250000000E+02  0.00000E+00  9.000E+00
      25     1     1     2     0     0 -1.108285402E+02 -6.025199564E+01 -7.307940366E+02  7.520626252E+02  1.250000000E+02  0.00000E+00  9.000E+00
       1     1     1     2   502     0  2.817404993E+01  3.367229862E+01 -3.310611339E+02  3.339596910E+02  0.000000000E+00  0.00000E+00  9.000E+00
#rwgt            1           1  -7.0617046895970217E-002          10       89480           0
</event>
<event>
      5   9999  3.79277E-02  8.33884E+01 -1.00000E+00  1.27484E-01
      21    -1     0     0   502   501  0.000000000E+00  0.000000000E+00  6.814561124E+02  6.814561124E+02  0.000000000E+00  0.00000E+00  9.000E+00
      21    -1     0     0   511   502  0.000000000E+00  0.000000000E+00 -9.878506058E+01  9.878506058E+01  0.000000000E+00  0.00000E+00  9.000E+00
      25     1     1     2     0     0 -1.723323523E+02 -2.409738026E+01  3.020004575E+02  3.702815141E+02  1.250000000E+02  0.00000E+00  9.000E+00
      25     1     1     2     0     0  9.720909240E+01  6.029299524E+01  2.791594277E+02  3.265575585E+02  1.250000000E+02  0.00000E+00  9.000E+00
      21     1     1     2   511   501  7.512325985E+01 -3.619561498E+01  1.511166556E+00  8.340210032E+01  1.537638109E-06  0.00000E+00  9.000E+00
#rwgt            1           1   3.7328758810681296E-002          10       89597           0
</event>
<event>
      5   9999  3.79277E-02  2.23764E+01 -1.00000E+00  1.62444E-01
      21    -1     0     0   502   501  0.000000000E+00  0.000000000E+00  2.078621279E+01  2.078621279E+01  0.000000000E+00  0.00000E+00  9.000E+00
       1    -1     0     0   501     0  0.000000000E+00  0.000000000E+00 -1.718614673E+03  1.718614673E+03  0.000000000E+00  0.00000E+00  9.000E+00
      25     1     1     2     0     0 -7.926967087E+01 -2.324601497E+00 -1.207137982E+03  1.216180987E+03  1.250000000E+02  0.00000E+00  9.000E+00
      25     1     1     2     0     0  8.789346302E+01 -1.832326637E+01 -3.744308072E+02  4.048264225E+02  1.250000000E+02  0.00000E+00  9.000E+00
       1     1     1     2   502     0 -8.623792146E+00  2.064786786E+01 -1.162596705E+02  1.183934763E+02  1.348699152E-06  0.00000E+00  9.000E+00
#rwgt            1           1   4.3701189261752441E-002          10       89651           0
</event>
<event>
      5   9999  3.79277E-02  8.67306E+01 -1.00000E+00  1.26674E-01
      21    -1     0     0   502   501  0.000000000E+00  0.000000000E+00  9.230037558E+02  9.230037558E+02  0.000000000E+00  0.00000E+00  9.000E+00
      21    -1     0     0   501   511  0.000000000E+00  0.000000000E+00 -6.528918336E+01  6.528918336E+01  0.000000000E+00  0.00000E+00  9.000E+00
      25     1     1     2     0     0 -1.152516214E+01 -1.248822984E+02  2.925701256E+02  3.419805494E+02  1.250000000E+02  0.00000E+00  9.000E+00
      25     1     1     2     0     0 -5.465763109E+01  1.809362264E+02  4.198715853E+02  4.771189818E+02  1.250000000E+02  0.00000E+00  9.000E+00
      21     1     1     2   502   511  6.618279322E+01 -5.605392805E+01  1.452728615E+02  1.691934079E+02  2.697398305E-06  0.00000E+00  9.000E+00
#rwgt            1           1   3.5762594774918471E-002          10       89801           0
</event>
<event>
      5   9999  3.79277E-02  9.12995E+01 -1.00000E+00  1.25632E-01
      21    -1     0     0   502   512  0.000000000E+00  0.000000000E+00  2.412496156E+02  2.412496156E+02  0.000000000E+00  0.00000E+00  9.000E+00
      21    -1     0     0   501   502  0.000000000E+00  0.000000000E+00 -3.925442259E+02  3.925442259E+02  0.000000000E+00  0.00000E+00  9.000E+00
      25     1     1     2     0     0 -3.769383839E+01  1.626874799E+02 -1.478863642E+02  2.557018152E+02  1.250000000E+02  0.00000E+00  9.000E+00
      25     1     1     2     0     0  5.073620302E+01 -2.530506365E+02 -1.253632342E+00  2.867670806E+02  1.250000000E+02  0.00000E+00  9.000E+00
      21     1     1     2   501   512 -1.304236463E+01  9.036315661E+01 -2.154613813E+00  9.132494571E+01  1.512009012E-06  0.00000E+00  9.000E+00
#rwgt            1           1   4.6135961682939992E-002          10       89884           0
</event>
<event>
      5   9999  3.79277E-02  2.89284E+01 -1.00000E+00  1.54145E-01
      21    -1     0     0   502   501  0.000000000E+00  0.000000000E+00  1.783432470E+03  1.783432470E+03  0.000000000E+00  0.00000E+00  9.000E+00
      21    -1     0     0   501   511  0.000000000E+00  0.000000000E+00 -5.423887925E+01  5.423887925E+01  0.000000000E+00  0.00000E+00  9.000E+00
      25     1     1     2     0     0 -3.645482414E+01  2.332050178E+02  6.464461064E+02  6.994505722E+02  1.250000000E+02  0.00000E+00  9.000E+00
      25     1     1     2     0     0  6.223307216E+01 -2.200774591E+02  1.077807334E+03  1.108873615E+03  1.250000000E+02  0.00000E+00  9.000E+00
      21     1     1     2   502   511 -2.577824803E+01 -1.312755877E+01  4.940150273E+00  2.934716264E+01  7.907449699E-07  0.00000E+00  9.000E+00
#rwgt            1           1   4.4672387385142842E-002          10       89944           0
</event>
<event>
      5   9999 -3.79277E-02  1.20137E+02 -1.00000E+00  1.20347E-01
      21    -1     0     0   512   501  0.000000000E+00  0.000000000E+00  2.242922986E+03  2.242922986E+03  0.000000000E+00  0.00000E+00  9.000E+00
      21    -1     0     0   501   502  0.000000000E+00  0.000000000E+00 -1.324303557E+02  1.324303557E+02  0.000000000E+00  0.00000E+00  9.000E+00
      25     1     1     2     0     0  1.079793027E+01 -3.340819397E+02  2.981632287E+02  4.650308041E+02  1.250000000E+02  0.00000E+00  9.000E+00
      25     1     1     2     0     0 -1.067337186E+02  2.617681084E+02  4.693894441E+02  5.620196433E+02  1.250000000E+02  0.00000E+00  9.000E+00
      21     1     1     2   512   502  9.593578829E+01  7.231383130E+01  1.342939957E+03  1.348302894E+03  2.157918644E-05  0.00000E+00  9.000E+00
#rwgt            1           1 -0.13695955845261926               10       90137           0
</event>
<event>
      5   9999  3.79277E-02  9.87228E+01 -1.00000E+00  1.24080E-01
      21    -1     0     0   502   501  0.000000000E+00  0.000000000E+00  2.997224413E+02  2.997224413E+02  0.000000000E+00  0.00000E+00  9.000E+00
      21    -1     0     0   501   511  0.000000000E+00  0.000000000E+00 -4.499377427E+02  4.499377427E+02  0.000000000E+00  0.00000E+00  9.000E+00
      25     1     1     2     0     0 -1.226533428E+01 -2.035562890E+02 -2.352261358E+02  3.354727055E+02  1.250000000E+02  0.00000E+00  9.000E+00
      25     1     1     2     0     0  1.047541200E+02  1.690307632E+02  1.650677932E+02  2.870839614E+02  1.250000000E+02  0.00000E+00  9.000E+00
      21     1     1     2   502   511 -9.248878571E+01  3.452552576E+01 -8.005695875E+01  1.271035171E+02  2.523185073E-06  0.00000E+00  9.000E+00
#rwgt            1           1  0.36370261123019415               10       90229           0
</event>
<event>
      5   9999  3.79277E-02  3.90780E+01 -1.00000E+00  1.45471E-01
      21    -1     0     0   502   501  0.000000000E+00  0.000000000E+00  2.329926546E+02  2.329926546E+02  0.000000000E+00  0.00000E+00  9.000E+00
      21    -1     0     0   512   502  0.000000000E+00  0.000000000E+00 -7.545624736E+02  7.545624736E+02  0.000000000E+00  0.00000E+00  9.000E+00
      25     1     1     2     0     0 -2.337854150E+02  8.612763422E+01  5.880605158E+01  2.848802228E+02  1.250000000E+02  0.00000E+00  9.000E+00
      25     1     1     2     0     0  2.038920877E+02 -1.112967136E+02 -2.295564389E+02  3.496857168E+02  1.250000000E+02  0.00000E+00  9.000E+00
      21     1     1     2   512   501  2.989332726E+01  2.516907941E+01 -3.508194317E+02  3.529891885E+02  0.000000000E+00  0.00000E+00  9.000E+00
#rwgt            1           1   4.9084622639761254E-003          10       90305           0
</event>
<event>
      5   9999  3.79277E-02  2.55725E+01 -1.00000E+00  1.58018E-01
      21    -1     0     0   502   501  0.000000000E+00  0.000000000E+00  8.994449229E+02  8.994449229E+02  0.000000000E+00  0.00000E+00  9.000E+00
      21    -1     0     0   501   511  0.000000000E+00  0.000000000E+00 -4.799806882E+01  4.799806882E+01  0.000000000E+00  0.00000E+00  9.000E+00
      25     1     1     2     0     0  7.263033698E-01  4.322638758E+01  9.310063613E+01  1.617460248E+02  1.250000000E+02  0.00000E+00  9.000E+00
      25     1     1     2     0     0  2.300992262E+01 -3.371102711E+01  7.456323911E+02  7.571383972E+02  1.250000000E+02  0.00000E+00  9.000E+00
      21     1     1     2   502   511 -2.373622599E+01 -9.515360474E+00  1.271382689E+01  2.855856970E+01  6.529361695E-07  0.00000E+00  9.000E+00
#rwgt            1           1   3.5538568143807604E-002          10       90408           0
</event>
<event>
      5   9999  3.79277E-02  1.02066E+02 -1.00000E+00  1.23430E-01
      21    -1     0     0   502   501  0.000000000E+00  0.000000000E+00  8.567963139E+02  8.567963139E+02  0.000000000E+00  0.00000E+00  9.000E+00
      21    -1     0     0   512   502  0.000000000E+00  0.000000000E+00 -9.367282900E+02  9.367282900E+02  0.000000000E+00  0.00000E+00  9.000E+00
      25     1     1     2     0     0  1.959582937E+01  1.043911688E+02  7.797686528E+01  1.816229726E+02  1.250000000E+02  0.00000E+00  9.000E+00
      25     1     1     2     0     0  3.882456735E+01 -2.069770198E+01  7.179694503E+02  7.300964823E+02  1.250000000E+02  0.00000E+00  9.000E+00
      21     1     1     2   512   501 -5.842039672E+01 -8.369346681E+01 -8.758782917E+02  8.818051491E+02  1.078959322E-05  0.00000E+00  9.000E+00
#rwgt            1           1   4.9404356836819131E-002          10       90547           0
</event>
<event>
      5   9999  3.79277E-02  7.21801E+01 -1.00000E+00  1.30550E-01
      21    -1     0     0   511   501  0.000000000E+00  0.000000000E+00  2.404145213E+03  2.404145213E+03  0.000000000E+00  0.00000E+00  9.000E+00
      21    -1     0     0   501   502  0.000000000E+00  0.000000000E+00 -4.811152580E+01  4.811152580E+01  0.000000000E+00  0.00000E+00  9.000E+00
      25     1     1     2     0     0  1.056229196E+01  1.763920069E+02  6.822696494E+02  7.157810955E+02  1.250000000E+02  0.00000E+00  9.000E+00
      25     1     1     2     0     0  6.020639531E+01 -1.621875952E+02  3.445383723E+02  4.052916432E+02  1.250000000E+02  0.00000E+00  9.000E+00
      21     1     1     2   511   502 -7.076868727E+01 -1.420441176E+01  1.329225666E+03  1.331184000E+03  0.000000000E+00  0.00000E+00  9.000E+00
#rwgt            1           1   4.7715555803916204E-002          10       90639           0
</event>
<event>
      5   9999  3.79277E-02  1.42071E+01 -1.00000E+00  1.79635E-01
      21    -1     0     0   502   501  0.000000000E+00  0.000000000E+00  6.285417375E+02  6.285417375E+02  0.000000000E+00  0.00000E+00  9.000E+00
       2    -1     0     0   501     0  0.000000000E+00  0.000000000E+00 -7.222170334E+02  7.222170334E+02  0.000000000E+00  0.00000E+00  9.000E+00
      25     1     1     2     0     0  8.217381834E+01 -1.130985495E+02 -9.914262713E+01  2.121275061E+02  1.250000000E+02  0.00000E+00  9.000E+00
      25     1     1     2     0     0 -8.654310632E+01  1.266170885E+02  5.548466648E+02  5.890682624E+02  1.250000000E+02  0.00000E+00  9.000E+00
       2     1     1     2   502     0  4.369287979E+00 -1.351853903E+01 -5.493793335E+02  5.495630024E+02  0.000000000E+00  0.00000E+00  9.000E+00
#rwgt            1           1   5.2652650206070246E-002          10       90693           0
</event>
<event>
      5   9999  3.79277E-02  1.68855E+01 -1.00000E+00  1.72672E-01
      21    -1     0     0   511   501  0.000000000E+00  0.000000000E+00  1.635866090E+03  1.635866090E+03  0.000000000E+00  0.00000E+00  9.000E+00
      21    -1     0     0   501   502  0.000000000E+00  0.000000000E+00 -6.909304105E+01  6.909304105E+01  0.000000000E+00  0.00000E+00  9.000E+00
      25     1     1     2     0     0 -5.897613669E+01  2.004923223E+02  8.477826420E+02  8.820633561E+02  1.250000000E+02  0.00000E+00  9.000E+00
      25     1     1     2     0     0  5.375262852E+01 -2.165495575E+02  2.639035539E+02  3.674957710E+02  1.250000000E+02  0.00000E+00  9.000E+00
      21     1     1     2   511   502  5.223508171E+00  1.605723519E+01  4.550868533E+02  4.554000042E+02  5.394796609E-06  0.00000E+00  9.000E+00
#rwgt            1           1   3.4458688759634995E-002          10       90986           0
</event>
<event>
      5   9999  3.79277E-02  1.91575E+01 -1.00000E+00  1.67926E-01
      21    -1     0     0   502   501  0.000000000E+00  0.000000000E+00  3.322689662E+02  3.322689662E+02  0.000000000E+00  0.00000E+00  9.000E+00
      21    -1     0     0   512   502  0.000000000E+00  0.000000000E+00 -9.704558756E+01  9.704558756E+01  0.000000000E+00  0.00000E+00  9.000E+00
      25     1     1     2     0     0 -5.541837237E+01 -6.852988566E+01  1.931360670E+02  2.463616886E+02  1.250000000E+02  0.00000E+00  9.000E+00
      25     1     1     2     0     0  5.998162229E+01  4.992379875E+01  5.768468088E+01  1.582488645E+02  1.250000000E+02  0.00000E+00  9.000E+00
      21     1     1     2   512   501 -4.563249920E+00  1.860608690E+01 -1.559736930E+01  2.470400067E+01  3.769728732E-07  0.00000E+00  9.000E+00
#rwgt            1           1   4.0572085932398451E-002          10       91172           0
</event>
<event>
      5   9999  3.79277E-02  3.34741E+01 -1.00000E+00  1.49806E-01
      21    -1     0     0   502   501  0.000000000E+00  0.000000000E+00  5.363848419E+01  5.363848419E+01  0.000000000E+00  0.00000E+00  9.000E+00
      21    -1     0     0   511   502  0.000000000E+00  0.000000000E+00 -8.443364121E+02  8.443364121E+02  0.000000000E+00  0.00000E+00  9.000E+00
      25     1     1     2     0     0  6.726983872E+01  9.171322968E+01 -1.893833087E+02  2.538258956E+02  1.250000000E+02  0.00000E+00  9.000E+00
      25     1     1     2     0     0 -8.094338098E+01 -1.222672414E+02 -4.561640650E+02  4.951886140E+02  1.250000000E+02  0.00000E+00  9.000E+00
      21     1     1     2   511   501  1.367354226E+01  3.055401171E+01 -1.451505542E+02  1.489603866E+02  0.000000000E+00  0.00000E+00  9.000E+00
#rwgt            1           1   3.6419644267437150E-002          10       91330           0
</event>
<event>
      5   9999  3.79277E-02  1.03894E+02 -1.00000E+00  1.23086E-01
      21    -1     0     0   502   501  0.000000000E+00  0.000000000E+00  3.899946243E+02  3.899946243E+02  0.000000000E+00  0.00000E+00  9.000E+00
      21    -1     0     0   512   502  0.000000000E+00  0.000000000E+00 -4.886927788E+02  4.886927788E+02  0.000000000E+00  0.00000E+00  9.000E+00
      25     1     1     2     0     0  2.154296624E+01  1.211173514E+02 -1.998909863E+02  2.659227681E+02  1.250000000E+02  0.00000E+00  9.000E+00
      25     1     1     2     0     0  3.997553370E+01 -2.048395431E+02  3.013255875E+02  3.872717281E+02  1.250000000E+02  0.00000E+00  9.000E+00
      21     1     1     2   512   501 -6.151849993E+01  8.372219172E+01 -2.001327556E+02  2.254929070E+02  2.697398305E-06  0.00000E+00  9.000E+00
#rwgt            1           1   3.5422916372712755E-002          10       91479           0
</event>
<event>
      5   9999  3.79277E-02  3.94628E+01 -1.00000E+00  1.45205E-01
      21    -1     0     0   511   501  0.000000000E+00  0.000000000E+00  9.458310114E+01  9.458310114E+01  0.000000000E+00  0.00000E+00  9.000E+00
      21    -1     0     0   501   502  0.000000000E+00  0.000000000E+00 -6.335202453E+02  6.335202453E+02  0.000000000E+00  0.00000E+00  9.000E+00
      25     1     1     2     0     0  1.212077530E+02  6.193925352E+00 -3.389693660E+01  1.774927785E+02  1.250000000E+02  0.00000E+00  9.000E+00
      25     1     1     2     0     0 -1.061952279E+02 -4.268960395E+01 -4.625433220E+02  4.926166394E+02  1.250000000E+02  0.00000E+00  9.000E+00
      21     1     1     2   511   502 -1.501252508E+01  3.649567860E+01 -4.249688556E+01  5.799392854E+01  1.348699152E-06  0.00000E+00  9.000E+00
#rwgt            1           1   4.8952038749077019E-002          10       91551           0
</event>
<event>
      5   9999  3.79277E-02  1.82138E+02 -1.00000E+00  1.13147E-01
       2    -1     0     0   502     0  0.000000000E+00  0.000000000E+00  3.067972437E+03  3.067972437E+03  0.000000000E+00  0.00000E+00  9.000E+00
      21    -1     0     0   501   502  0.000000000E+00  0.000000000E+00 -6.110808342E+01  6.110808342E+01  0.000000000E+00  0.00000E+00  9.000E+00
      25     1     1     2     0     0  3.645383755E+01 -2.360530572E+02  5.603417247E+02  6.218181218E+02  1.250000000E+02  0.00000E+00  9.000E+00
      25     1     1     2     0     0 -2.175704973E+02  2.553103735E+02  1.402044140E+03  1.447022142E+03  1.250000000E+02  0.00000E+00  9.000E+00
       2     1     1     2   501     0  1.811166598E+02 -1.925731633E+01  1.044478489E+03  1.060240257E+03  2.157918644E-05  0.00000E+00  9.000E+00
#rwgt            1           1   3.0530820470268210E-002          10       91671           0
</event>
<event>
      5   9999  3.79277E-02  1.03696E+01 -1.00000E+00  1.93953E-01
      21    -1     0     0   502   501  0.000000000E+00  0.000000000E+00  4.572494530E+01  4.572494530E+01  0.000000000E+00  0.00000E+00  9.000E+00
       1    -1     0     0   501     0  0.000000000E+00  0.000000000E+00 -3.217560108E+03  3.217560108E+03  0.000000000E+00  0.00000E+00  9.000E+00
      25     1     1     2     0     0  2.235309263E+01  1.722234245E+02 -5.335284199E+02  5.748374931E+02  1.250000000E+02  0.00000E+00  9.000E+00
      25     1     1     2     0     0 -3.115941111E+01 -1.667482651E+02 -4.179175751E+02  4.680341787E+02  1.250000000E+02  0.00000E+00  9.000E+00
       1     1     1     2   502     0  8.806318479E+00 -5.475159422E+00 -2.220389168E+03  2.220413381E+03  3.051757812E-05  0.00000E+00  9.000E+00
#rwgt            1           1   2.9222634443828190E-002          10       91704           0
</event>
<event>
      5   9999  3.79277E-02  2.36098E+01 -1.00000E+00  1.60635E-01
      21    -1     0     0   502   501  0.000000000E+00  0.000000000E+00  1.775347233E+02  1.775347233E+02  0.000000000E+00  0.00000E+00  9.000E+00
      21    -1     0     0   501   511  0.000000000E+00  0.000000000E+00 -7.236575788E+02  7.236575788E+02  0.000000000E+00  0.00000E+00  9.000E+00
      25     1     1     2     0     0  7.971307351E+01 -2.881363358E+02 -2.637537198E+02  4.178130525E+02  1.250000000E+02  0.00000E+00  9.000E+00
      25     1     1     2     0     0 -8.441052827E+01  2.649985763E+02 -1.338612479E+02  3.330063309E+02  1.250000000E+02  0.00000E+00  9.000E+00
      21     1     1     2   502   511  4.697454760E+00  2.313775951E+01 -1.485078877E+02  1.503729188E+02  2.697398305E-06  0.00000E+00  9.000E+00
#rwgt            1           1   2.3853289627439985E-002          10       92070           0
</event>
<event>
      5   9999  3.79277E-02  5.67578E+01 -1.00000E+00  1.36005E-01
      21    -1     0     0   502   501  0.000000000E+00  0.000000000E+00  4.027812457E+02  4.027812457E+02  0.000000000E+00  0.00000E+00  9.000E+00
      21    -1     0     0   512   502  0.000000000E+00  0.000000000E+00 -4.355589797E+02  4.355589797E+02  0.000000000E+00  0.00000E+00  9.000E+00
      25     1     1     2     0     0  4.502206004E+01 -1.850929221E+02 -9.803043390E+00  2.280514753E+02  1.250000000E+02  0.00000E+00  9.000E+00
      25     1     1     2     0     0 -9.951421324E+01  1.692165789E+02  2.440914594E+02  3.372580166E+02  1.250000000E+02  0.00000E+00  9.000E+00
      21     1     1     2   512   501  5.449215321E+01  1.587634326E+01 -2.670661500E+02  2.730307336E+02  3.814697266E-06  0.00000E+00  9.000E+00
#rwgt            1           1   3.3296122959113127E-002          10       92245           0
</event>
<event>
      5   9999  3.79277E-02  1.56459E+01 -1.00000E+00  1.75676E-01
      21    -1     0     0   502   511  0.000000000E+00  0.000000000E+00  2.374764761E+02  2.374764761E+02  0.000000000E+00  0.00000E+00  9.000E+00
      21    -1     0     0   501   502  0.000000000E+00  0.000000000E+00 -6.507521898E+02  6.507521898E+02  0.000000000E+00  0.00000E+00  9.000E+00
      25     1     1     2     0     0  9.077850138E+01  4.326837440E+01  9.044343025E+00  1.606850605E+02  1.250000000E+02  0.00000E+00  9.000E+00
      25     1     1     2     0     0 -9.603760019E+01 -2.853283164E+01 -5.633318951E+02  5.856664299E+02  1.250000000E+02  0.00000E+00  9.000E+00
      21     1     1     2   501   511  5.259098814E+00 -1.473554276E+01  1.410118384E+02  1.418771755E+02  3.814697266E-06  0.00000E+00  9.000E+00
#rwgt            1           1   3.5235846626244210E-002          10       92529           0
</event>
<event>
      5   9999  3.79277E-02  3.42035E+01 -1.00000E+00  1.49187E-01
      21    -1     0     0   502   501  0.000000000E+00  0.000000000E+00  4.067868076E+02  4.067868076E+02  0.000000000E+00  0.00000E+00  9.000E+00
      21    -1     0     0   501   512  0.000000000E+00  0.000000000E+00 -6.381981398E+02  6.381981398E+02  0.000000000E+00  0.00000E+00  9.000E+00
      25     1     1     2     0     0  1.031078428E+02  8.187258205E+01  2.530291717E+02  3.114211114E+02  1.250000000E+02  0.00000E+00  9.000E+00
      25     1     1     2     0     0 -7.415353303E+01 -6.366470051E+01  7.329326394E+01  1.747822734E+02  1.250000000E+02  0.00000E+00  9.000E+00
      21     1     1     2   502   512 -2.895430974E+01 -1.820788154E+01 -5.577337678E+02  5.587815627E+02  0.000000000E+00  0.00000E+00  9.000E+00
#rwgt            1           1   3.5671971662493321E-002          10       92791           0
</event>
<event>
      5   9999  3.79277E-02  1.49974E+02 -1.00000E+00  1.16397E-01
      21    -1     0     0   502   501  0.000000000E+00  0.000000000E+00  2.547467546E+02  2.547467546E+02  0.000000000E+00  0.00000E+00  9.000E+00
      21    -1     0     0   511   502  0.000000000E+00  0.000000000E+00 -4.489062677E+02  4.489062677E+02  0.000000000E+00  0.00000E+00  9.000E+00
      25     1     1     2     0     0  6.376220107E+01 -7.864238475E+01 -3.303693446E+01  1.642153525E+02  1.250000000E+02  0.00000E+00  9.000E+00
      25     1     1     2     0     0 -1.900497924E+02 -2.250959923E+00  9.186870056E+01  2.453341569E+02  1.250000000E+02  0.00000E+00  9.000E+00
      21     1     1     2   511   501  1.262875913E+02  8.089334467E+01 -2.529912791E+02  2.941035128E+02  2.697398305E-06  0.00000E+00  9.000E+00
#rwgt            1           1   5.5140324318107420E-002          10       92929           0
</event>
<event>
      5   9999  3.79277E-02  2.45232E+01 -1.00000E+00  1.59380E-01
      21    -1     0     0   502   512  0.000000000E+00  0.000000000E+00  1.202207813E+03  1.202207813E+03  0.000000000E+00  0.00000E+00  9.000E+00
      21    -1     0     0   501   502  0.000000000E+00  0.000000000E+00 -2.769111154E+02  2.769111154E+02  0.000000000E+00  0.00000E+00  9.000E+00
      25     1     1     2     0     0  7.551329526E+01  1.570087293E+02 -2.025120356E+02  2.949408812E+02  1.250000000E+02  0.00000E+00  9.000E+00
      25     1     1     2     0     0 -6.800943736E+01 -1.336618154E+02  3.123149050E+02  3.683155771E+02  1.250000000E+02  0.00000E+00  9.000E+00
      21     1     1     2   501   512 -7.503857895E+00 -2.334691394E+01  8.154938285E+02  8.158624704E+02  1.525878906E-05  0.00000E+00  9.000E+00
#rwgt            1           1   1.7990177983241103E-002          10       93004           0
</event>
<event>
      5   9999  3.79277E-02  1.18343E+01 -1.00000E+00  1.87665E-01
      21    -1     0     0   502   501  0.000000000E+00  0.000000000E+00  1.408405584E+03  1.408405584E+03  0.000000000E+00  0.00000E+00  9.000E+00
      21    -1     0     0   501   511  0.000000000E+00  0.000000000E+00 -5.231135763E+01  5.231135763E+01  0.000000000E+00  0.00000E+00  9.000E+00
      25     1     1     2     0     0  1.032821246E+02  3.383940629E+01  1.140176244E+02  2.010903313E+02  1.250000000E+02  0.00000E+00  9.000E+00
      25     1     1     2     0     0 -9.145339527E+01 -3.420258396E+01  1.236343834E+03  1.246476882E+03  1.250000000E+02  0.00000E+00  9.000E+00
      21     1     1     2   502   511 -1.182872930E+01  3.631776757E-01  5.732767681E+00  1.314972852E+01  8.429369702E-08  0.00000E+00  9.000E+00
#rwgt            1           1   3.9803257682543419E-002          10       93204           0
</event>
<event>
      5   9999  3.79277E-02  1.43103E+02 -1.00000E+00  1.17210E-01
      21    -1     0     0   502   512  0.000000000E+00  0.000000000E+00  4.754433002E+02  4.754433002E+02  0.000000000E+00  0.00000E+00  9.000E+00
      21    -1     0     0   501   502  0.000000000E+00  0.000000000E+00 -1.340381386E+03  1.340381386E+03  0.000000000E+00  0.00000E+00  9.000E+00
      25     1     1     2     0     0  1.201911865E+02 -2.417933004E+01 -1.125799737E+02  2.081581413E+02  1.250000000E+02  0.00000E+00  9.000E+00
      25     1     1     2     0     0 -1.117222870E+01 -6.852108756E+01 -1.163540768E+03  1.172293512E+03  1.250000000E+02  0.00000E+00  9.000E+00
      21     1     1     2   501   512 -1.090189578E+02  9.270041760E+01  4.111826566E+02  4.353730328E+02  5.394796609E-06  0.00000E+00  9.000E+00
#rwgt            1           1   4.5796269135838917E-002          10       93542           0
</event>
<event>
      5   9999  3.79277E-02  1.42107E+01 -1.00000E+00  1.79624E-01
      21    -1     0     0   502   511  0.000000000E+00  0.000000000E+00  6.897611830E+02  6.897611830E+02  0.000000000E+00  0.00000E+00  9.000E+00
      21    -1     0     0   501   502  0.000000000E+00  0.000000000E+00 -1.170184065E+02  1.170184065E+02  0.000000000E+00  0.00000E+00  9.000E+00
      25     1     1     2     0     0  1.362154701E+02  1.386386258E+01  1.732714769E+02  2.537614346E+02  1.250000000E+02  0.00000E+00  9.000E+00
      25     1     1     2     0     0 -1.270883100E+02 -2.475606041E+01  2.902070879E+01  1.822950976E+02  1.250000000E+02  0.00000E+00  9.000E+00
      21     1     1     2   501   511 -9.127160111E+00  1.089219784E+01  3.704505908E+02  3.707230574E+02  5.394796609E-06  0.00000E+00  9.000E+00
#rwgt            1           1   3.8762137604700882E-002          10       93816           0
</event>
<event>
      5   9999  3.79277E-02  2.77456E+01 -1.00000E+00  1.55434E-01
      21    -1     0     0   502   512  0.000000000E+00  0.000000000E+00  2.365188000E+02  2.365188000E+02  0.000000000E+00  0.00000E+00  9.000E+00
      21    -1     0     0   501   502  0.000000000E+00  0.000000000E+00 -1.581281845E+02  1.581281845E+02  0.000000000E+00  0.00000E+00  9.000E+00
      25     1     1     2     0     0 -8.713850076E+01 -5.660258461E+01 -2.885215294E+01  1.650891203E+02  1.250000000E+02  0.00000E+00  9.000E+00
      25     1     1     2     0     0  6.114839889E+01  6.631502931E+01  4.370241972E+01  1.602239411E+02  1.250000000E+02  0.00000E+00  9.000E+00
      21     1     1     2   501   512  2.599010187E+01 -9.712444700E+00  6.354034876E+01  6.933392314E+01  6.743495762E-07  0.00000E+00  9.000E+00
#rwgt            1           1   3.8062855309686443E-002          10       94086           0
</event>
<event>
      5   9999  3.79277E-02  8.00731E+01 -1.00000E+00  1.28330E-01
      21    -1     0     0   502   501  0.000000000E+00  0.000000000E+00  2.083936741E+02  2.083936741E+02  0.000000000E+00  0.00000E+00  9.000E+00
       1    -1     0     0   501     0  0.000000000E+00  0.000000000E+00 -4.877329282E+02  4.877329282E+02  0.000000000E+00  0.00000E+00  9.000E+00
      25     1     1     2     0     0 -9.788892163E-01 -1.755375126E+02  3.358438141E+01  2.180992600E+02  1.250000000E+02  0.00000E+00  9.000E+00
      25     1     1     2     0     0  5.484948061E+01  1.162951215E+02 -2.730093444E+01  1.813928384E+02  1.250000000E+02  0.00000E+00  9.000E+00
       1     1     1     2   502     0 -5.387059139E+01  5.924239108E+01 -2.856227011E+02  2.966345039E+02  3.814697266E-06  0.00000E+00  9.000E+00
#rwgt            1           1   3.6680591191694915E-002          10       94448           0
</event>
<event>
      5   9999  3.79277E-02  7.93589E+01 -1.00000E+00  1.28519E-01
      21    -1     0     0   502   501  0.000000000E+00  0.000000000E+00  1.001848925E+03  1.001848925E+03  0.000000000E+00  0.00000E+00  9.000E+00
      21    -1     0     0   501   511  0.000000000E+00  0.000000000E+00 -2.741320091E+02  2.741320091E+02  0.000000000E+00  0.00000E+00  9.000E+00
      25     1     1     2     0     0  3.514099024E+02  9.397879053E+01  1.953334346E+02  4.313943477E+02  1.250000000E+02  0.00000E+00  9.000E+00
      25     1     1     2     0     0 -4.295666574E+02 -8.021824706E+01  5.912601752E+02  7.457721335E+02  1.250000000E+02  0.00000E+00  9.000E+00
      21     1     1     2   502   511  7.815675501E+01 -1.376054347E+01 -5.887669421E+01  9.881445254E+01  1.907348633E-06  0.00000E+00  9.000E+00
#rwgt            1           1  0.18615290358949851               10       94568           0
</event>
<event>
      5   9999  3.79277E-02  4.26708E+01 -1.00000E+00  1.43120E-01
      21    -1     0     0   512   501  0.000000000E+00  0.000000000E+00  9.475919463E+01  9.475919463E+01  0.000000000E+00  0.00000E+00  9.000E+00
      21    -1     0     0   501   502  0.000000000E+00  0.000000000E+00 -1.904703548E+03  1.904703548E+03  0.000000000E+00  0.00000E+00  9.000E+00
      25     1     1     2     0     0  2.205244035E+02  9.119534736E+00 -1.242036924E+03  1.267673026E+03  1.250000000E+02  0.00000E+00  9.000E+00
      25     1     1     2     0     0 -1.865587747E+02 -3.494850556E+01 -6.223901581E+02  6.625859064E+02  1.250000000E+02  0.00000E+00  9.000E+00
      21     1     1     2   512   502 -3.396562882E+01  2.582897083E+01  5.448272891E+01  6.920381077E+01  2.132480600E-06  0.00000E+00  9.000E+00
#rwgt            1           1   7.4200006236496890E-002          10       94689           0
</event>
<event>
      5   9999  3.79277E-02  2.95322E+01 -1.00000E+00  1.53515E-01
      21    -1     0     0   502   501  0.000000000E+00  0.000000000E+00  1.801896101E+02  1.801896101E+02  0.000000000E+00  0.00000E+00  9.000E+00
      21    -1     0     0   511   502  0.000000000E+00  0.000000000E+00 -3.839718768E+02  3.839718768E+02  0.000000000E+00  0.00000E+00  9.000E+00
      25     1     1     2     0     0 -1.323357031E+01 -1.291046895E+01  1.365668357E+02  1.860572713E+02  1.250000000E+02  0.00000E+00  9.000E+00
      25     1     1     2     0     0  3.208805073E+01  3.564061927E+01 -2.953675886E+02  3.242944790E+02  1.250000000E+02  0.00000E+00  9.000E+00
      21     1     1     2   511   501 -1.885448042E+01 -2.273015032E+01 -4.498151382E+01  5.380973659E+01  4.768371582E-07  0.00000E+00  9.000E+00
#rwgt            1           1   3.8847879258419121E-002          10       94830           0
</event>
<event>
      5   9999  3.79277E-02  1.63611E+01 -1.00000E+00  1.73902E-01
      21    -1     0     0   502   501  0.000000000E+00  0.000000000E+00  2.646884916E+02  2.646884916E+02  0.000000000E+00  0.00000E+00  9.000E+00
       2    -1     0     0   501     0  0.000000000E+00  0.000000000E+00 -9.708158683E+02  9.708158683E+02  0.000000000E+00  0.00000E+00  9.000E+00
      25     1     1     2     0     0 -1.591877207E+02 -6.109230143E+00  5.676319518E+01  2.102976781E+02  1.250000000E+02  0.00000E+00  9.000E+00
      25     1     1     2     0     0  1.564937743E+02  2.224705074E+01  5.362065536E+01  2.085315500E+02  1.250000000E+02  0.00000E+00  9.000E+00
       2     1     1     2   502     0  2.693946362E+00 -1.613782060E+01 -8.165112272E+02  8.166751317E+02  1.078959322E-05  0.00000E+00  9.000E+00
#rwgt            1           1   2.8795258753808586E-002          10       94972           0
</event>
<event>
      5   9999  3.79277E-02  3.33660E+01 -1.00000E+00  1.49900E-01
       2    -1     0     0   502     0  0.000000000E+00  0.000000000E+00  8.880775871E+01  8.880775871E+01  0.000000000E+00  0.00000E+00  9.000E+00
      21    -1     0     0   501   502  0.000000000E+00  0.000000000E+00 -4.840455639E+02  4.840455639E+02  0.000000000E+00  0.00000E+00  9.000E+00
      25     1     1     2     0     0 -7.806129557E+01 -1.801959940E+01 -2.197562634E+02  2.652095155E+02  1.250000000E+02  0.00000E+00  9.000E+00
      25     1     1     2     0     0  9.434934866E+01 -1.110067443E+01 -2.083000095E+02  2.608427084E+02  1.250000000E+02  0.00000E+00  9.000E+00
       2     1     1     2   501     0 -1.628805309E+01  2.912027382E+01  3.281846767E+01  4.680109872E+01  8.259061849E-07  0.00000E+00  9.000E+00
#rwgt            1           1  0.13875797726397332               10       95229           0
</event>
<event>
      5   9999  3.79277E-02  3.11492E+01 -1.00000E+00  1.51915E-01
      21    -1     0     0   502   511  0.000000000E+00  0.000000000E+00  2.777552586E+02  2.777552586E+02  0.000000000E+00  0.00000E+00  9.000E+00
      21    -1     0     0   501   502  0.000000000E+00  0.000000000E+00 -3.594341503E+02  3.594341503E+02  0.000000000E+00  0.00000E+00  9.000E+00
      25     1     1     2     0     0  2.454786214E+02 -2.115691055E+01 -1.363163226E+02  3.080819830E+02  1.250000000E+02  0.00000E+00  9.000E+00
      25     1     1     2     0     0 -2.186238780E+02  3.693966769E+01 -1.276991771E+01  2.548509562E+02  1.250000000E+02  0.00000E+00  9.000E+00
      21     1     1     2   501   511 -2.685474337E+01 -1.578275714E+01  6.740734859E+01  7.425646981E+01  0.000000000E+00  0.00000E+00  9.000E+00
#rwgt            2          11   1.0730830715906406E-003          10       95481           0
</event>
<event>
      5   9999  3.79277E-02  6.28869E+00 -1.00000E+00  2.22348E-01
      21    -1     0     0   502   512  0.000000000E+00  0.000000000E+00  4.402707275E+02  4.402707275E+02  0.000000000E+00  0.00000E+00  9.000E+00
      21    -1     0     0   501   502  0.000000000E+00  0.000000000E+00 -2.799835407E+02  2.799835407E+02  0.000000000E+00  0.00000E+00  9.000E+00
      25     1     1     2     0     0 -1.517183639E+02  8.488200618E+01 -1.029382502E+02  2.375809341E+02  1.250000000E+02  0.00000E+00  9.000E+00
      25     1     1     2     0     0  1.456564593E+02 -8.655561302E+01 -8.644525850E+00  2.107306482E+02  1.250000000E+02  0.00000E+00  9.000E+00
      21     1     1     2   501   512  6.061904596E+00  1.673606843E+00  2.718699629E+02  2.719426858E+02  3.814697266E-06  0.00000E+00  9.000E+00
#rwgt            1           1   3.8709605498003834E-002          10       95516           0
</event>
<event>
      5   9999  3.79277E-02  5.66643E+01 -1.00000E+00  1.36044E-01
      21    -1     0     0   502   501  0.000000000E+00  0.000000000E+00  2.246264847E+02  2.246264847E+02  0.000000000E+00  0.00000E+00  9.000E+00
       2    -1     0     0   501     0  0.000000000E+00  0.000000000E+00 -6.195370844E+02  6.195370844E+02  0.000000000E+00  0.00000E+00  9.000E+00
      25     1     1     2     0     0  4.162320741E+00  1.632152723E+02  1.493825411E+02  2.541587960E+02  1.250000000E+02  0.00000E+00  9.000E+00
      25     1     1     2     0     0  1.907815234E+01 -1.115362313E+02 -3.670567035E+02  4.039306010E+02  1.250000000E+02  0.00000E+00  9.000E+00
       2     1     1     2   502     0 -2.324047308E+01 -5.167904104E+01 -1.772364371E+02  1.860741721E+02  4.264961200E-06  0.00000E+00  9.000E+00
#rwgt            1           1   4.1040899369513557E-002          10       95819           0
</event>
<event>
      5   9999  3.79277E-02  5.22007E+01 -1.00000E+00  1.38017E-01
      21    -1     0     0   502   501  0.000000000E+00  0.000000000E+00  5.673290979E+02  5.673290979E+02  0.000000000E+00  0.00000E+00  9.000E+00
      21    -1     0     0   511   502  0.000000000E+00  0.000000000E+00 -1.680816619E+02  1.680816619E+02  0.000000000E+00  0.00000E+00  9.000E+00
      25     1     1     2     0     0  1.533252823E+02 -1.412834492E+02  1.298077643E+02  2.755806794E+02  1.250000000E+02  0.00000E+00  9.000E+00
      25     1     1     2     0     0 -1.622243276E+02  8.984690794E+01  3.178464000E+02  3.886393358E+02  1.250000000E+02  0.00000E+00  9.000E+00
      21     1     1     2   511   501  8.899045324E+00  5.143654126E+01 -4.840672826E+01  7.119074466E+01  0.000000000E+00  0.00000E+00  9.000E+00
#rwgt            1           1   3.2654676584187109E-002          10       96052           0
</event>
<event>
      5   9999  3.79277E-02  9.20189E+00 -1.00000E+00  2.00028E-01
      21    -1     0     0   502   501  0.000000000E+00  0.000000000E+00  2.186636248E+02  2.186636248E+02  0.000000000E+00  0.00000E+00  9.000E+00
      21    -1     0     0   512   502  0.000000000E+00  0.000000000E+00 -2.726894627E+02  2.726894627E+02  0.000000000E+00  0.00000E+00  9.000E+00
      25     1     1     2     0     0  1.691727994E+02 -1.004542869E+02 -2.323242124E+01  2.342546589E+02  1.250000000E+02  0.00000E+00  9.000E+00
      25     1     1     2     0     0 -1.734032539E+02  1.086260668E+02 -1.681943105E+01  2.403668116E+02  1.250000000E+02  0.00000E+00  9.000E+00
      21     1     1     2   512   501  4.230454442E+00 -8.171779941E+00 -1.397398561E+01  1.673161696E+01  1.685873940E-07  0.00000E+00  9.000E+00
#rwgt            1           1   4.5016126095126861E-002          10       96187           0
</event>
<event>
      5   9999  3.79277E-02  6.92236E+01 -1.00000E+00  1.31466E-01
      21    -1     0     0   502   501  0.000000000E+00  0.000000000E+00  1.652512781E+03  1.652512781E+03  0.000000000E+00  0.00000E+00  9.000E+00
       1    -1     0     0   501     0  0.000000000E+00  0.000000000E+00 -6.043470402E+01  6.043470402E+01  0.000000000E+00  0.00000E+00  9.000E+00
      25     1     1     2     0     0  2.379389176E+02  1.283114185E+02  5.380451890E+02  6.149767264E+02  1.250000000E+02  0.00000E+00  9.000E+00
      25     1     1     2     0     0 -1.742691848E+02 -1.011438583E+02  8.535255103E+02  8.858502276E+02  1.250000000E+02  0.00000E+00  9.000E+00
       1     1     1     2   502     0 -6.366973280E+01 -2.716756011E+01  2.005073774E+02  2.121205308E+02  0.000000000E+00  0.00000E+00  9.000E+00
#rwgt            1           1   4.1455696081587119E-002          10       96427           0
</event>
<event>
      5   9999  3.79277E-02  5.71076E+01 -1.00000E+00  1.35860E-01
      21    -1     0     0   511   501  0.000000000E+00  0.000000000E+00  4.998349625E+02  4.998349625E+02  0.000000000E+00  0.00000E+00  9.000E+00
      21    -1     0     0   501   502  0.000000000E+00  0.000000000E+00 -5.004365781E+02  5.004365781E+02  0.000000000E+00  0.00000E+00  9.000E+00
      25     1     1     2     0     0 -1.317187481E+02  1.320105942E+02 -4.346140114E+02  4.891737570E+02  1.250000000E+02  0.00000E+00  9.000E+00
      25     1     1     2     0     0  1.000940672E+02 -8.445898981E+01  4.117675341E+02  4.498106773E+02  1.250000000E+02  0.00000E+00  9.000E+00
      21     1     1     2   511   502  3.162468090E+01 -4.755160443E+01  2.224486164E+01  6.128710627E+01  9.830249847E-07  0.00000E+00  9.000E+00
#rwgt            1           1  0.19971786152243859               10       96521           0
</event>
<event>
      5   9999  3.79277E-02  2.47684E+01 -1.00000E+00  1.59054E-01
      21    -1     0     0   502   501  0.000000000E+00  0.000000000E+00  2.381728268E+01  2.381728268E+01  0.000000000E+00  0.00000E+00  9.000E+00
      21    -1     0     0   501   512  0.000000000E+00  0.000000000E+00 -1.004834422E+03  1.004834422E+03  0.000000000E+00  0.00000E+00  9.000E+00
      25     1     1     2     0     0  8.244676512E+00  4.571777859E+01 -3.401273970E+02  3.653351012E+02  1.250000000E+02  0.00000E+00  9.000E+00
      25     1     1     2     0     0 -3.048607876E+01 -5.661703746E+01 -4.677977548E+02  4.884614922E+02  1.250000000E+02  0.00000E+00  9.000E+00
      21     1     1     2   502   512  2.224140224E+01  1.089925887E+01 -1.730919879E+02  1.748551118E+02  0.000000000E+00  0.00000E+00  9.000E+00
#rwgt            1           1   3.7920391403559656E-002          10       96704           0
</event>
<event>
      5   9999  3.79277E-02  2.20660E+01 -1.00000E+00  1.62922E-01
      21    -1     0     0   502   501  0.000000000E+00  0.000000000E+00  1.411970359E+02  1.411970359E+02  0.000000000E+00  0.00000E+00  9.000E+00
       2    -1     0     0   501     0  0.000000000E+00  0.000000000E+00 -1.872094870E+03  1.872094870E+03  0.000000000E+00  0.00000E+00  9.000E+00
      25     1     1     2     0     0 -6.030983689E+01  2.151216359E+01  7.477317226E+01  1.591102665E+02  1.250000000E+02  0.00000E+00  9.000E+00
      25     1     1     2     0     0  8.234562281E+01 -2.035700513E+01 -2.117722597E+02  2.601301582E+02  1.250000000E+02  0.00000E+00  9.000E+00
       2     1     1     2   502     0 -2.203578592E+01 -1.155158462E+00 -1.593898747E+03  1.594051482E+03  3.051757812E-05  0.00000E+00  9.000E+00
#rwgt            1           1   4.4437987032182207E-002          10       96798           0
</event>
<event>
      5   9999  3.79277E-02  3.69499E+01 -1.00000E+00  1.47009E-01
      21    -1     0     0   511   501  0.000000000E+00  0.000000000E+00  8.858839164E+02  8.858839164E+02  0.000000000E+00  0.00000E+00  9.000E+00
      21    -1     0     0   501   502  0.000000000E+00  0.000000000E+00 -7.166229946E+01  7.166229946E+01  0.000000000E+00  0.00000E+00  9.000E+00
      25     1     1     2     0     0  1.600469966E+02  9.411074319E+01  3.433902665E+02  4.098948014E+02  1.250000000E+02  0.00000E+00  9.000E+00
      25     1     1     2     0     0 -1.930970215E+02 -7.758835385E+01  4.098580995E+02  4.763560372E+02  1.250000000E+02  0.00000E+00  9.000E+00
      21     1     1     2   511   502  3.305002493E+01 -1.652238935E+01  6.097325091E+01  7.129537730E+01  9.536743164E-07  0.00000E+00  9.000E+00
#rwgt            1           1   3.3851537843909908E-002          10       97013           0
</event>
<event>
      5   9999  3.79277E-02  4.42488E+01 -1.00000E+00  1.42173E-01
      21    -1     0     0   502   501  0.000000000E+00  0.000000000E+00  1.132895435E+03  1.132895435E+03  0.000000000E+00  0.00000E+00  9.000E+00
      21    -1     0     0   501   512  0.000000000E+00  0.000000000E+00 -4.438553854E+01  4.438553854E+01  0.000000000E+00  0.00000E+00  9.000E+00
      25     1     1     2     0     0 -8.666583459E+01  1.251567265E+02  5.598166236E+02  5.934600451E+02  1.250000000E+02  0.00000E+00  9.000E+00
      25     1     1     2     0     0  1.161289722E+02 -9.214338953E+01  4.817438839E+02  5.193057982E+02  1.250000000E+02  0.00000E+00  9.000E+00
      21     1     1     2   502   512 -2.946313761E+01 -3.301333697E+01  4.694938886E+01  6.451513008E+01  6.743495762E-07  0.00000E+00  9.000E+00
#rwgt            1           1   3.1027304349425439E-002          10       97121           0
</event>
<event>
      5   9999  3.79277E-02  2.10863E+01 -1.00000E+00  1.64496E-01
      21    -1     0     0   502   501  0.000000000E+00  0.000000000E+00  2.229503056E+02  2.229503056E+02  0.000000000E+00  0.00000E+00  9.000E+00
      21    -1     0     0   501   511  0.000000000E+00  0.000000000E+00 -3.737400042E+02  3.737400042E+02  0.000000000E+00  0.00000E+00  9.000E+00
      25     1     1     2     0     0  9.804097836E+01 -1.080914888E+01  1.086360858E+02  1.927580615E+02  1.250000000E+02  0.00000E+00  9.000E+00
      25     1     1     2     0     0 -7.921376751E+01  2.030492259E+01 -5.855904773E+00  1.494871314E+02  1.250000000E+02  0.00000E+00  9.000E+00
      21     1     1     2   502   511 -1.882721085E+01 -9.495773716E+00 -2.535698797E+02  2.544451168E+02  0.000000000E+00  0.00000E+00  9.000E+00
#rwgt            1           1   4.3694071221417975E-002          10       97270           0
</event>
<event>
      5   9999  3.79277E-02  1.27939E+01 -1.00000E+00  1.84150E-01
      21    -1     0     0   502   501  0.000000000E+00  0.000000000E+00  7.462920029E+01  7.462920029E+01  0.000000000E+00  0.00000E+00  9.000E+00
      21    -1     0     0   501   512  0.000000000E+00  0.000000000E+00 -5.839862832E+02  5.839862832E+02  0.000000000E+00  0.00000E+00  9.000E+00
      25     1     1     2     0     0  4.171910677E+01  6.262592183E+01 -2.344290899E+01  1.477736781E+02  1.250000000E+02  0.00000E+00  9.000E+00
      25     1     1     2     0     0 -2.927338864E+01 -6.559042552E+01 -4.575680560E+02  4.797421819E+02  1.250000000E+02  0.00000E+00  9.000E+00
      21     1     1     2   502   512 -1.244571813E+01  2.964503694E+00 -2.834611796E+01  3.109962355E+01  3.371747881E-07  0.00000E+00  9.000E+00
#rwgt            1           1   3.6386882876148337E-002          10       97495           0
</event>
<event>
      5   9999  3.79277E-02  5.67192E+01 -1.00000E+00  1.36022E-01
      21    -1     0     0   502   501  0.000000000E+00  0.000000000E+00  1.522308641E+03  1.522308641E+03  0.000000000E+00  0.00000E+00  9.000E+00
      -5    -1     0     0     0   502  0.000000000E+00  0.000000000E+00 -4.290426216E+02  4.290426216E+02  0.000000000E+00  0.00000E+00  9.000E+00
      25     1     1     2     0     0  1.846647044E+00  2.338294412E+02  7.701782559E+02  8.145423031E+02  1.250000000E+02  0.00000E+00  9.000E+00
      25     1     1     2     0     0  5.483663780E+01 -2.358470407E+02  7.023338041E+02  7.533449780E+02  1.250000000E+02  0.00000E+00  9.000E+00
      -5     1     1     2     0   501 -5.668328485E+01  2.017599439E+00 -3.792460409E+02  3.834639814E+02  0.000000000E+00  0.00000E+00  9.000E+00
#rwgt            1           1   3.2577075674818462E-002          10       97884           0
</event>
<event>
      5   9999  3.79277E-02  2.09682E+01 -1.00000E+00  1.64693E-01
      21    -1     0     0   511   501  0.000000000E+00  0.000000000E+00  7.172686162E+01  7.172686162E+01  0.000000000E+00  0.00000E+00  9.000E+00
      21    -1     0     0   501   502  0.000000000E+00  0.000000000E+00 -3.198431258E+02  3.198431258E+02  0.000000000E+00  0.00000E+00  9.000E+00
      25     1     1     2     0     0  6.927863757E+01  1.538090255E+01 -9.603941145E+01  1.728718321E+02  1.250000000E+02  0.00000E+00  9.000E+00
      25     1     1     2     0     0 -4.888045405E+01 -2.023671621E+01 -1.371389420E+02  1.929531365E+02  1.250000000E+02  0.00000E+00  9.000E+00
      21     1     1     2   511   502 -2.039818353E+01  4.855813666E+00 -1.493791079E+01  2.574501887E+01  1.685873940E-07  0.00000E+00  9.000E+00
#rwgt            1           1   2.3053001449724258E-002          10       98056           0
</event>
<event>
      5   9999 -3.79277E-02  4.53450E+01 -1.00000E+00  1.41541E-01
      21    -1     0     0   502   501  0.000000000E+00  0.000000000E+00  5.213303736E+02  5.213303736E+02  0.000000000E+00  0.00000E+00  9.000E+00
      21    -1     0     0   501   512  0.000000000E+00  0.000000000E+00 -7.079497856E+02  7.079497856E+02  0.000000000E+00  0.00000E+00  9.000E+00
      25     1     1     2     0     0 -6.595643913E+01 -1.717150356E+02  2.118095288E+02  3.071230728E+02  1.250000000E+02  0.00000E+00  9.000E+00
      25     1     1     2     0     0  7.211843342E+01  2.166394003E+02  1.960979097E+02  3.259034955E+02  1.250000000E+02  0.00000E+00  9.000E+00
      21     1     1     2   502   512 -6.161994293E+00 -4.492436467E+01 -5.945268505E+02  5.962535909E+02  1.078959322E-05  0.00000E+00  9.000E+00
#rwgt            1           1  -8.1467729310368164E-002          10       98227           0
</event>
<event>
      5   9999  3.79277E-02  1.54718E+02 -1.00000E+00  1.15863E-01
       2    -1     0     0   502     0  0.000000000E+00  0.000000000E+00  2.647201976E+03  2.647201976E+03  0.000000000E+00  0.00000E+00  9.000E+00
      21    -1     0     0   501   502  0.000000000E+00  0.000000000E+00 -2.827224140E+01  2.827224140E+01  0.000000000E+00  0.00000E+00  9.000E+00
      25     1     1     2     0     0  1.411564066E+02 -5.224126540E+00  5.560339456E+02  5.871551510E+02  1.250000000E+02  0.00000E+00  9.000E+00
      25     1     1     2     0     0 -3.005023515E+01 -1.024472233E+02  1.257256523E+03  1.267957970E+03  1.250000000E+02  0.00000E+00  9.000E+00
       2     1     1     2   501     0 -1.111061715E+02  1.076713498E+02  8.056392660E+02  8.203610960E+02  1.078959322E-05  0.00000E+00  9.000E+00
#rwgt            1           1   4.0011876779066521E-002          10       98334           0
</event>
<event>
      5   9999  3.79277E-02  4.30657E+01 -1.00000E+00  1.42879E-01
      21    -1     0     0   502   501  0.000000000E+00  0.000000000E+00  2.330112760E+02  2.330112760E+02  0.000000000E+00  0.00000E+00  9.000E+00
      21    -1     0     0   501   511  0.000000000E+00  0.000000000E+00 -4.984667098E+02  4.984667098E+02  0.000000000E+00  0.00000E+00  9.000E+00
      25     1     1     2     0     0 -1.260232540E+02 -8.036300858E+01 -1.543281730E+02  2.485603723E+02  1.250000000E+02  0.00000E+00  9.000E+00
      25     1     1     2     0     0  8.432163115E+01  9.111608046E+01  1.419231453E+02  2.262287709E+02  1.250000000E+02  0.00000E+00  9.000E+00
      21     1     1     2   502   511  4.170162283E+01 -1.075307188E+01 -2.530504061E+02  2.566888426E+02  2.697398305E-06  0.00000E+00  9.000E+00
#rwgt            1           1   3.9811095809163248E-002          10       98424           0
</event>
<event>
      5   9999  3.79277E-02  4.90017E+01 -1.00000E+00  1.39577E-01
      21    -1     0     0   512   501  0.000000000E+00  0.000000000E+00  1.423341982E+03  1.423341982E+03  0.000000000E+00  0.00000E+00  9.000E+00
      21    -1     0     0   501   502  0.000000000E+00  0.000000000E+00 -2.791425795E+02  2.791425795E+02  0.000000000E+00  0.00000E+00  9.000E+00
      25     1     1     2     0     0  1.365593250E+02  9.554393289E+01 -8.543896518E+01  2.251708443E+02  1.250000000E+02  0.00000E+00  9.000E+00
      25     1     1     2     0     0 -1.212067947E+02 -4.900937007E+01 -5.707144626E+01  1.896711771E+02  1.250000000E+02  0.00000E+00  9.000E+00
      21     1     1     2   512   502 -1.535253031E+01 -4.653456282E+01  1.286709814E+03  1.287642540E+03  1.525878906E-05  0.00000E+00  9.000E+00
#rwgt            1           1   3.9933237238899147E-002          10       98545           0
</event>
<event>
      5   9999  3.79277E-02  4.80265E+01 -1.00000E+00  1.40081E-01
      21    -1     0     0   502   511  0.000000000E+00  0.000000000E+00  1.365264919E+03  1.365264919E+03  0.000000000E+00  0.00000E+00  9.000E+00
      21    -1     0     0   501   502  0.000000000E+00  0.000000000E+00 -4.832960403E+01  4.832960403E+01  0.000000000E+00  0.00000E+00  9.000E+00
      25     1     1     2     0     0  9.807290757E+01 -1.001793112E+02  6.147266927E+02  6.427815307E+02  1.250000000E+02  0.00000E+00  9.000E+00
      25     1     1     2     0     0 -8.024742084E+01  5.558343113E+01  1.558875734E+02  2.223850308E+02  1.250000000E+02  0.00000E+00  9.000E+00
      21     1     1     2   501   511 -1.782548673E+01  4.459588009E+01  5.463210490E+02  5.484279616E+02  7.629394531E-06  0.00000E+00  9.000E+00
#rwgt            1           1   3.6224201368255660E-002          10       98778           0
</event>
<event>
      5   9999  3.79277E-02  5.87278E+00 -1.00000E+00  2.26927E-01
      21    -1     0     0   502   512  0.000000000E+00  0.000000000E+00  5.801994422E+02  5.801994422E+02  0.000000000E+00  0.00000E+00  9.000E+00
      21    -1     0     0   501   502  0.000000000E+00  0.000000000E+00 -4.201411362E+01  4.201411362E+01  0.000000000E+00  0.00000E+00  9.000E+00
      25     1     1     2     0     0  5.618936504E+01  5.404670864E+01  3.461542261E+02  3.761994680E+02  1.250000000E+02  0.00000E+00  9.000E+00
      25     1     1     2     0     0 -5.218447140E+01 -5.834209305E+01  1.806667726E+02  2.332220006E+02  1.250000000E+02  0.00000E+00  9.000E+00
      21     1     1     2   501   512 -4.004893641E+00  4.295384403E+00  1.136432989E+01  1.279208717E+01  0.000000000E+00  0.00000E+00  9.000E+00
#rwgt            1           1   3.1002320563039937E-002          10       98889           0
</event>
<event>
      5   9999  3.79277E-02  6.81968E+01 -1.00000E+00  1.31797E-01
      21    -1     0     0   502   501  0.000000000E+00  0.000000000E+00  6.042600473E+01  6.042600473E+01  0.000000000E+00  0.00000E+00  9.000E+00
      21    -1     0     0   511   502  0.000000000E+00  0.000000000E+00 -1.281880599E+03  1.281880599E+03  0.000000000E+00  0.00000E+00  9.000E+00
      25     1     1     2     0     0  8.978731202E+01 -1.091268366E+02 -1.336515018E+02  2.312101897E+02  1.250000000E+02  0.00000E+00  9.000E+00
      25     1     1     2     0     0 -4.201623056E+01  6.045727382E+01 -5.431262747E+02  5.621668755E+02  1.250000000E+02  0.00000E+00  9.000E+00
      21     1     1     2   511   501 -4.777108146E+01  4.866956280E+01 -5.446768181E+02  5.489295389E+02  0.000000000E+00  0.00000E+00  9.000E+00
#rwgt            1           1   4.2700960593989840E-002          10       99127           0
</event>
<event>
      5   9999  3.79277E-02  1.64502E+01 -1.00000E+00  1.73689E-01
      21    -1     0     0   502   501  0.000000000E+00  0.000000000E+00  1.772198461E+03  1.772198461E+03  0.000000000E+00  0.00000E+00  9.000E+00
      21    -1     0     0   512   502  0.000000000E+00  0.000000000E+00 -2.786291210E+01  2.786291210E+01  0.000000000E+00  0.00000E+00  9.000E+00
      25     1     1     2     0     0  9.812644635E+01  1.073436746E+02  1.105746663E+03  1.122253156E+03  1.250000000E+02  0.00000E+00  9.000E+00
      25     1     1     2     0     0 -1.035515548E+02 -1.228735482E+02  6.219027621E+02  6.543767102E+02  1.250000000E+02  0.00000E+00  9.000E+00
      21     1     1     2   512   501  5.425108459E+00  1.552987359E+01  1.668612367E+01  2.343150654E+01  8.259061849E-07  0.00000E+00  9.000E+00
#rwgt            1           1   4.2073121049951423E-002          10       99236           0
</event>
<event>
      5   9999  3.79277E-02  1.85601E+01 -1.00000E+00  1.69092E-01
      21    -1     0     0   502   501  0.000000000E+00  0.000000000E+00  3.240526143E+02  3.240526143E+02  0.000000000E+00  0.00000E+00  9.000E+00
      21    -1     0     0   501   511  0.000000000E+00  0.000000000E+00 -2.489609285E+02  2.489609285E+02  0.000000000E+00  0.00000E+00  9.000E+00
      25     1     1     2     0     0 -6.403537242E+01 -3.462317141E+01  2.777853884E+02  3.131916585E+02  1.250000000E+02  0.00000E+00  9.000E+00
      25     1     1     2     0     0  4.826825262E+01  4.441469566E+01 -1.606243340E+02  2.138402817E+02  1.250000000E+02  0.00000E+00  9.000E+00
      21     1     1     2   502   511  1.576711980E+01 -9.791524250E+00 -4.206936863E+01  4.598160274E+01  6.743495762E-07  0.00000E+00  9.000E+00
#rwgt            1           1   3.2283041905744950E-002          10       99466           0
</event>
<event>
      5   9999  3.79277E-02  2.83611E+01 -1.00000E+00  1.54754E-01
      21    -1     0     0   502   501  0.000000000E+00  0.000000000E+00  1.545228924E+03  1.545228924E+03  0.000000000E+00  0.00000E+00  9.000E+00
      21    -1     0     0   512   502  0.000000000E+00  0.000000000E+00 -8.032015550E+01  8.032015550E+01  0.000000000E+00  0.00000E+00  9.000E+00
      25     1     1     2     0     0  2.054718660E+02 -2.722234550E+01  6.499927809E+02  6.935959624E+02  1.250000000E+02  0.00000E+00  9.000E+00
      25     1     1     2     0     0 -2.029491616E+02  5.547105192E+01  8.513248975E+02  8.858016036E+02  1.250000000E+02  0.00000E+00  9.000E+00
      21     1     1     2   512   501 -2.522704346E+00 -2.824870641E+01 -3.640891009E+01  4.615151336E+01  2.336015456E-06  0.00000E+00  9.000E+00
#rwgt            1           1   3.8361064059156187E-002          10       99625           0
</event>
<event>
      5   9999 -3.79277E-02  1.19743E+02 -1.00000E+00  1.20408E-01
      21    -1     0     0   502   511  0.000000000E+00  0.000000000E+00  1.077252063E+02  1.077252063E+02  0.000000000E+00  0.00000E+00  9.000E+00
      21    -1     0     0   501   502  0.000000000E+00  0.000000000E+00 -2.251859631E+03  2.251859631E+03  0.000000000E+00  0.00000E+00  9.000E+00
      25     1     1     2     0     0 -5.938724006E+01  1.847376725E+02 -3.271827775E+02  4.004103168E+02  1.250000000E+02  0.00000E+00  9.000E+00
      25     1     1     2     0     0 -3.615757521E+01 -2.569149852E+02 -1.816747134E+03  1.839431387E+03  1.250000000E+02  0.00000E+00  9.000E+00
      21     1     1     2   501   511  9.554481527E+01  7.217731273E+01 -2.045136914E-01  1.197431335E+02  4.090964988E-06  0.00000E+00  9.000E+00
#rwgt            1           1 -0.30761347564327801               10       99822           0
</event>
<event>
      5   9999  3.79277E-02  1.03156E+02 -1.00000E+00  1.23224E-01
      21    -1     0     0   512   501  0.000000000E+00  0.000000000E+00  6.064851913E+02  6.064851913E+02  0.000000000E+00  0.00000E+00  9.000E+00
      21    -1     0     0   501   502  0.000000000E+00  0.000000000E+00 -8.088792305E+02  8.088792305E+02  0.000000000E+00  0.00000E+00  9.000E+00
      25     1     1     2     0     0  2.968150436E+02  1.967769123E+01 -5.317348532E+02  6.219753498E+02  1.250000000E+02  0.00000E+00  9.000E+00
      25     1     1     2     0     0 -3.534967870E+02  6.650995330E+01 -6.453449490E+01  3.862295345E+02  1.250000000E+02  0.00000E+00  9.000E+00
      21     1     1     2   512   502  5.668174335E+01 -8.618764453E+01  3.938753088E+02  4.071595375E+02  0.000000000E+00  0.00000E+00  9.000E+00
#rwgt            1           1   5.5499142401939518E-002          10       99892           0
</event>
<event>
      5   9999  3.79277E-02  2.21137E+02 -1.00000E+00  1.10082E-01
      21    -1     0     0   511   501  0.000000000E+00  0.000000000E+00  1.351133508E+02  1.351133508E+02  0.000000000E+00  0.00000E+00  9.000E+00
      21    -1     0     0   501   502  0.000000000E+00  0.000000000E+00 -2.048887009E+03  2.048887009E+03  0.000000000E+00  0.00000E+00  9.000E+00
      25     1     1     2     0     0  1.574178057E+02 -1.488896393E+02 -7.465157546E+02  7.873114137E+02  1.250000000E+02  0.00000E+00  9.000E+00
      25     1     1     2     0     0 -2.961050355E+02 -2.335216871E+01 -1.126680025E+03  1.171860228E+03  1.250000000E+02  0.00000E+00  9.000E+00
      21     1     1     2   511   502  1.386872298E+02  1.722418080E+02 -4.057787860E+01  2.248287179E+02  6.271813601E-06  0.00000E+00  9.000E+00
#rwgt            1           1   3.5750563925640362E-002          10       99983           0
</event>
<event>
      5   9999 -3.79277E-02  3.85080E+01 -1.00000E+00  1.45872E-01
      21    -1     0     0   512   501  0.000000000E+00  0.000000000E+00  7.459700466E+02  7.459700466E+02  0.000000000E+00  0.00000E+00  9.000E+00
      21    -1     0     0   501   502  0.000000000E+00  0.000000000E+00 -1.600145775E+02  1.600145775E+02  0.000000000E+00  0.00000E+00  9.000E+00
      25     1     1     2     0     0 -3.740181987E+01  1.494857733E+02  2.373411746E+02  3.093553389E+02  1.250000000E+02  0.00000E+00  9.000E+00
      25     1     1     2     0     0  6.879077894E+01 -1.717926378E+02 -2.165483508E+01  2.243631287E+02  1.250000000E+02  0.00000E+00  9.000E+00
      21     1     1     2   512   502 -3.138895906E+01  2.230686441E+01  3.702691296E+02  3.722661565E+02  7.629394531E-06  0.00000E+00  9.000E+00
#rwgt            1           1 -0.11796422074321639               10      100153           0
</event>
<event>
      5   9999  3.79277E-02  6.83720E+01 -1.00000E+00  1.31740E-01
      21    -1     0     0   502   501  0.000000000E+00  0.000000000E+00  7.866789224E+02  7.866789224E+02  0.000000000E+00  0.00000E+00  9.000E+00
      21    -1     0     0   501   511  0.000000000E+00  0.000000000E+00 -6.452451091E+01  6.452451091E+01  0.000000000E+00  0.00000E+00  9.000E+00
      25     1     1     2     0     0  4.212398795E+01 -7.215145253E+01  9.175515903E+01  1.761370820E+02  1.250000000E+02  0.00000E+00  9.000E+00
      25     1     1     2     0     0 -9.084237969E+01  2.418005398E+01  5.370193134E+02  5.593315260E+02  1.250000000E+02  0.00000E+00  9.000E+00
      21     1     1     2   502   511  4.871839173E+01  4.797139854E+01  9.337993907E+01  1.157348253E+02  1.348699152E-06  0.00000E+00  9.000E+00
#rwgt            1           1   4.1310669196839622E-002          10      100275           0
</event>
<event>
      5   9999  3.79277E-02  9.46745E+00 -1.00000E+00  1.98545E-01
      21    -1     0     0   502   501  0.000000000E+00  0.000000000E+00  6.008909313E+01  6.008909313E+01  0.000000000E+00  0.00000E+00  9.000E+00
      21    -1     0     0   501   512  0.000000000E+00  0.000000000E+00 -5.738228093E+02  5.738228093E+02  0.000000000E+00  0.00000E+00  9.000E+00
      25     1     1     2     0     0  2.265345095E+01  1.271886755E+02 -1.875711958E+02  2.598039482E+02  1.250000000E+02  0.00000E+00  9.000E+00
      25     1     1     2     0     0 -2.440089147E+01 -1.178838920E+02 -3.048137347E+02  3.507540853E+02  1.250000000E+02  0.00000E+00  9.000E+00
      21     1     1     2   502   512  1.747440521E+00 -9.304783479E+00 -2.134878576E+01  2.335386900E+01  3.371747881E-07  0.00000E+00  9.000E+00
#rwgt            1           1   3.7339892148680678E-002          10      100337           0
</event>
<event>
      5   9999  3.79277E-02  1.07779E+02 -1.00000E+00  1.22382E-01
      21    -1     0     0   502   501  0.000000000E+00  0.000000000E+00  8.853251850E+01  8.853251850E+01  0.000000000E+00  0.00000E+00  9.000E+00
      21    -1     0     0   511   502  0.000000000E+00  0.000000000E+00 -8.230039248E+02  8.230039248E+02  0.000000000E+00  0.00000E+00  9.000E+00
      25     1     1     2     0     0 -1.333281827E+02 -5.133918483E+01 -1.692118761E+02  2.543025270E+02  1.250000000E+02  0.00000E+00  9.000E+00
      25     1     1     2     0     0  7.141530230E+01  1.395613298E+02 -2.302585194E+02  3.053219545E+02  1.250000000E+02  0.00000E+00  9.000E+00
      21     1     1     2   511   501  6.191288037E+01 -8.822214499E+01 -3.350010108E+02  3.519119618E+02  5.394796609E-06  0.00000E+00  9.000E+00
#rwgt            1           1   3.0782976661664706E-002          10      100615           0
</event>
<event>
      5   9999  3.79277E-02  1.06869E+02 -1.00000E+00  1.22544E-01
      21    -1     0     0   502   501  0.000000000E+00  0.000000000E+00  6.365674276E+02  6.365674276E+02  0.000000000E+00  0.00000E+00  9.000E+00
      21    -1     0     0   501   512  0.000000000E+00  0.000000000E+00 -1.174854563E+02  1.174854563E+02  0.000000000E+00  0.00000E+00  9.000E+00
      25     1     1     2     0     0 -1.420484525E+02 -1.634128934E+02  2.864970187E+02  3.802460760E+02  1.250000000E+02  0.00000E+00  9.000E+00
      25     1     1     2     0     0  5.294926271E+01  1.044014829E+02  1.973126962E+02  2.612672849E+02  1.250000000E+02  0.00000E+00  9.000E+00
      21     1     1     2   502   512  8.909918977E+01  5.901141051E+01  3.527225634E+01  1.125395231E+02  6.743495762E-07  0.00000E+00  9.000E+00
#rwgt            1           1   2.2760696915531162E-002          10      100681           0
</event>
<event>
      5   9999  3.79277E-02  3.91313E+01 -1.00000E+00  1.45434E-01
      21    -1     0     0   502   501  0.000000000E+00  0.000000000E+00  2.611799805E+02  2.611799805E+02  0.000000000E+00  0.00000E+00  9.000E+00
      -2    -1     0     0     0   502  0.000000000E+00  0.000000000E+00 -1.312062729E+03  1.312062729E+03  0.000000000E+00  0.00000E+00  9.000E+00
      25     1     1     2     0     0  3.087067897E+01  1.042241900E+02  1.892260800E+02  2.514899401E+02  1.250000000E+02  0.00000E+00  9.000E+00
      25     1     1     2     0     0 -6.624045835E+01 -8.748392120E+01 -1.303986957E+02  2.113529149E+02  1.250000000E+02  0.00000E+00  9.000E+00
      -2     1     1     2     0   501  3.536977937E+01 -1.674026875E+01 -1.109710133E+03  1.110399855E+03  1.525878906E-05  0.00000E+00  9.000E+00
#rwgt            1           1   4.2337113738596041E-002          10      100717           0
</event>
<event>
      5   9999  3.79277E-02  6.77441E+01 -1.00000E+00  1.31945E-01
      21    -1     0     0   502   511  0.000000000E+00  0.000000000E+00  1.957171471E+03  1.957171471E+03  0.000000000E+00  0.00000E+00  9.000E+00
      21    -1     0     0   501   502  0.000000000E+00  0.000000000E+00 -5.932424285E+01  5.932424285E+01  0.000000000E+00  0.00000E+00  9.000E+00
      25     1     1     2     0     0  6.572425191E+01  1.020436414E+02  1.153607480E+02  2.089633561E+02  1.250000000E+02  0.00000E+00  9.000E+00
      25     1     1     2     0     0 -1.074117239E+02 -4.864496167E+01  6.287629359E+02  6.518216323E+02  1.250000000E+02  0.00000E+00  9.000E+00
      21     1     1     2   501   511  4.168747195E+01 -5.339867971E+01  1.153723545E+03  1.155710726E+03  2.157918644E-05  0.00000E+00  9.000E+00
#rwgt            1           1   4.0807424749997386E-002          10      100788           0
</event>
<event>
      5   9999  3.79277E-02  7.89073E+00 -1.00000E+00  2.08455E-01
      21    -1     0     0   502   512  0.000000000E+00  0.000000000E+00  1.837782603E+02  1.837782603E+02  0.000000000E+00  0.00000E+00  9.000E+00
      21    -1     0     0   501   502  0.000000000E+00  0.000000000E+00 -2.505270492E+02  2.505270492E+02  0.000000000E+00  0.00000E+00  9.000E+00
      25     1     1     2     0     0  2.932991388E+01  1.449105580E+02  2.670533506E+01  1.954417780E+02  1.250000000E+02  0.00000E+00  9.000E+00
      25     1     1     2     0     0 -2.150385004E+01 -1.459187057E+02 -1.086247885E+02  2.217634526E+02  1.250000000E+02  0.00000E+00  9.000E+00
      21     1     1     2   501   512 -7.826063837E+00  1.008147751E+00  1.517066452E+01  1.710007892E+01  2.384185791E-07  0.00000E+00  9.000E+00
#rwgt            1           1   3.5790558990628829E-002          10      100916           0
</event>
<event>
      5   9999  3.79277E-02  1.05987E+02 -1.00000E+00  1.22703E-01
      21    -1     0     0   502   501  0.000000000E+00  0.000000000E+00  4.018337965E+02  4.018337965E+02  0.000000000E+00  0.00000E+00  9.000E+00
       2    -1     0     0   501     0  0.000000000E+00  0.000000000E+00 -4.970847795E+02  4.970847795E+02  0.000000000E+00  0.00000E+00  9.000E+00
      25     1     1     2     0     0  7.923223779E+01  2.287888212E+02  2.571897321E+02  3.746913803E+02  1.250000000E+02  0.00000E+00  9.000E+00
      25     1     1     2     0     0  2.511804076E+01 -2.473431742E+02 -2.208361699E+02  3.552508631E+02  1.250000000E+02  0.00000E+00  9.000E+00
       2     1     1     2   502     0 -1.043502786E+02  1.855435301E+01 -1.316045452E+02  1.689763326E+02  2.697398305E-06  0.00000E+00  9.000E+00
#rwgt            1           1   4.8099587402830893E-002          10      101127           0
</event>
<event>
      5   9999  3.79277E-02  1.88663E+01 -1.00000E+00  1.68488E-01
      21    -1     0     0   502   501  0.000000000E+00  0.000000000E+00  5.339785092E+02  5.339785092E+02  0.000000000E+00  0.00000E+00  9.000E+00
      21    -1     0     0   511   502  0.000000000E+00  0.000000000E+00 -1.469430723E+02  1.469430723E+02  0.000000000E+00  0.00000E+00  9.000E+00
      25     1     1     2     0     0  4.399161527E+01 -8.658500922E+01  1.004950878E+02  1.875006365E+02  1.250000000E+02  0.00000E+00  9.000E+00
      25     1     1     2     0     0 -5.922488525E+01  9.771533200E+01  3.704982594E+02  4.073694065E+02  1.250000000E+02  0.00000E+00  9.000E+00
      21     1     1     2   511   501  1.523326998E+01 -1.113032278E+01 -8.395791019E+01  8.605153852E+01  1.907348633E-06  0.00000E+00  9.000E+00
#rwgt            1           1   1.5688206674725830E-002          10      101237           0
</event>
<event>
      5   9999  3.79277E-02  1.43291E+01 -1.00000E+00  1.79276E-01
      21    -1     0     0   502   501  0.000000000E+00  0.000000000E+00  1.841317693E+02  1.841317693E+02  0.000000000E+00  0.00000E+00  9.000E+00
      21    -1     0     0   501   512  0.000000000E+00  0.000000000E+00 -3.413404587E+02  3.413404587E+02  0.000000000E+00  0.00000E+00  9.000E+00
      25     1     1     2     0     0  8.215876318E+00 -5.788975143E+00  1.439309817E+02  1.908982461E+02  1.250000000E+02  0.00000E+00  9.000E+00
      25     1     1     2     0     0 -2.250137426E+01  4.672320525E+00 -2.892985166E+02  3.159854018E+02  1.250000000E+02  0.00000E+00  9.000E+00
      21     1     1     2   502   512  1.428549794E+01  1.116654618E+00 -1.184115458E+01  1.858858012E+01  3.371747881E-07  0.00000E+00  9.000E+00
#rwgt            1           1   2.5165234559204757E-002          10      101468           0
</event>
<event>
      5   9999  3.79277E-02  2.12519E+01 -1.00000E+00  1.64222E-01
       2    -1     0     0   502     0  0.000000000E+00  0.000000000E+00  3.378611478E+03  3.378611478E+03  0.000000000E+00  0.00000E+00  9.000E+00
      21    -1     0     0   501   502  0.000000000E+00  0.000000000E+00 -4.622336236E+02  4.622336236E+02  0.000000000E+00  0.00000E+00  9.000E+00
      25     1     1     2     0     0  4.039453424E+02  2.618463518E+02 -8.921011704E+01  5.052908039E+02  1.250000000E+02  0.00000E+00  9.000E+00
      25     1     1     2     0     0 -3.924226024E+02 -2.797033068E+02  2.107245771E+02  5.406101054E+02  1.250000000E+02  0.00000E+00  9.000E+00
       2     1     1     2   501     0 -1.152274002E+01  1.785695505E+01  2.794863394E+03  2.794944192E+03  3.051757812E-05  0.00000E+00  9.000E+00
#rwgt            1           1  0.37071057096571969               10      101714           0
</event>
<event>
      5   9999  3.79277E-02  5.68664E+01 -1.00000E+00  1.35960E-01
       2    -1     0     0   502     0  0.000000000E+00  0.000000000E+00  2.976918302E+03  2.976918302E+03  0.000000000E+00  0.00000E+00  9.000E+00
      21    -1     0     0   501   502  0.000000000E+00  0.000000000E+00 -4.967020848E+01  4.967020848E+01  0.000000000E+00  0.00000E+00  9.000E+00
      25     1     1     2     0     0  1.633700328E+02 -1.323777679E+02  5.159530739E+02  5.710045670E+02  1.250000000E+02  0.00000E+00  9.000E+00
      25     1     1     2     0     0 -1.568144640E+02  1.888650622E+02  8.556697351E+02  8.989196201E+02  1.250000000E+02  0.00000E+00  9.000E+00
       2     1     1     2   501     0 -6.555568772E+00 -5.648729427E+01  1.555625284E+03  1.556664323E+03  2.157918644E-05  0.00000E+00  9.000E+00
#rwgt            1           1   2.6718517026834379E-002          10      101949           0
</event>
<event>
      5   9999  3.79277E-02  3.86534E+01 -1.00000E+00  1.45769E-01
      21    -1     0     0   502   501  0.000000000E+00  0.000000000E+00  4.011488858E+02  4.011488858E+02  0.000000000E+00  0.00000E+00  9.000E+00
      21    -1     0     0   511   502  0.000000000E+00  0.000000000E+00 -2.896893877E+02  2.896893877E+02  0.000000000E+00  0.00000E+00  9.000E+00
      25     1     1     2     0     0 -1.713115952E+02  1.924222728E+01 -1.233191206E+02  2.460701759E+02  1.250000000E+02  0.00000E+00  9.000E+00
      25     1     1     2     0     0  1.707298501E+02 -5.789122711E+01  2.983780642E+02  3.703438201E+02  1.250000000E+02  0.00000E+00  9.000E+00
      21     1     1     2   511   501  5.817450704E-01  3.864899983E+01 -6.359944552E+01  7.442427753E+01  9.536743164E-07  0.00000E+00  9.000E+00
#rwgt            1           1   2.3662100142195767E-002          10      102117           0
</event>
<event>
      5   9999  3.79277E-02  7.02298E+01 -1.00000E+00  1.31149E-01
      21    -1     0     0   502   512  0.000000000E+00  0.000000000E+00  1.438843613E+02  1.438843613E+02  0.000000000E+00  0.00000E+00  9.000E+00
      21    -1     0     0   501   502  0.000000000E+00  0.000000000E+00 -7.302405708E+02  7.302405708E+02  0.000000000E+00  0.00000E+00  9.000E+00
      25     1     1     2     0     0 -1.042253923E+02  1.419536727E+02 -5.287914738E+02  5.711910367E+02  1.250000000E+02  0.00000E+00  9.000E+00
      25     1     1     2     0     0  3.736610717E+01 -1.634493176E+02  4.540079057E+00  2.091829766E+02  1.250000000E+02  0.00000E+00  9.000E+00
      21     1     1     2   501   512  6.685928510E+01  2.149564486E+01 -6.210481478E+01  9.375091878E+01  6.743495762E-07  0.00000E+00  9.000E+00
#rwgt            1           1   5.4429532667609401E-003          10      102231           0
</event>
<event>
      5   9999  3.79277E-02  9.30663E+00 -1.00000E+00  1.99435E-01
      21    -1     0     0   502   501  0.000000000E+00  0.000000000E+00  4.229990587E+01  4.229990587E+01  0.000000000E+00  0.00000E+00  9.000E+00
       1    -1     0     0   501     0  0.000000000E+00  0.000000000E+00 -1.699631195E+03  1.699631195E+03  0.000000000E+00  0.00000E+00  9.000E+00
      25     1     1     2     0     0 -1.648084807E+02  6.184593653E+01 -3.511398040E+02  4.122025195E+02  1.250000000E+02  0.00000E+00  9.000E+00
      25     1     1     2     0     0  1.717413379E+02 -5.563716868E+01 -1.019159715E+03  1.042545973E+03  1.250000000E+02  0.00000E+00  9.000E+00
       1     1     1     2   502     0 -6.932857235E+00 -6.208767846E+00 -2.870317711E+02  2.871826090E+02  6.607249480E-06  0.00000E+00  9.000E+00
#rwgt            1           1   3.4439805507017827E-002          10      102356           0
</event>
<event>
      5   9999  3.79277E-02  6.19364E+01 -1.00000E+00  1.33970E-01
      21    -1     0     0   502   511  0.000000000E+00  0.000000000E+00  2.909408423E+02  2.909408423E+02  0.000000000E+00  0.00000E+00  9.000E+00
      21    -1     0     0   501   502  0.000000000E+00  0.000000000E+00 -2.553824716E+02  2.553824716E+02  0.000000000E+00  0.00000E+00  9.000E+00
      25     1     1     2     0     0  1.228215698E+02  1.486032540E+02  1.182458884E+02  2.584088916E+02  1.250000000E+02  0.00000E+00  9.000E+00
      25     1     1     2     0     0 -7.317604368E+01 -1.115702884E+02 -1.170438170E+02  2.170873504E+02  1.250000000E+02  0.00000E+00  9.000E+00
      21     1     1     2   501   511 -4.964552611E+01 -3.703296566E+01  3.435629937E+01  7.082707191E+01  6.743495762E-07  0.00000E+00  9.000E+00
#rwgt            1           1   7.9774694623408707E-002          10      102729           0
</event>
<event>
      5   9999  3.79277E-02  3.50652E+01 -1.00000E+00  1.48478E-01
       2    -1     0     0   502     0  0.000000000E+00  0.000000000E+00  2.976921005E+03  2.976921005E+03  0.000000000E+00  0.00000E+00  9.000E+00
      21    -1     0     0   501   502  0.000000000E+00  0.000000000E+00 -1.802283272E+02  1.802283272E+02  0.000000000E+00  0.00000E+00  9.000E+00
      25     1     1     2     0     0  1.241094273E+02 -1.839181682E+02  1.062149901E+03  1.092252926E+03  1.250000000E+02  0.00000E+00  9.000E+00
      25     1     1     2     0     0 -1.188163462E+02  2.185815666E+02 -4.755254618E+01  2.824561382E+02  1.250000000E+02  0.00000E+00  9.000E+00
       2     1     1     2   501     0 -5.293081089E+00 -3.466339835E+01  1.782095323E+03  1.782440267E+03  3.051757812E-05  0.00000E+00  9.000E+00
#rwgt            1           1  0.12601610138401967               10      102812           0
</event>
<event>
      5   9999  3.79277E-02  1.37735E+01 -1.00000E+00  1.80946E-01
      21    -1     0     0   502   511  0.000000000E+00  0.000000000E+00  1.689361711E+02  1.689361711E+02  0.000000000E+00  0.00000E+00  9.000E+00
      21    -1     0     0   501   502  0.000000000E+00  0.000000000E+00 -1.794433917E+02  1.794433917E+02  0.000000000E+00  0.00000E+00  9.000E+00
      25     1     1     2     0     0 -1.550887932E+01 -4.204796964E+01 -1.086341197E+02  1.715661069E+02  1.250000000E+02  0.00000E+00  9.000E+00
      25     1     1     2     0     0  1.920160710E+00  4.429665037E+01  9.353358794E+01  1.622942153E+02  1.250000000E+02  0.00000E+00  9.000E+00
      21     1     1     2   501   511  1.358871861E+01 -2.248680727E+00  4.593311168E+00  1.451924055E+01  2.598106231E-07  0.00000E+00  9.000E+00
#rwgt            1           1   4.0280895176505821E-002          10      103002           0
</event>
<event>
      5   9999  3.79277E-02  2.77094E+01 -1.00000E+00  1.55475E-01
      21    -1     0     0   502   512  0.000000000E+00  0.000000000E+00  8.132582648E+01  8.132582648E+01  0.000000000E+00  0.00000E+00  9.000E+00
      21    -1     0     0   501   502  0.000000000E+00  0.000000000E+00 -7.894370639E+02  7.894370639E+02  0.000000000E+00  0.00000E+00  9.000E+00
      25     1     1     2     0     0 -1.050603683E+02 -1.496578474E+02 -4.839136963E+02  5.321960332E+02  1.250000000E+02  0.00000E+00  9.000E+00
      25     1     1     2     0     0  1.288599575E+02  1.354666329E+02 -2.087046434E+02  3.068203472E+02  1.250000000E+02  0.00000E+00  9.000E+00
      21     1     1     2   501   512 -2.379958927E+01  1.419121450E+01 -1.549289774E+01  3.174651003E+01  1.685873940E-07  0.00000E+00  9.000E+00
#rwgt            1           1   4.3038422885095004E-002          10      103263           0
</event>
<event>
      5   9999  3.79277E-02  2.91826E+01 -1.00000E+00  1.53878E-01
      21    -1     0     0   502   501  0.000000000E+00  0.000000000E+00  1.059684539E+02  1.059684539E+02  0.000000000E+00  0.00000E+00  9.000E+00
       2    -1     0     0   501     0  0.000000000E+00  0.000000000E+00 -1.280399832E+03  1.280399832E+03  0.000000000E+00  0.00000E+00  9.000E+00
      25     1     1     2     0     0  1.160004039E+02  9.417075099E+01 -2.361805166E+02  3.061543083E+02  1.250000000E+02  0.00000E+00  9.000E+00
      25     1     1     2     0     0 -1.096089289E+02 -6.569663023E+01 -4.218129921E+01  1.836693402E+02  1.250000000E+02  0.00000E+00  9.000E+00
       2     1     1     2   502     0 -6.391475042E+00 -2.847412077E+01 -8.960695621E+02  8.965446373E+02  1.525878906E-05  0.00000E+00  9.000E+00
#rwgt            1           1   4.0899389612441543E-002          10      103405           0
</event>
<event>
      5   9999  3.79277E-02  1.00561E+02 -1.00000E+00  1.23719E-01
      21    -1     0     0   511   501  0.000000000E+00  0.000000000E+00  1.973509292E+02  1.973509292E+02  0.000000000E+00  0.00000E+00  9.000E+00
      21    -1     0     0   501   502  0.000000000E+00  0.000000000E+00 -4.988913049E+02  4.988913049E+02  0.000000000E+00  0.00000E+00  9.000E+00
      25     1     1     2     0     0 -2.236236868E+02  1.371585296E+01 -9.493398479E+01  2.735564648E+02  1.250000000E+02  0.00000E+00  9.000E+00
      25     1     1     2     0     0  2.027146164E+02  8.464786501E+01 -1.992698403E+02  3.218570273E+02  1.250000000E+02  0.00000E+00  9.000E+00
      21     1     1     2   511   502  2.090907041E+01 -9.836371797E+01 -7.336550613E+00  1.008287420E+02  2.384185791E-07  0.00000E+00  9.000E+00
#rwgt            1           1   4.4788392289833098E-002          10      103542           0
</event>
<event>
      5   9999  3.79277E-02  6.71898E+01 -1.00000E+00  1.32128E-01
      21    -1     0     0   502   512  0.000000000E+00  0.000000000E+00  2.448561963E+03  2.448561963E+03  0.000000000E+00  0.00000E+00  9.000E+00
      21    -1     0     0   501   502  0.000000000E+00  0.000000000E+00 -1.497629070E+01  1.497629070E+01  0.000000000E+00  0.00000E+00  9.000E+00
      25     1     1     2     0     0 -6.098454075E+01  7.864705361E+01  8.373574955E+02  8.524652771E+02  1.250000000E+02  0.00000E+00  9.000E+00
      25     1     1     2     0     0  7.884586299E+01 -1.387482287E+01  9.773425547E+02  9.885507827E+02  1.250000000E+02  0.00000E+00  9.000E+00
      21     1     1     2   501   512 -1.786132224E+01 -6.477223074E+01  6.188856224E+02  6.225221942E+02  1.321449896E-05  0.00000E+00  9.000E+00
#rwgt            1           1  0.35066815812252949               10      103670           0
</event>
<event>
      5   9999  3.79277E-02  2.56016E+01 -1.00000E+00  1.57981E-01
      21    -1     0     0   502   511  0.000000000E+00  0.000000000E+00  3.022612004E+02  3.022612004E+02  0.000000000E+00  0.00000E+00  9.000E+00
      21    -1     0     0   501   502  0.000000000E+00  0.000000000E+00 -3.317256774E+02  3.317256774E+02  0.000000000E+00  0.00000E+00  9.000E+00
      25     1     1     2     0     0 -3.344496636E+01 -1.920978364E+02 -2.024389927E+02  3.076145157E+02  1.250000000E+02  0.00000E+00  9.000E+00
      25     1     1     2     0     0  5.252377810E+01  2.091695007E+02  1.671260670E+02  3.001112287E+02  1.250000000E+02  0.00000E+00  9.000E+00
      21     1     1     2   501   511 -1.907881174E+01 -1.707166431E+01  5.848448604E+00  2.626113347E+01  1.192092896E-07  0.00000E+00  9.000E+00
#rwgt            1           1   4.0901335345674486E-002          10      103761           0
</event>
<event>
      5   9999  3.79277E-02  3.45423E+01 -1.00000E+00  1.48905E-01
      21    -1     0     0   502   501  0.000000000E+00  0.000000000E+00  7.148943753E+02  7.148943753E+02  0.000000000E+00  0.00000E+00  9.000E+00
      21    -1     0     0   501   512  0.000000000E+00  0.000000000E+00 -1.597857994E+02  1.597857994E+02  0.000000000E+00  0.00000E+00  9.000E+00
      25     1     1     2     0     0  6.780141902E+01 -5.159667704E+01  6.510527953E+02  6.683965827E+02  1.250000000E+02  0.00000E+00  9.000E+00
      25     1     1     2     0     0 -3.745208221E+01  6.809167349E+01 -8.539717913E+01  1.701670140E+02  1.250000000E+02  0.00000E+00  9.000E+00
      21     1     1     2   502   512 -3.034933680E+01 -1.649499646E+01 -1.054704025E+01  3.611657806E+01  7.348554138E-07  0.00000E+00  9.000E+00
#rwgt            1           1   4.6397481824422653E-002          10      103967           0
</event>
<event>
      5   9999 -3.79277E-02  5.19467E+01 -1.00000E+00  1.38136E-01
      21    -1     0     0   502   501  0.000000000E+00  0.000000000E+00  8.445711281E+01  8.445711281E+01  0.000000000E+00  0.00000E+00  9.000E+00
       2    -1     0     0   501     0  0.000000000E+00  0.000000000E+00 -9.495583349E+02  9.495583349E+02  0.000000000E+00  0.00000E+00  9.000E+00
      25     1     1     2     0     0  7.667959116E+01 -7.428565856E+01 -5.216718253E+01  1.724660364E+02  1.250000000E+02  0.00000E+00  9.000E+00
      25     1     1     2     0     0 -1.222565708E+02  4.936189064E+01 -3.375738804E+02  3.833593485E+02  1.250000000E+02  0.00000E+00  9.000E+00
       2     1     1     2   502     0  4.557697963E+01  2.492376792E+01 -4.753601592E+02  4.781900628E+02  5.394796609E-06  0.00000E+00  9.000E+00
#rwgt            1           1  -2.0291402091405879E-002          10      104115           0
</event>
<event>
      5   9999  3.79277E-02  1.80293E+02 -1.00000E+00  1.13313E-01
      21    -1     0     0   502   511  0.000000000E+00  0.000000000E+00  1.709283403E+02  1.709283403E+02  0.000000000E+00  0.00000E+00  9.000E+00
      21    -1     0     0   501   502  0.000000000E+00  0.000000000E+00 -1.495862157E+03  1.495862157E+03  0.000000000E+00  0.00000E+00  9.000E+00
      25     1     1     2     0     0  2.021836719E+02 -4.027664474E+02 -6.816783522E+02  8.266858074E+02  1.250000000E+02  0.00000E+00  9.000E+00
      25     1     1     2     0     0 -5.137759261E+01  3.039574085E+02 -5.344705453E+02  6.295343732E+02  1.250000000E+02  0.00000E+00  9.000E+00
      21     1     1     2   501   511 -1.508060793E+02  9.880903887E+01 -1.087849197E+02  2.105703172E+02  2.336015456E-06  0.00000E+00  9.000E+00
#rwgt            1           1   6.0788228421540046E-002          10      104201           0
</event>
<event>
      5   9999  3.79277E-02  1.63839E+02 -1.00000E+00  1.14895E-01
      21    -1     0     0   512   501  0.000000000E+00  0.000000000E+00  1.499062937E+02  1.499062937E+02  0.000000000E+00  0.00000E+00  9.000E+00
      21    -1     0     0   501   502  0.000000000E+00  0.000000000E+00 -9.436769245E+02  9.436769245E+02  0.000000000E+00  0.00000E+00  9.000E+00
      25     1     1     2     0     0 -8.589404403E+01 -2.202004247E+02 -1.332088055E+02  2.987232828E+02  1.250000000E+02  0.00000E+00  9.000E+00
      25     1     1     2     0     0  6.330236351E+01  5.792653717E+01 -6.021108854E+02  6.209067493E+02  1.250000000E+02  0.00000E+00  9.000E+00
      21     1     1     2   512   502  2.259168052E+01  1.622738875E+02 -5.845093991E+01  1.739531862E+02  3.303624740E-06  0.00000E+00  9.000E+00
#rwgt            1           1   5.0504903565754024E-002          10      104265           0
</event>
<event>
      5   9999  3.79277E-02  7.70465E+01 -1.00000E+00  1.29145E-01
      21    -1     0     0   502   501  0.000000000E+00  0.000000000E+00  4.741214359E+02  4.741214359E+02  0.000000000E+00  0.00000E+00  9.000E+00
      21    -1     0     0   501   511  0.000000000E+00  0.000000000E+00 -3.593703441E+02  3.593703441E+02  0.000000000E+00  0.00000E+00  9.000E+00
      25     1     1     2     0     0  7.872142435E+01 -2.928036370E+02  2.570154086E+02  4.166688766E+02  1.250000000E+02  0.00000E+00  9.000E+00
      25     1     1     2     0     0 -3.820726914E+01  2.272692224E+02 -8.328838505E+00  2.623079572E+02  1.250000000E+02  0.00000E+00  9.000E+00
      21     1     1     2   502   511 -4.051415521E+01  6.553441454E+01 -1.339354783E+02  1.545149462E+02  1.907348633E-06  0.00000E+00  9.000E+00
#rwgt            1           1   3.5906905573156810E-002          10      104507           0
</event>
<event>
      5   9999  3.79277E-02  5.78028E+01 -1.00000E+00  1.35575E-01
       2    -1     0     0   502     0  0.000000000E+00  0.000000000E+00  1.312403316E+03  1.312403316E+03  0.000000000E+00  0.00000E+00  9.000E+00
      21    -1     0     0   501   502  0.000000000E+00  0.000000000E+00 -1.448044368E+02  1.448044368E+02  0.000000000E+00  0.00000E+00  9.000E+00
      25     1     1     2     0     0  2.693637710E+01  2.733411261E+02  1.084219825E+02  3.206575524E+02  1.250000000E+02  0.00000E+00  9.000E+00
      25     1     1     2     0     0  2.060836033E+01 -2.404677847E+02  4.578253563E+02  5.324270061E+02  1.250000000E+02  0.00000E+00  9.000E+00
       2     1     1     2   501     0 -4.754473743E+01 -3.287334138E+01  6.013515405E+02  6.041231943E+02  7.629394531E-06  0.00000E+00  9.000E+00
#rwgt            1           1   2.9044839989416222E-002          10      104705           0
</event>
<event>
      5   9999  3.79277E-02  4.10235E+01 -1.00000E+00  1.44163E-01
      21    -1     0     0   502   511  0.000000000E+00  0.000000000E+00  7.170585118E+02  7.170585118E+02  0.000000000E+00  0.00000E+00  9.000E+00
      21    -1     0     0   501   502  0.000000000E+00  0.000000000E+00 -1.100847142E+02  1.100847142E+02  0.000000000E+00  0.00000E+00  9.000E+00
      25     1     1     2     0     0  8.853758909E+00  1.480894783E+02  3.489315758E+02  3.992331740E+02  1.250000000E+02  0.00000E+00  9.000E+00
      25     1     1     2     0     0 -2.903259312E+01 -1.838070583E+02  6.912103351E+01  2.345861109E+02  1.250000000E+02  0.00000E+00  9.000E+00
      21     1     1     2   501   511  2.017883421E+01  3.571757998E+01  1.889211883E+02  1.933239412E+02  2.697398305E-06  0.00000E+00  9.000E+00
#rwgt            1           1   3.8608319696481617E-002          10      104881           0
</event>
<event>
      5   9999  3.79277E-02  1.14091E+02 -1.00000E+00  1.21307E-01
      21    -1     0     0   502   512  0.000000000E+00  0.000000000E+00  4.937942312E+02  4.937942312E+02  0.000000000E+00  0.00000E+00  9.000E+00
      21    -1     0     0   501   502  0.000000000E+00  0.000000000E+00 -5.727811466E+02  5.727811466E+02  0.000000000E+00  0.00000E+00  9.000E+00
      25     1     1     2     0     0  1.742946167E+01 -1.239085852E+02 -3.306100666E+02  3.749468492E+02  1.250000000E+02  0.00000E+00  9.000E+00
      25     1     1     2     0     0  1.404595777E+01  2.335720970E+02 -1.284862584E+02  2.947658936E+02  1.250000000E+02  0.00000E+00  9.000E+00
      21     1     1     2   501   512 -3.147541944E+01 -1.096635118E+02  3.801094096E+02  3.968626350E+02  7.629394531E-06  0.00000E+00  9.000E+00
#rwgt            1           1   2.1942143541242003E-002          10      105117           0
</event>
<event>
      5   9999 -3.79277E-02  5.11158E+01 -1.00000E+00  1.38531E-01
      21    -1     0     0   502   501  0.000000000E+00  0.000000000E+00  8.710406267E+02  8.710406267E+02  0.000000000E+00  0.00000E+00  9.000E+00
      21    -1     0     0   501   511  0.000000000E+00  0.000000000E+00 -7.235437980E+01  7.235437980E+01  0.000000000E+00  0.00000E+00  9.000E+00
      25     1     1     2     0     0 -2.744459194E+01  1.384602666E+02  5.430402937E+02  5.748410316E+02  1.250000000E+02  0.00000E+00  9.000E+00
      25     1     1     2     0     0  7.504880145E+01 -1.570793109E+02  2.090289693E+02  2.993732495E+02  1.250000000E+02  0.00000E+00  9.000E+00
      21     1     1     2   502   511 -4.760420951E+01  1.861904433E+01  4.661698393E+01  6.918072539E+01  6.743495762E-07  0.00000E+00  9.000E+00
#rwgt            1           1 -0.21018373442140914               10      105178           0
</event>
<event>
      5   9999  3.79277E-02  1.18189E+01 -1.00000E+00  1.87725E-01
      21    -1     0     0   502   512  0.000000000E+00  0.000000000E+00  1.066913093E+02  1.066913093E+02  0.000000000E+00  0.00000E+00  9.000E+00
      21    -1     0     0   501   502  0.000000000E+00  0.000000000E+00 -4.857489211E+02  4.857489211E+02  0.000000000E+00  0.00000E+00  9.000E+00
      25     1     1     2     0     0 -6.287407025E+01  1.366096833E+02 -9.894940862E+01  2.191605342E+02  1.250000000E+02  0.00000E+00  9.000E+00
      25     1     1     2     0     0  5.282874753E+01 -1.428368633E+02 -2.947045938E+02  3.544982986E+02  1.250000000E+02  0.00000E+00  9.000E+00
      21     1     1     2   501   512  1.004532272E+01  6.227179991E+00  1.459639059E+01  1.878139764E+01  1.685873940E-07  0.00000E+00  9.000E+00
#rwgt            1           1   3.1295985815620903E-002          10      105250           0
</event>
<event>
      5   9999  3.79277E-02  6.33214E+01 -1.00000E+00  1.33465E-01
      21    -1     0     0   502   511  0.000000000E+00  0.000000000E+00  1.530946842E+02  1.530946842E+02  0.000000000E+00  0.00000E+00  9.000E+00
      21    -1     0     0   501   502  0.000000000E+00  0.000000000E+00 -4.690052973E+02  4.690052973E+02  0.000000000E+00  0.00000E+00  9.000E+00
      25     1     1     2     0     0 -1.055337243E+02 -1.005488051E+02 -3.565579849E+02  4.049765743E+02  1.250000000E+02  0.00000E+00  9.000E+00
      25     1     1     2     0     0  6.148314993E+01  5.506089172E+01  3.256222005E+01  1.532878916E+02  1.250000000E+02  0.00000E+00  9.000E+00
      21     1     1     2   501   511  4.405057439E+01  4.548791342E+01  8.085151710E+00  6.383551558E+01  9.684608465E-07  0.00000E+00  9.000E+00
#rwgt            1           1   3.5208721567704229E-002          10      105515           0
</event>
<event>
      5   9999  3.79277E-02  9.30195E+01 -1.00000E+00  1.25258E-01
      21    -1     0     0   502   501  0.000000000E+00  0.000000000E+00  5.475358416E+02  5.475358416E+02  0.000000000E+00  0.00000E+00  9.000E+00
      -1    -1     0     0     0   502  0.000000000E+00  0.000000000E+00 -6.512640737E+02  6.512640737E+02  0.000000000E+00  0.00000E+00  9.000E+00
      25     1     1     2     0     0 -1.100606672E+02  2.621687075E+01  1.656921777E+02  2.363886050E+02  1.250000000E+02  0.00000E+00  9.000E+00
      25     1     1     2     0     0  1.901296293E+02  2.112860919E+01  3.046625506E+02  3.808411267E+02  1.250000000E+02  0.00000E+00  9.000E+00
      -1     1     1     2     0   501 -8.006896205E+01 -4.734547994E+01 -5.740829603E+02  5.815701837E+02  1.078959322E-05  0.00000E+00  9.000E+00
#rwgt            1           1   4.2406015804088926E-002          10      105692           0
</event>
<event>
      5   9999  3.79277E-02  3.44327E+01 -1.00000E+00  1.48996E-01
      21    -1     0     0   502   511  0.000000000E+00  0.000000000E+00  2.738485325E+02  2.738485325E+02  0.000000000E+00  0.00000E+00  9.000E+00
      21    -1     0     0   501   502  0.000000000E+00  0.000000000E+00 -5.056521191E+02  5.056521191E+02  0.000000000E+00  0.00000E+00  9.000E+00
      25     1     1     2     0     0  2.541166443E+02 -7.663425305E+01  6.730234949E+01  3.010027972E+02  1.250000000E+02  0.00000E+00  9.000E+00
      25     1     1     2     0     0 -2.239237946E+02  6.008130114E+01 -3.367217167E+02  4.275022141E+02  1.250000000E+02  0.00000E+00  9.000E+00
      21     1     1     2   501   511 -3.019284966E+01  1.655295191E+01  3.761578061E+01  5.099564039E+01  8.259061849E-07  0.00000E+00  9.000E+00
#rwgt            1           1   3.6909521103837939E-002          10      105869           0
</event>
<event>
      5   9999  3.79277E-02  7.59211E+01 -1.00000E+00  1.29459E-01
      21    -1     0     0   502   501  0.000000000E+00  0.000000000E+00  9.530612317E+02  9.530612317E+02  0.000000000E+00  0.00000E+00  9.000E+00
      21    -1     0     0   512   502  0.000000000E+00  0.000000000E+00 -1.414402661E+02  1.414402661E+02  0.000000000E+00  0.00000E+00  9.000E+00
      25     1     1     2     0     0  3.026827315E+02  8.515336257E+01  3.593210700E+02  4.935631291E+02  1.250000000E+02  0.00000E+00  9.000E+00
      25     1     1     2     0     0 -2.898630420E+02 -1.032237709E+01  3.954269356E+02  5.060776581E+02  1.250000000E+02  0.00000E+00  9.000E+00
      21     1     1     2   512   501 -1.281968950E+01 -7.483098548E+01  5.687295998E+01  9.486071054E+01  1.507891493E-06  0.00000E+00  9.000E+00
#rwgt            1           1   3.7024922350757730E-002          10      106077           0
</event>
<event>
      5   9999  3.79277E-02  1.05312E+02 -1.00000E+00  1.22825E-01
      21    -1     0     0   502   511  0.000000000E+00  0.000000000E+00  1.951047507E+02  1.951047507E+02  0.000000000E+00  0.00000E+00  9.000E+00
      21    -1     0     0   501   502  0.000000000E+00  0.000000000E+00 -4.120991548E+02  4.120991548E+02  0.000000000E+00  0.00000E+00  9.000E+00
      25     1     1     2     0     0  5.395009414E+01  2.282619748E+02 -7.372475120E+01  2.758160270E+02  1.250000000E+02  0.00000E+00  9.000E+00
      25     1     1     2     0     0 -5.485845788E+01 -1.229536640E+02 -1.304017492E+02  2.252924102E+02  1.250000000E+02  0.00000E+00  9.000E+00
      21     1     1     2   501   511  9.083637423E-01 -1.053083108E+02 -1.286790375E+01  1.060954683E+02  1.155776944E-06  0.00000E+00  9.000E+00
#rwgt            1           1   4.4133438698384202E-002          10      106325           0
</event>
<event>
      5   9999  3.79277E-02  4.34590E+01 -1.00000E+00  1.42641E-01
      21    -1     0     0   502   501  0.000000000E+00  0.000000000E+00  2.648078900E+02  2.648078900E+02  0.000000000E+00  0.00000E+00  9.000E+00
      21    -1     0     0   501   512  0.000000000E+00  0.000000000E+00 -3.036823053E+02  3.036823053E+02  0.000000000E+00  0.00000E+00  9.000E+00
      25     1     1     2     0     0  7.259193988E+01 -9.157413105E+01 -1.902830926E+02  2.559063629E+02  1.250000000E+02  0.00000E+00  9.000E+00
      25     1     1     2     0     0 -5.031998431E+01  5.425594100E+01  2.001334611E+02  2.472937731E+02  1.250000000E+02  0.00000E+00  9.000E+00
      21     1     1     2   502   512 -2.227195557E+01  3.731819005E+01 -4.872478367E+01  6.529005941E+01  6.743495762E-07  0.00000E+00  9.000E+00
#rwgt            1           1   4.2412428344173102E-002          10      106448           0
</event>
<event>
      5   9999  3.79277E-02  2.71538E+01 -1.00000E+00  1.56109E-01
      21    -1     0     0   502   501  0.000000000E+00  0.000000000E+00  3.430969273E+02  3.430969273E+02  0.000000000E+00  0.00000E+00  9.000E+00
      21    -1     0     0   501   511  0.000000000E+00  0.000000000E+00 -1.297780984E+02  1.297780984E+02  0.000000000E+00  0.00000E+00  9.000E+00
      25     1     1     2     0     0  2.112865148E+01  3.891272937E+01 -5.965607209E+01  1.454113729E+02  1.250000000E+02  0.00000E+00  9.000E+00
      25     1     1     2     0     0 -3.821272599E+01 -1.780670056E+01  2.695442465E+02  3.000939717E+02  1.250000000E+02  0.00000E+00  9.000E+00
      21     1     1     2   502   511  1.708407452E+01 -2.110602881E+01  3.430654482E+00  2.736968111E+01  4.380028980E-07  0.00000E+00  9.000E+00
#rwgt            1           1   2.4300471402185685E-002          10      106562           0
</event>
<event>
      5   9999  3.79277E-02  1.54777E+02 -1.00000E+00  1.15857E-01
       3    -1     0     0   502     0  0.000000000E+00  0.000000000E+00  8.393755983E+02  8.393755983E+02  0.000000000E+00  0.00000E+00  9.000E+00
      21    -1     0     0   501   502  0.000000000E+00  0.000000000E+00 -3.535688062E+02  3.535688062E+02  0.000000000E+00  0.00000E+00  9.000E+00
      25     1     1     2     0     0 -1.457117569E+02 -2.442791868E+02 -1.127396340E+02  3.305139366E+02  1.250000000E+02  0.00000E+00  9.000E+00
      25     1     1     2     0     0  5.111760133E+01  1.217721910E+02 -5.565558515E+01  1.901683986E+02  1.250000000E+02  0.00000E+00  9.000E+00
       3     1     1     2   501     0  9.459415554E+01  1.225069959E+02  6.542020113E+02  6.722620693E+02  1.078959322E-05  0.00000E+00  9.000E+00
#rwgt            1           1   2.1958337061914041E-002          10      106709           0
</event>
<event>
      5   9999  3.79277E-02  8.11731E+01 -1.00000E+00  1.28044E-01
      21    -1     0     0   502   501  0.000000000E+00  0.000000000E+00  8.585640481E+02  8.585640481E+02  0.000000000E+00  0.00000E+00  9.000E+00
      21    -1     0     0   501   511  0.000000000E+00  0.000000000E+00 -7.976355123E+02  7.976355123E+02  0.000000000E+00  0.00000E+00  9.000E+00
      25     1     1     2     0     0 -5.706110433E+01  3.242570021E+02  6.665814992E+02  7.538928757E+02  1.250000000E+02  0.00000E+00  9.000E+00
      25     1     1     2     0     0  3.663286336E+01 -2.456964088E+02  1.295958982E+01  2.783911689E+02  1.250000000E+02  0.00000E+00  9.000E+00
      21     1     1     2   502   511  2.042824097E+01 -7.856059334E+01 -6.186125532E+02  6.239155158E+02  7.629394531E-06  0.00000E+00  9.000E+00
#rwgt            1           1   4.7337363783586814E-002          10      106763           0
</event>
<event>
      5   9999  3.79277E-02  2.35283E+01 -1.00000E+00  1.60750E-01
      21    -1     0     0   502   501  0.000000000E+00  0.000000000E+00  4.685467937E+01  4.685467937E+01  0.000000000E+00  0.00000E+00  9.000E+00
      21    -1     0     0   501   512  0.000000000E+00  0.000000000E+00 -6.290931436E+02  6.290931436E+02  0.000000000E+00  0.00000E+00  9.000E+00
      25     1     1     2     0     0 -4.092669955E+01  7.761914751E+01 -3.924308054E+02  4.211017262E+02  1.250000000E+02  0.00000E+00  9.000E+00
      25     1     1     2     0     0  4.613776113E+01 -5.467513509E+01 -1.457830423E+02  2.049286676E+02  1.250000000E+02  0.00000E+00  9.000E+00
      21     1     1     2   502   512 -5.211061579E+00 -2.294401242E+01 -4.402461654E+01  4.991742912E+01  4.768371582E-07  0.00000E+00  9.000E+00
#rwgt            1           1   3.9655509978108024E-002          10      106902           0
</event>
<event>
      5   9999  3.79277E-02  1.06427E+02 -1.00000E+00  1.22623E-01
      21    -1     0     0   502   511  0.000000000E+00  0.000000000E+00  5.918159739E+01  5.918159739E+01  0.000000000E+00  0.00000E+00  9.000E+00
      21    -1     0     0   501   502  0.000000000E+00  0.000000000E+00 -1.170955044E+03  1.170955044E+03  0.000000000E+00  0.00000E+00  9.000E+00
      25     1     1     2     0     0 -1.557810696E+01 -1.554258235E+02 -3.111489219E+02  3.699169037E+02  1.250000000E+02  0.00000E+00  9.000E+00
      25     1     1     2     0     0 -7.670723028E+01  1.024157297E+02 -6.603035673E+02  6.841043647E+02  1.250000000E+02  0.00000E+00  9.000E+00
      21     1     1     2   501   511  9.228533723E+01  5.301009383E+01 -1.403209574E+02  1.761153730E+02  3.303624740E-06  0.00000E+00  9.000E+00
#rwgt            1           1   2.2649830321122784E-002          10      107062           0
</event>
<event>
      5   9999  3.79277E-02  9.30335E+00 -1.00000E+00  1.99454E-01
      21    -1     0     0   502   501  0.000000000E+00  0.000000000E+00  1.274875287E+03  1.274875287E+03  0.000000000E+00  0.00000E+00  9.000E+00
      21    -1     0     0   512   502  0.000000000E+00  0.000000000E+00 -5.533631210E+01  5.533631210E+01  0.000000000E+00  0.00000E+00  9.000E+00
      25     1     1     2     0     0 -2.302913718E+01  1.242616862E+02  1.053503653E+03  1.068394242E+03  1.250000000E+02  0.00000E+00  9.000E+00
      25     1     1     2     0     0  1.467939091E+01 -1.283646189E+02  1.735371866E+02  2.498661942E+02  1.250000000E+02  0.00000E+00  9.000E+00
      21     1     1     2   512   501  8.349746274E+00  4.102932649E+00 -7.501865187E+00  1.195116314E+01  3.475518164E-07  0.00000E+00  9.000E+00
#rwgt            1           1   3.6808141888750867E-002          10      107140           0
</event>
<event>
      5   9999 -3.79277E-02  3.05431E+01 -1.00000E+00  1.52501E-01
      21    -1     0     0   502   511  0.000000000E+00  0.000000000E+00  4.394218743E+02  4.394218743E+02  0.000000000E+00  0.00000E+00  9.000E+00
      21    -1     0     0   501   502  0.000000000E+00  0.000000000E+00 -9.525290994E+02  9.525290994E+02  0.000000000E+00  0.00000E+00  9.000E+00
      25     1     1     2     0     0  1.166413880E+02  1.842233929E+02 -7.134624613E+02  7.564371458E+02  1.250000000E+02  0.00000E+00  9.000E+00
      25     1     1     2     0     0 -1.386503930E+02 -1.630458976E+02 -1.461020126E+02  2.877128678E+02  1.250000000E+02  0.00000E+00  9.000E+00
      21     1     1     2   501   511  2.200900496E+01 -2.117749534E+01  3.464572488E+02  3.478009601E+02  3.814697266E-06  0.00000E+00  9.000E+00
#rwgt            1           1  -4.7030356050886513E-002          10      107459           0
</event>
<event>
      5   9999  3.79277E-02  2.54401E+01 -1.00000E+00  1.58185E-01
      21    -1     0     0   512   501  0.000000000E+00  0.000000000E+00  3.027310127E+02  3.027310127E+02  0.000000000E+00  0.00000E+00  9.000E+00
      21    -1     0     0   501   502  0.000000000E+00  0.000000000E+00 -2.809122215E+02  2.809122215E+02  0.000000000E+00  0.00000E+00  9.000E+00
      25     1     1     2     0     0  1.287141447E+02 -2.153462166E+02 -7.387801119E-01  2.802978235E+02  1.250000000E+02  0.00000E+00  9.000E+00
      25     1     1     2     0     0 -1.111671570E+02  1.969260130E+02 -1.404889771E+01  2.587670051E+02  1.250000000E+02  0.00000E+00  9.000E+00
      21     1     1     2   512   502 -1.754698774E+01  1.842020360E+01  3.660646900E+01  4.457840567E+01  8.259061849E-07  0.00000E+00  9.000E+00
#rwgt            1           1   2.6423339423575283E-002          10      107617           0
</event>
<event>
      5   9999 -3.79277E-02  5.94731E+01 -1.00000E+00  1.34908E-01
      21    -1     0     0   502   501  0.000000000E+00  0.000000000E+00  5.834518085E+01  5.834518085E+01  0.000000000E+00  0.00000E+00  9.000E+00
      21    -1     0     0   511   502  0.000000000E+00  0.000000000E+00 -2.144832776E+03  2.144832776E+03  0.000000000E+00  0.00000E+00  9.000E+00
      25     1     1     2     0     0  1.694961183E+02 -1.712923428E+02 -4.960932587E+02  5.655117348E+02  1.250000000E+02  0.00000E+00  9.000E+00
      25     1     1     2     0     0 -2.174601410E+02  2.064561925E+02 -1.219289596E+03  1.261826134E+03  1.250000000E+02  0.00000E+00  9.000E+00
      21     1     1     2   511   501  4.796402273E+01 -3.516384980E+01 -3.711047405E+02  3.758400886E+02  7.629394531E-06  0.00000E+00  9.000E+00
#rwgt            1           1 -0.41812600632264618               10      107821           0
</event>
<event>
      5   9999  3.79277E-02  1.41840E+02 -1.00000E+00  1.17365E-01
      21    -1     0     0   502   501  0.000000000E+00  0.000000000E+00  3.770893909E+02  3.770893909E+02  0.000000000E+00  0.00000E+00  9.000E+00
      21    -1     0     0   501   512  0.000000000E+00  0.000000000E+00 -1.773906778E+02  1.773906778E+02  0.000000000E+00  0.00000E+00  9.000E+00
      25     1     1     2     0     0 -7.967441366E+00  1.513156933E+02  1.723268419E+01  1.971848994E+02  1.250000000E+02  0.00000E+00  9.000E+00
      25     1     1     2     0     0 -8.243451422E+01 -4.201723224E+01  1.399567279E+02  2.092218503E+02  1.250000000E+02  0.00000E+00  9.000E+00
      21     1     1     2   502   512  9.040195558E+01 -1.092984610E+02  4.250930099E+01  1.480733191E+02  1.581489940E-06  0.00000E+00  9.000E+00
#rwgt            1           1   4.4264528397684182E-002          10      107884           0
</event>
<event>
      5   9999  3.79277E-02  2.76279E+01 -1.00000E+00  1.55567E-01
      21    -1     0     0   511   501  0.000000000E+00  0.000000000E+00  5.855249600E+01  5.855249600E+01  0.000000000E+00  0.00000E+00  9.000E+00
      21    -1     0     0   501   502  0.000000000E+00  0.000000000E+00 -1.195273603E+03  1.195273603E+03  0.000000000E+00  0.00000E+00  9.000E+00
      25     1     1     2     0     0 -9.759952308E+01 -1.621591261E+02 -3.387237452E+02  4.076518424E+02  1.250000000E+02  0.00000E+00  9.000E+00
      25     1     1     2     0     0  8.807602279E+01  1.362245714E+02 -7.918065094E+02  8.178612767E+02  1.250000000E+02  0.00000E+00  9.000E+00
      21     1     1     2   511   502  9.523500289E+00  2.593455479E+01 -6.190852786E+00  2.831298020E+01  1.192092896E-07  0.00000E+00  9.000E+00
#rwgt            1           1   4.0618949460938199E-002          10      107975           0
</event>
<event>
      5   9999  3.79277E-02  2.75555E+01 -1.00000E+00  1.55649E-01
      21    -1     0     0   512   501  0.000000000E+00  0.000000000E+00  1.680895394E+03  1.680895394E+03  0.000000000E+00  0.00000E+00  9.000E+00
      21    -1     0     0   501   502  0.000000000E+00  0.000000000E+00 -6.694001778E+01  6.694001778E+01  0.000000000E+00  0.00000E+00  9.000E+00
      25     1     1     2     0     0 -6.086125537E+01  2.307089524E+02  3.072841006E+02  4.086309235E+02  1.250000000E+02  0.00000E+00  9.000E+00
      25     1     1     2     0     0  3.333110226E+01 -2.318901534E+02  1.164994028E+03  1.194872416E+03  1.250000000E+02  0.00000E+00  9.000E+00
      21     1     1     2   512   502  2.753015311E+01  1.181200957E+00  1.416772478E+02  1.443320724E+02  1.907348633E-06  0.00000E+00  9.000E+00
#rwgt            1           1   2.6188015014975329E-002          10      108161           0
</event>
<event>
      5   9999 -3.79277E-02  2.21741E+01 -1.00000E+00  1.62754E-01
      21    -1     0     0   502   501  0.000000000E+00  0.000000000E+00  2.499720214E+03  2.499720214E+03  0.000000000E+00  0.00000E+00  9.000E+00
      21    -1     0     0   511   502  0.000000000E+00  0.000000000E+00 -4.851718374E+01  4.851718374E+01  0.000000000E+00  0.00000E+00  9.000E+00
      25     1     1     2     0     0  4.165331839E+01  2.711328943E+02  1.633926549E+03  1.661502035E+03  1.250000000E+02  0.00000E+00  9.000E+00
      25     1     1     2     0     0 -4.069167858E+01 -2.932861128E+02  7.522736660E+02  8.180545369E+02  1.250000000E+02  0.00000E+00  9.000E+00
      21     1     1     2   511   501 -9.616398148E-01  2.215321848E+01  6.500281604E+01  6.868082654E+01  1.348699152E-06  0.00000E+00  9.000E+00
#rwgt            1           1 -0.91374762130587839               10      108340           0
</event>
<event>
      5   9999  3.79277E-02  3.00178E+01 -1.00000E+00  1.53022E-01
      21    -1     0     0   502   501  0.000000000E+00  0.000000000E+00  3.896532488E+02  3.896532488E+02  0.000000000E+00  0.00000E+00  9.000E+00
      21    -1     0     0   512   502  0.000000000E+00  0.000000000E+00 -9.113031587E+01  9.113031587E+01  0.000000000E+00  0.00000E+00  9.000E+00
      25     1     1     2     0     0 -5.423007265E+01  8.218778007E+01  8.154700291E+01  1.788033715E+02  1.250000000E+02  0.00000E+00  9.000E+00
      25     1     1     2     0     0  7.231941252E+01 -1.061428021E+02  1.944754777E+02  2.644656940E+02  1.250000000E+02  0.00000E+00  9.000E+00
      21     1     1     2   512   501 -1.808933988E+01  2.395502200E+01  2.250045231E+01  3.751449920E+01  0.000000000E+00  0.00000E+00  9.000E+00
#rwgt            1           1   2.9822008088088471E-002          10      108591           0
</event>
<event>
      5   9999 -3.79277E-02  7.92249E+00 -1.00000E+00  2.08225E-01
      21    -1     0     0   511   501  0.000000000E+00  0.000000000E+00  3.081244594E+02  3.081244594E+02  0.000000000E+00  0.00000E+00  9.000E+00
      21    -1     0     0   501   502  0.000000000E+00  0.000000000E+00 -1.846612066E+02  1.846612066E+02  0.000000000E+00  0.00000E+00  9.000E+00
      25     1     1     2     0     0  3.215636399E+01 -1.591270025E+02  3.799876230E+01  2.083850777E+02  1.250000000E+02  0.00000E+00  9.000E+00
      25     1     1     2     0     0 -4.007317109E+01  1.594270512E+02  8.142730186E+00  2.066740132E+02  1.250000000E+02  0.00000E+00  9.000E+00
      21     1     1     2   511   502  7.916807104E+00 -3.000487196E-01  7.732176031E+01  7.772657513E+01  0.000000000E+00  0.00000E+00  9.000E+00
#rwgt            1           1  -1.6334875579856252E-002          10      108741           0
</event>
<event>
      5   9999  3.79277E-02  4.96711E+01 -1.00000E+00  1.39239E-01
      21    -1     0     0   502   501  0.000000000E+00  0.000000000E+00  2.020436759E+02  2.020436759E+02  0.000000000E+00  0.00000E+00  9.000E+00
      21    -1     0     0   501   512  0.000000000E+00  0.000000000E+00 -2.621983372E+02  2.621983372E+02  0.000000000E+00  0.00000E+00  9.000E+00
      25     1     1     2     0     0  9.346275564E+01  7.203058041E+01  4.008778727E+01  1.765098351E+02  1.250000000E+02  0.00000E+00  9.000E+00
      25     1     1     2     0     0 -1.318521780E+02 -1.035499951E+02 -4.588484599E+01  2.140981491E+02  1.250000000E+02  0.00000E+00  9.000E+00
      21     1     1     2   502   512  3.838942240E+01  3.151941468E+01 -5.435760258E+01  7.363402890E+01  0.000000000E+00  0.00000E+00  9.000E+00
#rwgt            1           1   4.8379392799760931E-002          10      109085           0
</event>
<event>
      5   9999  3.79277E-02  6.69580E+00 -1.00000E+00  2.18317E-01
      21    -1     0     0   511   501  0.000000000E+00  0.000000000E+00  1.484232078E+02  1.484232078E+02  0.000000000E+00  0.00000E+00  9.000E+00
      21    -1     0     0   501   502  0.000000000E+00  0.000000000E+00 -4.943805927E+02  4.943805927E+02  0.000000000E+00  0.00000E+00  9.000E+00
      25     1     1     2     0     0 -7.055803271E+01 -1.082718649E+02 -4.073113188E+02  4.452288660E+02  1.250000000E+02  0.00000E+00  9.000E+00
      25     1     1     2     0     0  7.548923088E+01  1.037422958E+02  6.422204269E+01  1.902907215E+02  1.250000000E+02  0.00000E+00  9.000E+00
      21     1     1     2   511   502 -4.931198175E+00  4.529569091E+00 -2.868108740E+00  7.284213021E+00  8.429369702E-08  0.00000E+00  9.000E+00
#rwgt            1           1   4.4715379901676768E-002          10      109299           0
</event>
<event>
      5   9999  3.79277E-02  8.30945E+01 -1.00000E+00  1.27557E-01
      21    -1     0     0   502   512  0.000000000E+00  0.000000000E+00  3.041190055E+02  3.041190055E+02  0.000000000E+00  0.00000E+00  9.000E+00
      21    -1     0     0   501   502  0.000000000E+00  0.000000000E+00 -3.189533879E+02  3.189533879E+02  0.000000000E+00  0.00000E+00  9.000E+00
      25     1     1     2     0     0 -6.541272914E+01  8.577076196E+01 -1.919159040E+02  2.531643003E+02  1.250000000E+02  0.00000E+00  9.000E+00
      25     1     1     2     0     0  1.381820641E+02 -1.258871302E+02  7.236352925E+01  2.362272904E+02  1.250000000E+02  0.00000E+00  9.000E+00
      21     1     1     2   501   512 -7.276933496E+01  4.011636822E+01  1.047179923E+02  1.336808027E+02  0.000000000E+00  0.00000E+00  9.000E+00
#rwgt            1           1   2.6814743746807715E-002          10      109691           0
</event>
<event>
      5   9999  3.79277E-02  8.75861E+00 -1.00000E+00  2.02656E-01
      21    -1     0     0   502   501  0.000000000E+00  0.000000000E+00  7.005706029E+02  7.005706029E+02  0.000000000E+00  0.00000E+00  9.000E+00
      21    -1     0     0   511   502  0.000000000E+00  0.000000000E+00 -6.840944325E+01  6.840944325E+01  0.000000000E+00  0.00000E+00  9.000E+00
      25     1     1     2     0     0  7.195674242E+01 -9.188330170E+01  5.284226822E+02  5.554060181E+02  1.250000000E+02  0.00000E+00  9.000E+00
      25     1     1     2     0     0 -6.572632322E+01  9.803919890E+01  1.088026594E+02  2.034567590E+02  1.250000000E+02  0.00000E+00  9.000E+00
      21     1     1     2   511   501 -6.230419198E+00 -6.155897199E+00 -5.064181960E+00  1.011726903E+01  3.153981341E-07  0.00000E+00  9.000E+00
#rwgt            1           1   3.7505652563373820E-002          10      109785           0
</event>
<event>
      5   9999  3.79277E-02  6.08884E+01 -1.00000E+00  1.34363E-01
      21    -1     0     0   502   501  0.000000000E+00  0.000000000E+00  2.222537457E+02  2.222537457E+02  0.000000000E+00  0.00000E+00  9.000E+00
      21    -1     0     0   512   502  0.000000000E+00  0.000000000E+00 -3.490136906E+02  3.490136906E+02  0.000000000E+00  0.00000E+00  9.000E+00
      25     1     1     2     0     0 -1.542850633E+02  1.326417309E+01  5.308865762E+01  2.059689894E+02  1.250000000E+02  0.00000E+00  9.000E+00
      25     1     1     2     0     0  1.837627128E+02  4.001306083E+01 -6.447598681E+01  2.348444858E+02  1.250000000E+02  0.00000E+00  9.000E+00
      21     1     1     2   512   501 -2.947764947E+01 -5.327723392E+01 -1.153726157E+02  1.304539610E+02  1.348699152E-06  0.00000E+00  9.000E+00
#rwgt            1           1   3.4159397657350828E-002          10      110030           0
</event>
<event>
      5   9999  3.79277E-02  3.28603E+01 -1.00000E+00  1.50343E-01
      21    -1     0     0   502   501  0.000000000E+00  0.000000000E+00  9.709620969E+02  9.709620969E+02  0.000000000E+00  0.00000E+00  9.000E+00
      21    -1     0     0   511   502  0.000000000E+00  0.000000000E+00 -7.253606884E+01  7.253606884E+01  0.000000000E+00  0.00000E+00  9.000E+00
      25     1     1     2     0     0  1.704096686E+02 -5.601487398E+01  3.897233976E+02  4.468628961E+02  1.250000000E+02  0.00000E+00  9.000E+00
      25     1     1     2     0     0 -1.432710026E+02  7.454303836E+01  5.225012579E+02  5.609953737E+02  1.250000000E+02  0.00000E+00  9.000E+00
      21     1     1     2   511   501 -2.713866594E+01 -1.852816438E+01 -1.379862748E+01  3.563989597E+01  8.920806376E-07  0.00000E+00  9.000E+00
#rwgt            1           1   4.1864502034753510E-002          10      110114           0
</event>
<event>
      5   9999  3.79277E-02  2.54377E+01 -1.00000E+00  1.58188E-01
      21    -1     0     0   502   501  0.000000000E+00  0.000000000E+00  2.612782855E+02  2.612782855E+02  0.000000000E+00  0.00000E+00  9.000E+00
      21    -1     0     0   512   502  0.000000000E+00  0.000000000E+00 -1.811178777E+02  1.811178777E+02  0.000000000E+00  0.00000E+00  9.000E+00
      25     1     1     2     0     0 -7.630794499E+01 -3.640183137E+01 -8.604295421E+01  1.737135164E+02  1.250000000E+02  0.00000E+00  9.000E+00
      25     1     1     2     0     0  7.632329391E+01  6.183949395E+01  1.796639398E+02  2.399031043E+02  1.250000000E+02  0.00000E+00  9.000E+00
      21     1     1     2   512   501 -1.534891604E-02 -2.543766258E+01 -1.346057782E+01  2.877954253E+01  2.384185791E-07  0.00000E+00  9.000E+00
#rwgt            1           1   2.9899786914241385E-002          10      110284           0
</event>
<event>
      5   9999  3.79277E-02  1.35175E+01 -1.00000E+00  1.81750E-01
      21    -1     0     0   502   501  0.000000000E+00  0.000000000E+00  9.474723256E+01  9.474723256E+01  0.000000000E+00  0.00000E+00  9.000E+00
      21    -1     0     0   511   502  0.000000000E+00  0.000000000E+00 -3.591494324E+02  3.591494324E+02  0.000000000E+00  0.00000E+00  9.000E+00
      25     1     1     2     0     0  8.865590785E+01  1.265896127E+01 -1.732739405E+01  1.547428767E+02  1.250000000E+02  0.00000E+00  9.000E+00
      25     1     1     2     0     0 -8.489872337E+01 -2.564378010E+01 -2.122894134E+02  2.618342829E+02  1.250000000E+02  0.00000E+00  9.000E+00
      21     1     1     2   511   501 -3.757184481E+00  1.298481883E+01 -3.478539243E+01  3.731950538E+01  0.000000000E+00  0.00000E+00  9.000E+00
#rwgt            1           1   9.2133154097895312E-002          10      110433           0
</event>
<event>
      5   9999  3.79277E-02  1.25926E+02 -1.00000E+00  1.19486E-01
      21    -1     0     0   502   501  0.000000000E+00  0.000000000E+00  2.231144607E+02  2.231144607E+02  0.000000000E+00  0.00000E+00  9.000E+00
      21    -1     0     0   512   502  0.000000000E+00  0.000000000E+00 -3.312686038E+02  3.312686038E+02  0.000000000E+00  0.00000E+00  9.000E+00
      25     1     1     2     0     0  5.417372421E+01 -8.343054602E+01 -1.710353887E+02  2.340375026E+02  1.250000000E+02  0.00000E+00  9.000E+00
      25     1     1     2     0     0 -5.959520821E+01 -4.237833248E+01  1.141348818E+02  1.843889453E+02  1.250000000E+02  0.00000E+00  9.000E+00
      21     1     1     2   512   501  5.421484007E+00  1.258088785E+02 -5.125363621E+01  1.359566167E+02  2.023048729E-06  0.00000E+00  9.000E+00
#rwgt            1           1   4.4135443481285952E-002          10      110707           0
</event>
<event>
      5   9999  3.79277E-02  1.78267E+01 -1.00000E+00  1.70599E-01
      21    -1     0     0   502   501  0.000000000E+00  0.000000000E+00  9.998267916E+02  9.998267916E+02  0.000000000E+00  0.00000E+00  9.000E+00
      -2    -1     0     0     0   502  0.000000000E+00  0.000000000E+00 -2.752798973E+02  2.752798973E+02  0.000000000E+00  0.00000E+00  9.000E+00
      25     1     1     2     0     0 -1.230768006E+02  1.487856370E+02  5.097700267E+02  5.592633948E+02  1.250000000E+02  0.00000E+00  9.000E+00
      25     1     1     2     0     0  1.183471562E+02 -1.659734860E+02  4.342042158E+02  4.956929982E+02  1.250000000E+02  0.00000E+00  9.000E+00
      -2     1     1     2     0   501  4.729644424E+00  1.718784896E+01 -2.194273482E+02  2.201502960E+02  2.697398305E-06  0.00000E+00  9.000E+00
#rwgt            1           1   3.5720462928976307E-002          10      110865           0
</event>
<event>
      5   9999  3.79277E-02  1.18582E+01 -1.00000E+00  1.87573E-01
      21    -1     0     0   502   501  0.000000000E+00  0.000000000E+00  4.697113091E+01  4.697113091E+01  0.000000000E+00  0.00000E+00  9.000E+00
      21    -1     0     0   501   511  0.000000000E+00  0.000000000E+00 -1.357028319E+03  1.357028319E+03  0.000000000E+00  0.00000E+00  9.000E+00
      25     1     1     2     0     0 -4.618599305E+01  1.220448537E+01 -4.978910857E+02  5.155604995E+02  1.250000000E+02  0.00000E+00  9.000E+00
      25     1     1     2     0     0  5.297359438E+01 -2.192787710E+01 -8.604574636E+01  1.622217740E+02  1.250000000E+02  0.00000E+00  9.000E+00
      21     1     1     2   502   511 -6.787601325E+00  9.723391725E+00 -7.261203562E+02  7.262171766E+02  1.078959322E-05  0.00000E+00  9.000E+00
#rwgt            1           1   2.9335870943163606E-002          10      111004           0
</event>
<event>
      5   9999  3.79277E-02  3.33632E+01 -1.00000E+00  1.49902E-01
      21    -1     0     0   502   501  0.000000000E+00  0.000000000E+00  7.364010779E+01  7.364010779E+01  0.000000000E+00  0.00000E+00  9.000E+00
      21    -1     0     0   512   502  0.000000000E+00  0.000000000E+00 -6.481575911E+02  6.481575911E+02  0.000000000E+00  0.00000E+00  9.000E+00
      25     1     1     2     0     0  1.302336758E+02 -7.254199690E+01 -2.250396099E+02  2.974743311E+02  1.250000000E+02  0.00000E+00  9.000E+00
      25     1     1     2     0     0 -1.266650301E+02  1.057137984E+02 -2.932625851E+02  3.589531736E+02  1.250000000E+02  0.00000E+00  9.000E+00
      21     1     1     2   512   501 -3.568645682E+00 -3.317180151E+01 -5.621528827E+01  6.537019415E+01  1.168007728E-06  0.00000E+00  9.000E+00
#rwgt            1           1   3.1279557749476376E-002          10      111260           0
</event>
<event>
      5   9999  3.79277E-02  8.69264E+01 -1.00000E+00  1.26628E-01
      21    -1     0     0   511   501  0.000000000E+00  0.000000000E+00  2.803503688E+01  2.803503688E+01  0.000000000E+00  0.00000E+00  9.000E+00
      21    -1     0     0   501   502  0.000000000E+00  0.000000000E+00 -2.015583054E+03  2.015583054E+03  0.000000000E+00  0.00000E+00  9.000E+00
      25     1     1     2     0     0  6.979702226E+01  1.024131105E+02 -1.277545489E+03  1.289615271E+03  1.250000000E+02  0.00000E+00  9.000E+00
      25     1     1     2     0     0  1.709229157E+01 -1.049532897E+02 -5.146728141E+02  5.402040772E+02  1.250000000E+02  0.00000E+00  9.000E+00
      21     1     1     2   511   502 -8.688931383E+01  2.540179269E+00 -1.953297133E+02  2.137987424E+02  3.814697266E-06  0.00000E+00  9.000E+00
#rwgt            1           1  0.16954345618986724               10      111439           0
</event>
<event>
      5   9999  3.79277E-02  8.73193E+01 -1.00000E+00  1.26536E-01
      21    -1     0     0   502   501  0.000000000E+00  0.000000000E+00  6.480237014E+02  6.480237014E+02  0.000000000E+00  0.00000E+00  9.000E+00
      21    -1     0     0   512   502  0.000000000E+00  0.000000000E+00 -3.123984174E+02  3.123984174E+02  0.000000000E+00  0.00000E+00  9.000E+00
      25     1     1     2     0     0  1.232663864E+02  3.417231440E-01  5.630903474E+02  5.898223954E+02  1.250000000E+02  0.00000E+00  9.000E+00
      25     1     1     2     0     0 -9.795720667E+01 -8.391264593E+01 -7.447369651E+01  1.944435084E+02  1.250000000E+02  0.00000E+00  9.000E+00
      21     1     1     2   512   501 -2.530917976E+01  8.357092278E+01 -1.529913669E+02  1.761562150E+02  4.264961200E-06  0.00000E+00  9.000E+00
#rwgt            1           1   4.2779932925429684E-002          10      111534           0
</event>
<event>
      5   9999  3.79277E-02  9.84206E+01 -1.00000E+00  1.24140E-01
      21    -1     0     0   511   501  0.000000000E+00  0.000000000E+00  5.304061881E+02  5.304061881E+02  0.000000000E+00  0.00000E+00  9.000E+00
      21    -1     0     0   501   502  0.000000000E+00  0.000000000E+00 -2.057070112E+02  2.057070112E+02  0.000000000E+00  0.00000E+00  9.000E+00
      25     1     1     2     0     0  5.644450695E+01 -1.437050583E+02 -1.090562509E+02  2.266172809E+02  1.250000000E+02  0.00000E+00  9.000E+00
      25     1     1     2     0     0  1.481627311E+01  7.581906792E+01  3.523781156E+02  3.817897188E+02  1.250000000E+02  0.00000E+00  9.000E+00
      21     1     1     2   511   502 -7.126078006E+01  6.788599036E+01  8.137731219E+01  1.277061995E+02  2.697398305E-06  0.00000E+00  9.000E+00
#rwgt            1           1   4.6921080525837981E-002          10      111698           0
</event>
<event>
      5   9999  3.79277E-02  5.51304E+01 -1.00000E+00  1.36698E-01
      21    -1     0     0   502   501  0.000000000E+00  0.000000000E+00  8.435619642E+02  8.435619642E+02  0.000000000E+00  0.00000E+00  9.000E+00
      21    -1     0     0   512   502  0.000000000E+00  0.000000000E+00 -7.906696936E+01  7.906696936E+01  0.000000000E+00  0.00000E+00  9.000E+00
      25     1     1     2     0     0  7.640683679E-01  1.039934021E+02  6.297888824E+02  6.504415792E+02  1.250000000E+02  0.00000E+00  9.000E+00
      25     1     1     2     0     0 -4.179708587E+01 -6.717423208E+01  1.542239231E+02  2.137039829E+02  1.250000000E+02  0.00000E+00  9.000E+00
      21     1     1     2   512   501  4.103301750E+01 -3.681917006E+01 -1.951781069E+01  5.848337151E+01  1.488923549E-06  0.00000E+00  9.000E+00
#rwgt            1           1   3.9110204820268855E-002          10      111851           0
</event>
<event>
      5   9999  3.79277E-02  4.77898E+01 -1.00000E+00  1.40205E-01
       1    -1     0     0   502     0  0.000000000E+00  0.000000000E+00  7.921403755E+02  7.921403755E+02  0.000000000E+00  0.00000E+00  9.000E+00
      21    -1     0     0   501   502  0.000000000E+00  0.000000000E+00 -7.392510893E+02  7.392510893E+02  0.000000000E+00  0.00000E+00  9.000E+00
      25     1     1     2     0     0  2.105248454E+02 -1.583753344E+02 -1.038709897E+02  3.095442449E+02  1.250000000E+02  0.00000E+00  9.000E+00
      25     1     1     2     0     0 -1.628220467E+02  1.554933694E+02 -5.004942168E+02  5.628575911E+02  1.250000000E+02  0.00000E+00  9.000E+00
       1     1     1     2   501     0 -4.770279868E+01  2.881964950E+00  6.572544927E+02  6.589896288E+02  1.078959322E-05  0.00000E+00  9.000E+00
#rwgt            1           1   4.2416334105474990E-002          10      111994           0
</event>
<event>
      5   9999  3.79277E-02  5.43787E+01 -1.00000E+00  1.37027E-01
      21    -1     0     0   502   501  0.000000000E+00  0.000000000E+00  1.526112522E+02  1.526112522E+02  0.000000000E+00  0.00000E+00  9.000E+00
      21    -1     0     0   511   502  0.000000000E+00  0.000000000E+00 -9.916828698E+02  9.916828698E+02  0.000000000E+00  0.00000E+00  9.000E+00
      25     1     1     2     0     0 -1.362555266E+02  1.525827671E+02 -2.294723221E+02  3.318578249E+02  1.250000000E+02  0.00000E+00  9.000E+00
      25     1     1     2     0     0  1.645485317E+02 -1.061440852E+02 -3.460095784E+01  2.348723321E+02  1.250000000E+02  0.00000E+00  9.000E+00
      21     1     1     2   511   501 -2.829300513E+01 -4.643868187E+01 -5.749983376E+02  5.775639650E+02  7.629394531E-06  0.00000E+00  9.000E+00
#rwgt            1           1   3.7191176458796313E-002          10      112316           0
</event>
<event>
      5   9999  3.79277E-02  1.01225E+02 -1.00000E+00  1.23591E-01
      21    -1     0     0   502   501  0.000000000E+00  0.000000000E+00  5.650358470E+02  5.650358470E+02  0.000000000E+00  0.00000E+00  9.000E+00
      21    -1     0     0   501   512  0.000000000E+00  0.000000000E+00 -3.186267486E+02  3.186267486E+02  0.000000000E+00  0.00000E+00  9.000E+00
      25     1     1     2     0     0 -2.777976413E+02  1.272903301E+02  1.250145231E+02  3.530268950E+02  1.250000000E+02  0.00000E+00  9.000E+00
      25     1     1     2     0     0  3.252871150E+02 -3.789663650E+01  1.990044575E+02  4.030826669E+02  1.250000000E+02  0.00000E+00  9.000E+00
      21     1     1     2   502   512 -4.748947376E+01 -8.939369356E+01 -7.760988218E+01  1.275530336E+02  1.651812370E-06  0.00000E+00  9.000E+00
#rwgt            2          11   2.7089572014963740E-003          10      112398           0
</event>
<event>
      5   9999  3.79277E-02  2.67402E+02 -1.00000E+00  1.07241E-01
      21    -1     0     0   502   501  0.000000000E+00  0.000000000E+00  2.461598706E+02  2.461598706E+02  0.000000000E+00  0.00000E+00  9.000E+00
      21    -1     0     0   501   511  0.000000000E+00  0.000000000E+00 -1.084860533E+03  1.084860533E+03  0.000000000E+00  0.00000E+00  9.000E+00
      25     1     1     2     0     0 -1.692715868E+02 -2.834927929E+02 -3.595540318E+02  5.039098486E+02  1.250000000E+02  0.00000E+00  9.000E+00
      25     1     1     2     0     0 -9.263262425E+01  2.295463630E+02  1.249520065E+00  2.773065039E+02  1.250000000E+02  0.00000E+00  9.000E+00
      21     1     1     2   502   511  2.619042111E+02  5.394642994E+01 -4.803961508E+02  5.498040512E+02  5.394796609E-06  0.00000E+00  9.000E+00
#rwgt            2          11   1.5666379400934522E-003          10      112418           0
</event>
<event>
      5   9999  3.79277E-02  6.03424E+01 -1.00000E+00  1.34571E-01
      21    -1     0     0   502   501  0.000000000E+00  0.000000000E+00  8.356575106E+01  8.356575106E+01  0.000000000E+00  0.00000E+00  9.000E+00
       1    -1     0     0   501     0  0.000000000E+00  0.000000000E+00 -1.467023179E+03  1.467023179E+03  0.000000000E+00  0.00000E+00  9.000E+00
      25     1     1     2     0     0  1.611198939E+02 -2.021708770E+02 -5.514939653E+02  6.217742979E+02  1.250000000E+02  0.00000E+00  9.000E+00
      25     1     1     2     0     0 -1.076541951E+02  2.301463240E+02 -3.856637019E+02  4.784540178E+02  1.250000000E+02  0.00000E+00  9.000E+00
       1     1     1     2   502     0 -5.346569875E+01 -2.797544702E+01 -4.462997602E+02  4.503606139E+02  0.000000000E+00  0.00000E+00  9.000E+00
#rwgt            1           1   4.0085917458647563E-002          10      112453           0
</event>
<event>
      5   9999  3.79277E-02  5.68506E+01 -1.00000E+00  1.35967E-01
      21    -1     0     0   502   511  0.000000000E+00  0.000000000E+00  1.105393245E+02  1.105393245E+02  0.000000000E+00  0.00000E+00  9.000E+00
      21    -1     0     0   501   502  0.000000000E+00  0.000000000E+00 -1.331905549E+03  1.331905549E+03  0.000000000E+00  0.00000E+00  9.000E+00
      25     1     1     2     0     0  7.154455892E+01 -2.481212646E+00 -1.183182909E+03  1.191919283E+03  1.250000000E+02  0.00000E+00  9.000E+00
      25     1     1     2     0     0 -5.407287853E+01 -5.161803334E+01 -9.197676289E+01  1.722585919E+02  1.250000000E+02  0.00000E+00  9.000E+00
      21     1     1     2   501   511 -1.747168039E+01  5.409924598E+01  5.379344783E+01  7.826699855E+01  1.348699152E-06  0.00000E+00  9.000E+00
#rwgt            1           1   4.6824973457245386E-002          10      112512           0
</event>
<event>
      5   9999 -4.20495E-02  4.53333E+01 -1.00000E+00  1.41548E-01
      21    -1     0     0   502   501  0.000000000E+00  0.000000000E+00  2.276283032E+02  2.276283032E+02  0.000000000E+00  0.00000E+00  9.000E+00
      21    -1     0     0   512   502  0.000000000E+00  0.000000000E+00 -8.187141461E+02  8.187141461E+02  0.000000000E+00  0.00000E+00  9.000E+00
      25     1     1     2     0     0 -8.018842807E+01  3.647922940E+02 -1.324993881E+02  4.155534738E+02  1.250000000E+02  0.00000E+00  9.000E+00
      25     1     1     2     0     0  3.835116862E+01 -3.473351229E+02 -3.380565842E+02  5.020156909E+02  1.250000000E+02  0.00000E+00  9.000E+00
      21     1     1     2   512   501  4.183725946E+01 -1.745717105E+01 -1.205298706E+02  1.287732845E+02  1.907348633E-06  0.00000E+00  9.000E+00
#rwgt            1           1 -0.80089151103162504               10      112658           0
</event>
<event>
      5   9999  3.79277E-02  8.66464E+01 -1.00000E+00  1.26694E-01
      21    -1     0     0   502   501  0.000000000E+00  0.000000000E+00  9.259759076E+01  9.259759076E+01  0.000000000E+00  0.00000E+00  9.000E+00
      21    -1     0     0   501   511  0.000000000E+00  0.000000000E+00 -1.771855055E+03  1.771855055E+03  0.000000000E+00  0.00000E+00  9.000E+00
      25     1     1     2     0     0 -1.299637499E+02  1.281057555E+01 -1.432421402E+03  1.443783488E+03  1.250000000E+02  0.00000E+00  9.000E+00
      25     1     1     2     0     0  1.537805723E+02  7.049827020E+01 -6.650944053E+01  2.206059296E+02  1.250000000E+02  0.00000E+00  9.000E+00
      21     1     1     2   502   511 -2.381682234E+01 -8.330884575E+01 -1.803266224E+02  2.000632289E+02  3.303624740E-06  0.00000E+00  9.000E+00
#rwgt            1           1   1.7962228941233057E-002          10      112826           0
</event>
<event>
      5   9999  3.79277E-02  2.87829E+01 -1.00000E+00  1.54300E-01
      21    -1     0     0   502   501  0.000000000E+00  0.000000000E+00  1.873021851E+02  1.873021851E+02  0.000000000E+00  0.00000E+00  9.000E+00
      21    -1     0     0   501   512  0.000000000E+00  0.000000000E+00 -3.212627290E+02  3.212627290E+02  0.000000000E+00  0.00000E+00  9.000E+00
      25     1     1     2     0     0 -4.214549597E+01  8.444503029E+01  1.125804034E+02  1.928900028E+02  1.250000000E+02  0.00000E+00  9.000E+00
      25     1     1     2     0     0  7.072338751E+01 -8.101547323E+01 -1.855406431E+02  2.482249679E+02  1.250000000E+02  0.00000E+00  9.000E+00
      21     1     1     2   502   512 -2.857789153E+01 -3.429557056E+00 -6.100030422E+01  6.744994337E+01  0.000000000E+00  0.00000E+00  9.000E+00
#rwgt            1           1   5.1149763332015596E-002          10      112896           0
</event>
<event>
      5   9999 -3.79277E-02  1.23379E+02 -1.00000E+00  1.19859E-01
      -2    -1     0     0     0   501  0.000000000E+00  0.000000000E+00  5.889306807E+03  5.889306807E+03  0.000000000E+00  0.00000E+00  9.000E+00
      21    -1     0     0   501   502  0.000000000E+00  0.000000000E+00 -4.881044447E+01  4.881044447E+01  0.000000000E+00  0.00000E+00  9.000E+00
      25     1     1     2     0     0  6.249125759E+01  2.962857411E+02  9.519292086E+02  1.006719731E+03  1.250000000E+02  0.00000E+00  9.000E+00
      25     1     1     2     0     0  6.088778301E+01 -2.961932958E+02  1.294481724E+03  1.335195014E+03  1.250000000E+02  0.00000E+00  9.000E+00
      -2     1     1     2     0   502 -1.233790406E+02 -9.244529665E-02  3.594085430E+03  3.596202507E+03  6.103515625E-05  0.00000E+00  9.000E+00
#rwgt            1           1 -0.17926039553472839               10      113064           0
</event>
<event>
      5   9999  3.79277E-02  2.21430E+01 -1.00000E+00  1.62802E-01
      21    -1     0     0   502   501  0.000000000E+00  0.000000000E+00  3.287181358E+02  3.287181358E+02  0.000000000E+00  0.00000E+00  9.000E+00
       4    -1     0     0   501     0  0.000000000E+00  0.000000000E+00 -1.154566888E+02  1.154566888E+02  0.000000000E+00  0.00000E+00  9.000E+00
      25     1     1     2     0     0  4.742236201E+01  6.331571366E+01  7.328641362E+01  1.650868209E+02  1.250000000E+02  0.00000E+00  9.000E+00
      25     1     1     2     0     0 -4.405604925E+01 -4.143007170E+01  1.835802280E+02  2.301827240E+02  1.250000000E+02  0.00000E+00  9.000E+00
       4     1     1     2   502     0 -3.366312752E+00 -2.188564196E+01 -4.360519463E+01  4.890527972E+01  1.168007728E-06  0.00000E+00  9.000E+00
#rwgt            1           1   7.6685603189605669E-002          10      113181           0
</event>
<event>
      5   9999  3.79277E-02  2.34654E+01 -1.00000E+00  1.60839E-01
      21    -1     0     0   511   501  0.000000000E+00  0.000000000E+00  4.539274957E+02  4.539274957E+02  0.000000000E+00  0.00000E+00  9.000E+00
      21    -1     0     0   501   502  0.000000000E+00  0.000000000E+00 -9.874947794E+01  9.874947794E+01  0.000000000E+00  0.00000E+00  9.000E+00
      25     1     1     2     0     0 -1.425999921E+02  6.370627483E+01  1.811636509E+02  2.698861160E+02  1.250000000E+02  0.00000E+00  9.000E+00
      25     1     1     2     0     0  1.262499480E+02 -8.053787116E+01  1.348645864E+02  2.371473271E+02  1.250000000E+02  0.00000E+00  9.000E+00
      21     1     1     2   511   502  1.635004405E+01  1.683159634E+01  3.914978039E+01  4.564353054E+01  9.536743164E-07  0.00000E+00  9.000E+00
#rwgt            1           1  0.12005686252451458               10      113365           0
</event>
<event>
      5   9999  3.79277E-02  1.70020E+01 -1.00000E+00  1.72407E-01
      21    -1     0     0   502   501  0.000000000E+00  0.000000000E+00  4.636687943E+02  4.636687943E+02  0.000000000E+00  0.00000E+00  9.000E+00
      21    -1     0     0   501   512  0.000000000E+00  0.000000000E+00 -1.440335793E+02  1.440335793E+02  0.000000000E+00  0.00000E+00  9.000E+00
      25     1     1     2     0     0 -1.298700522E+02  9.769323194E+01  3.269079564E+02  3.858808235E+02  1.250000000E+02  0.00000E+00  9.000E+00
      25     1     1     2     0     0  1.155433012E+02 -1.068481149E+02  4.691620357E+00  2.010318020E+02  1.250000000E+02  0.00000E+00  9.000E+00
      21     1     1     2   502   512  1.432675098E+01  9.154882995E+00 -1.196436172E+01  2.078974814E+01  1.685873940E-07  0.00000E+00  9.000E+00
#rwgt            1           1   3.8235536936911757E-002          10      113509           0
</event>
<event>
      5   9999  3.79277E-02  3.69639E+01 -1.00000E+00  1.46999E-01
      21    -1     0     0   502   501  0.000000000E+00  0.000000000E+00  2.820097821E+02  2.820097821E+02  0.000000000E+00  0.00000E+00  9.000E+00
      21    -1     0     0   501   511  0.000000000E+00  0.000000000E+00 -3.891069936E+02  3.891069936E+02  0.000000000E+00  0.00000E+00  9.000E+00
      25     1     1     2     0     0 -1.883791959E+02 -2.240911312E+02  1.221468981E+00  3.183238108E+02  1.250000000E+02  0.00000E+00  9.000E+00
      25     1     1     2     0     0  1.526904699E+02  2.144660189E+02 -7.035832795E+01  2.998088511E+02  1.250000000E+02  0.00000E+00  9.000E+00
      21     1     1     2   502   511  3.568872596E+01  9.625112319E+00 -3.796035255E+01  5.298411378E+01  0.000000000E+00  0.00000E+00  9.000E+00
#rwgt            1           1   3.5927264001311028E-002          10      113695           0
</event>
<event>
      5   9999  3.79277E-02  3.22998E+01 -1.00000E+00  1.50845E-01
      21    -1     0     0   502   501  0.000000000E+00  0.000000000E+00  1.303878709E+03  1.303878709E+03  0.000000000E+00  0.00000E+00  9.000E+00
      21    -1     0     0   501   512  0.000000000E+00  0.000000000E+00 -8.199355700E+01  8.199355700E+01  0.000000000E+00  0.00000E+00  9.000E+00
      25     1     1     2     0     0  1.543362836E+02 -1.356821080E+01  6.906255712E+01  2.107093296E+02  1.250000000E+02  0.00000E+00  9.000E+00
      25     1     1     2     0     0 -1.246207074E+02  9.087380143E-01  1.093154767E+03  1.107313637E+03  1.250000000E+02  0.00000E+00  9.000E+00
      21     1     1     2   502   512 -2.971557622E+01  1.265947279E+01  5.966782793E+01  6.784929927E+01  6.743495762E-07  0.00000E+00  9.000E+00
#rwgt            1           1   3.5203756829102026E-002          10      113818           0
</event>
<event>
      5   9999  3.79277E-02  1.63545E+01 -1.00000E+00  1.73918E-01
      21    -1     0     0   502   511  0.000000000E+00  0.000000000E+00  4.695009314E+02  4.695009314E+02  0.000000000E+00  0.00000E+00  9.000E+00
      21    -1     0     0   501   502  0.000000000E+00  0.000000000E+00 -2.382913068E+02  2.382913068E+02  0.000000000E+00  0.00000E+00  9.000E+00
      25     1     1     2     0     0  1.465695437E+02 -2.138318609E+02  2.411421564E+02  3.754746802E+02  1.250000000E+02  0.00000E+00  9.000E+00
      25     1     1     2     0     0 -1.585698705E+02  2.249431602E+02 -3.296967444E+01  3.040655005E+02  1.250000000E+02  0.00000E+00  9.000E+00
      21     1     1     2   501   511  1.200032673E+01 -1.111129931E+01  2.303714265E+01  2.825205754E+01  4.768371582E-07  0.00000E+00  9.000E+00
#rwgt            1           1   2.9977582936584330E-002          10      113956           0
</event>
<event>
      5   9999  3.79277E-02  4.80750E+01 -1.00000E+00  1.40055E-01
       2    -1     0     0   502     0  0.000000000E+00  0.000000000E+00  3.112512496E+03  3.112512496E+03  0.000000000E+00  0.00000E+00  9.000E+00
      21    -1     0     0   501   502  0.000000000E+00  0.000000000E+00 -4.457188589E+01  4.457188589E+01  0.000000000E+00  0.00000E+00  9.000E+00
      25     1     1     2     0     0  1.051659598E+02 -2.157824885E+02  6.653614075E+02  7.182985201E+02  1.250000000E+02  0.00000E+00  9.000E+00
      25     1     1     2     0     0 -8.119749670E+01  2.574564402E+02  1.239024804E+03  1.274238720E+03  1.250000000E+02  0.00000E+00  9.000E+00
       2     1     1     2   501     0 -2.396846311E+01 -4.167395177E+01  1.163554399E+03  1.164547141E+03  1.525878906E-05  0.00000E+00  9.000E+00
#rwgt            1           1   2.2637941991231935E-002          10      114236           0
</event>
<event>
      5   9999  3.79277E-02  2.32560E+01 -1.00000E+00  1.61140E-01
      21    -1     0     0   502   501  0.000000000E+00  0.000000000E+00  1.163520780E+02  1.163520780E+02  0.000000000E+00  0.00000E+00  9.000E+00
       2    -1     0     0   501     0  0.000000000E+00  0.000000000E+00 -2.592100007E+03  2.592100007E+03  0.000000000E+00  0.00000E+00  9.000E+00
      25     1     1     2     0     0 -1.434754301E+02  2.017993922E+02 -1.625349811E+02  3.214822138E+02  1.250000000E+02  0.00000E+00  9.000E+00
      25     1     1     2     0     0  1.383268099E+02 -1.791205017E+02 -4.172042165E+02  4.908185191E+02  1.250000000E+02  0.00000E+00  9.000E+00
       2     1     1     2   502     0  5.148620174E+00 -2.267889048E+01 -1.896008732E+03  1.896151352E+03  3.737624730E-05  0.00000E+00  9.000E+00
#rwgt            1           1   3.8942582587073088E-002          10      114465           0
</event>
<event>
      5   9999  3.79277E-02  3.39460E+01 -1.00000E+00  1.49403E-01
      21    -1     0     0   502   501  0.000000000E+00  0.000000000E+00  4.673291743E+02  4.673291743E+02  0.000000000E+00  0.00000E+00  9.000E+00
      21    -1     0     0   511   502  0.000000000E+00  0.000000000E+00 -8.488830769E+01  8.488830769E+01  0.000000000E+00  0.00000E+00  9.000E+00
      25     1     1     2     0     0  8.142445441E+00 -1.052677661E+02  5.484334910E+01  1.725699712E+02  1.250000000E+02  0.00000E+00  9.000E+00
      25     1     1     2     0     0 -1.603413937E+01  7.225186781E+01  3.077818991E+02  3.403411868E+02  1.250000000E+02  0.00000E+00  9.000E+00
      21     1     1     2   511   501  7.891693929E+00  3.301589832E+01  1.981561840E+01  3.930632402E+01  3.371747881E-07  0.00000E+00  9.000E+00
#rwgt            1           1   4.1197094555513555E-002          10      114647           0
</event>
<event>
      5   9999  3.79277E-02  3.19442E+01 -1.00000E+00  1.51170E-01
      21    -1     0     0   512   501  0.000000000E+00  0.000000000E+00  3.291502666E+02  3.291502666E+02  0.000000000E+00  0.00000E+00  9.000E+00
      21    -1     0     0   501   502  0.000000000E+00  0.000000000E+00 -3.306881923E+02  3.306881923E+02  0.000000000E+00  0.00000E+00  9.000E+00
      25     1     1     2     0     0  3.383021908E+01  4.387661131E+01 -2.573184353E+02  2.913887745E+02  1.250000000E+02  0.00000E+00  9.000E+00
      25     1     1     2     0     0 -2.240002288E+01 -7.370582282E+01  4.259534600E+01  1.528845082E+02  1.250000000E+02  0.00000E+00  9.000E+00
      21     1     1     2   512   502 -1.143019620E+01  2.982921151E+01  2.131851636E+02  2.155651763E+02  0.000000000E+00  0.00000E+00  9.000E+00
#rwgt            1           1   3.8742792865542060E-002          10      114987           0
</event>
<event>
      5   9999 -3.79277E-02  3.21455E+01 -1.00000E+00  1.50985E-01
      21    -1     0     0   502   501  0.000000000E+00  0.000000000E+00  1.047248943E+02  1.047248943E+02  0.000000000E+00  0.00000E+00  9.000E+00
       2    -1     0     0   501     0  0.000000000E+00  0.000000000E+00 -1.792241671E+03  1.792241671E+03  0.000000000E+00  0.00000E+00  9.000E+00
      25     1     1     2     0     0 -3.673457358E+00 -5.441987663E+01  2.962594066E+01  1.395625796E+02  1.250000000E+02  0.00000E+00  9.000E+00
      25     1     1     2     0     0 -2.605986046E+01  6.663731804E+01 -2.399269842E+02  2.798385360E+02  1.250000000E+02  0.00000E+00  9.000E+00
       2     1     1     2   502     0  2.973331782E+01 -1.221744141E+01 -1.477215733E+03  1.477565449E+03  0.000000000E+00  0.00000E+00  9.000E+00
#rwgt            1           1  -6.7824159164603354E-002          10      115141           0
</event>
<event>
      5   9999  3.79277E-02  1.39853E+01 -1.00000E+00  1.80298E-01
      21    -1     0     0   511   501  0.000000000E+00  0.000000000E+00  6.589494287E+01  6.589494287E+01  0.000000000E+00  0.00000E+00  9.000E+00
      21    -1     0     0   501   502  0.000000000E+00  0.000000000E+00 -7.053055010E+02  7.053055010E+02  0.000000000E+00  0.00000E+00  9.000E+00
      25     1     1     2     0     0  9.351504461E+01  8.540340941E+01 -4.502035108E+02  4.840940064E+02  1.250000000E+02  0.00000E+00  9.000E+00
      25     1     1     2     0     0 -8.365445318E+01 -9.532090353E+01 -2.012000442E+02  2.686830846E+02  1.250000000E+02  0.00000E+00  9.000E+00
      21     1     1     2   511   502 -9.860591439E+00  9.917494125E+00  1.199299689E+01  1.842335278E+01  4.768371582E-07  0.00000E+00  9.000E+00
#rwgt            1           1   4.8652072443568943E-002          10      115242           0
</event>
<event>
      5   9999  3.79277E-02  1.59426E+01 -1.00000E+00  1.74926E-01
      21    -1     0     0   512   501  0.000000000E+00  0.000000000E+00  3.204487939E+01  3.204487939E+01  0.000000000E+00  0.00000E+00  9.000E+00
      21    -1     0     0   501   502  0.000000000E+00  0.000000000E+00 -1.941092188E+03  1.941092188E+03  0.000000000E+00  0.00000E+00  9.000E+00
      25     1     1     2     0     0 -1.610141105E+00  1.857128205E+02 -6.788389406E+02  7.148000780E+02  1.250000000E+02  0.00000E+00  9.000E+00
      25     1     1     2     0     0 -2.330779642E+00 -2.011606618E+02 -1.207995013E+03  1.230994718E+03  1.250000000E+02  0.00000E+00  9.000E+00
      21     1     1     2   512   502  3.940920747E+00  1.544784133E+01 -2.221335475E+01  2.734227107E+01  4.768371582E-07  0.00000E+00  9.000E+00
#rwgt            1           1  0.15000166384729383               10      115402           0
</event>
<event>
      5   9999  3.79277E-02  4.75724E+01 -1.00000E+00  1.40320E-01
      21    -1     0     0   502   501  0.000000000E+00  0.000000000E+00  1.653282924E+03  1.653282924E+03  0.000000000E+00  0.00000E+00  9.000E+00
      -4    -1     0     0     0   502  0.000000000E+00  0.000000000E+00 -2.273399178E+02  2.273399178E+02  0.000000000E+00  0.00000E+00  9.000E+00
      25     1     1     2     0     0  1.704612077E+02  6.454169454E+01  1.525926368E+03  1.541849193E+03  1.250000000E+02  0.00000E+00  9.000E+00
      25     1     1     2     0     0 -1.364575151E+02 -3.127181071E+01  3.916106496E+01  1.917215913E+02  1.250000000E+02  0.00000E+00  9.000E+00
      -4     1     1     2     0   501 -3.400369262E+01 -3.326988383E+01 -1.391444264E+02  1.470520577E+02  5.722045898E-06  0.00000E+00  9.000E+00
#rwgt            1           1   3.8767342713112558E-002          10      115590           0
</event>
<event>
      5   9999  3.79277E-02  7.73706E+01 -1.00000E+00  1.29056E-01
      21    -1     0     0   502   501  0.000000000E+00  0.000000000E+00  5.947067233E+02  5.947067233E+02  0.000000000E+00  0.00000E+00  9.000E+00
       2    -1     0     0   501     0  0.000000000E+00  0.000000000E+00 -2.727539290E+03  2.727539290E+03  0.000000000E+00  0.00000E+00  9.000E+00
      25     1     1     2     0     0  1.138192530E+02  3.577542831E+01  3.977304686E+02  4.336464335E+02  1.250000000E+02  0.00000E+00  9.000E+00
      25     1     1     2     0     0 -1.130973403E+02  4.159179594E+01  1.362259564E+02  2.206884615E+02  1.250000000E+02  0.00000E+00  9.000E+00
       2     1     1     2   502     0 -7.219126647E-01 -7.736722425E+01 -2.666788992E+03  2.667911119E+03  0.000000000E+00  0.00000E+00  9.000E+00
#rwgt            1           1   3.3295953957142140E-002          10      115653           0
</event>
<event>
      5   9999  3.79277E-02  3.41051E+01 -1.00000E+00  1.49269E-01
       2    -1     0     0   502     0  0.000000000E+00  0.000000000E+00  1.463561805E+03  1.463561805E+03  0.000000000E+00  0.00000E+00  9.000E+00
      21    -1     0     0   501   502  0.000000000E+00  0.000000000E+00 -6.864497917E+02  6.864497917E+02  0.000000000E+00  0.00000E+00  9.000E+00
      25     1     1     2     0     0 -7.055059204E+01  1.120302644E+02 -2.997085080E+01  1.845302633E+02  1.250000000E+02  0.00000E+00  9.000E+00
      25     1     1     2     0     0  7.450451927E+01 -7.815510870E+01 -5.672067049E+02  5.907686438E+02  1.250000000E+02  0.00000E+00  9.000E+00
       2     1     1     2   501     0 -3.953927230E+00 -3.387515575E+01  1.374289569E+03  1.374712689E+03  1.525878906E-05  0.00000E+00  9.000E+00
#rwgt            1           1   5.0566612351932980E-002          10      115888           0
</event>
<event>
      5   9999  3.79277E-02  5.76031E+01 -1.00000E+00  1.35656E-01
      21    -1     0     0   511   501  0.000000000E+00  0.000000000E+00  8.418645100E+02  8.418645100E+02  0.000000000E+00  0.00000E+00  9.000E+00
      21    -1     0     0   501   502  0.000000000E+00  0.000000000E+00 -3.736755992E+02  3.736755992E+02  0.000000000E+00  0.00000E+00  9.000E+00
      25     1     1     2     0     0  1.869566676E+02  3.399507200E+01  1.368941970E+02  2.654684193E+02  1.250000000E+02  0.00000E+00  9.000E+00
      25     1     1     2     0     0 -2.316435300E+02  2.353229805E+00 -2.517221991E+02  3.642160460E+02  1.250000000E+02  0.00000E+00  9.000E+00
      21     1     1     2   511   502  4.468686241E+01 -3.634830180E+01  5.830169129E+02  5.858556438E+02  7.629394531E-06  0.00000E+00  9.000E+00
#rwgt            1           1   2.7204305691364904E-002          10      116031           0
</event>
<event>
      5   9999  3.79277E-02  2.30544E+01 -1.00000E+00  1.61432E-01
      21    -1     0     0   502   512  0.000000000E+00  0.000000000E+00  9.768861013E+02  9.768861013E+02  0.000000000E+00  0.00000E+00  9.000E+00
      21    -1     0     0   501   502  0.000000000E+00  0.000000000E+00 -1.876192755E+02  1.876192755E+02  0.000000000E+00  0.00000E+00  9.000E+00
      25     1     1     2     0     0  1.703218938E+02 -1.816365171E+02  1.443974507E+02  3.138104454E+02  1.250000000E+02  0.00000E+00  9.000E+00
      25     1     1     2     0     0 -1.930891806E+02  1.852634606E+02  1.097528386E+02  3.150820006E+02  1.250000000E+02  0.00000E+00  9.000E+00
      21     1     1     2   501   512  2.276728684E+01 -3.626943433E+00  5.351165364E+02  5.356129308E+02  7.629394531E-06  0.00000E+00  9.000E+00
#rwgt            1           1   3.3107114132486425E-002          10      116128           0
</event>
<event>
      5   9999  3.79277E-02  5.11023E+01 -1.00000E+00  1.38537E-01
      21    -1     0     0   502   511  0.000000000E+00  0.000000000E+00  7.914646285E+01  7.914646285E+01  0.000000000E+00  0.00000E+00  9.000E+00
      21    -1     0     0   501   502  0.000000000E+00  0.000000000E+00 -7.531360535E+02  7.531360535E+02  0.000000000E+00  0.00000E+00  9.000E+00
      25     1     1     2     0     0 -7.775170945E+01 -6.604316908E+01 -5.860664562E+01  1.716588693E+02  1.250000000E+02  0.00000E+00  9.000E+00
      25     1     1     2     0     0  8.096757926E+01  1.504214682E+01 -5.786270162E+02  5.976756972E+02  1.250000000E+02  0.00000E+00  9.000E+00
      21     1     1     2   501   511 -3.215869811E+00  5.100102227E+01 -3.675592879E+01  6.294794986E+01  6.743495762E-07  0.00000E+00  9.000E+00
#rwgt            1           1   4.7224845491509786E-002          10      116462           0
</event>
<event>
      5   9999  3.79277E-02  1.36729E+01 -1.00000E+00  1.81259E-01
      21    -1     0     0   512   501  0.000000000E+00  0.000000000E+00  7.550622727E+01  7.550622727E+01  0.000000000E+00  0.00000E+00  9.000E+00
      21    -1     0     0   501   502  0.000000000E+00  0.000000000E+00 -6.356867942E+02  6.356867942E+02  0.000000000E+00  0.00000E+00  9.000E+00
      25     1     1     2     0     0  9.141854390E+01  2.081936758E+01 -8.100088307E+01  1.760026684E+02  1.250000000E+02  0.00000E+00  9.000E+00
      25     1     1     2     0     0 -8.439113459E+01 -9.090581230E+00 -4.930691525E+02  5.157001953E+02  1.250000000E+02  0.00000E+00  9.000E+00
      21     1     1     2   512   502 -7.027409308E+00 -1.172878635E+01  1.388946864E+01  1.949015777E+01  5.840038640E-07  0.00000E+00  9.000E+00
#rwgt            1           1   4.3884361031320006E-002          10      116679           0
</event>
<event>
      5   9999  3.79277E-02  6.50771E+01 -1.00000E+00  1.32845E-01
       2    -1     0     0   502     0  0.000000000E+00  0.000000000E+00  1.185728463E+03  1.185728463E+03  0.000000000E+00  0.00000E+00  9.000E+00
      21    -1     0     0   501   502  0.000000000E+00  0.000000000E+00 -1.850719879E+02  1.850719879E+02  0.000000000E+00  0.00000E+00  9.000E+00
      25     1     1     2     0     0 -2.990135800E+02 -7.734927055E+01  4.380266541E+02  5.503493258E+02  1.250000000E+02  0.00000E+00  9.000E+00
      25     1     1     2     0     0  3.588451317E+02  1.029463201E+02  1.809879804E+02  4.333006143E+02  1.250000000E+02  0.00000E+00  9.000E+00
       2     1     1     2   501     0 -5.983155171E+01 -2.559704955E+01  3.816418406E+02  3.871505108E+02  0.000000000E+00  0.00000E+00  9.000E+00
#rwgt            1           1   1.6558172985915887E-002          10      116888           0
</event>
<event>
      5   9999  3.79277E-02  5.24416E+01 -1.00000E+00  1.37904E-01
      21    -1     0     0   502   501  0.000000000E+00  0.000000000E+00  6.446191692E+01  6.446191692E+01  0.000000000E+00  0.00000E+00  9.000E+00
      21    -1     0     0   501   511  0.000000000E+00  0.000000000E+00 -6.536589179E+02  6.536589179E+02  0.000000000E+00  0.00000E+00  9.000E+00
      25     1     1     2     0     0 -1.008363875E+02  3.595614292E+00 -1.176075235E+02  1.990915244E+02  1.250000000E+02  0.00000E+00  9.000E+00
      25     1     1     2     0     0  9.305277070E+01  4.826508337E+01 -3.320307275E+02  3.699428881E+02  1.250000000E+02  0.00000E+00  9.000E+00
      21     1     1     2   502   511  7.783616826E+00 -5.186069766E+01 -1.395587500E+02  1.490864224E+02  2.697398305E-06  0.00000E+00  9.000E+00
#rwgt            1           1   2.9598550066946012E-002          10      117100           0
</event>
<event>
      5   9999  3.79277E-02  2.98899E+01 -1.00000E+00  1.53151E-01
      21    -1     0     0   512   501  0.000000000E+00  0.000000000E+00  8.771175337E+01  8.771175337E+01  0.000000000E+00  0.00000E+00  9.000E+00
      21    -1     0     0   501   502  0.000000000E+00  0.000000000E+00 -6.196347360E+02  6.196347360E+02  0.000000000E+00  0.00000E+00  9.000E+00
      25     1     1     2     0     0  6.955335904E+01 -8.115533321E+01 -4.826151392E+02  5.098688365E+02  1.250000000E+02  0.00000E+00  9.000E+00
      25     1     1     2     0     0 -4.195251622E+01  9.262702382E+01 -4.481646256E+01  1.672521883E+02  1.250000000E+02  0.00000E+00  9.000E+00
      21     1     1     2   512   502 -2.760084282E+01 -1.147169062E+01 -4.491380920E+00  3.022546464E+01  6.474721725E-07  0.00000E+00  9.000E+00
#rwgt            1           1   3.8713311925361246E-002          10      117222           0
</event>
<event>
      5   9999  3.79277E-02  6.84709E+01 -1.00000E+00  1.31708E-01
      21    -1     0     0   502   511  0.000000000E+00  0.000000000E+00  8.794316071E+02  8.794316071E+02  0.000000000E+00  0.00000E+00  9.000E+00
      21    -1     0     0   501   502  0.000000000E+00  0.000000000E+00 -6.571639770E+01  6.571639770E+01  0.000000000E+00  0.00000E+00  9.000E+00
      25     1     1     2     0     0  1.083588409E+02 -4.978632130E+01  1.012204734E+02  2.002271221E+02  1.250000000E+02  0.00000E+00  9.000E+00
      25     1     1     2     0     0 -7.986704692E+01 -1.247512660E+01  4.959921245E+02  5.178489756E+02  1.250000000E+02  0.00000E+00  9.000E+00
      21     1     1     2   501   511 -2.849179395E+01  6.226144790E+01  2.165026115E+02  2.270719071E+02  0.000000000E+00  0.00000E+00  9.000E+00
#rwgt            1           1   4.9391559383409431E-002          10      117334           0
</event>
<event>
      5   9999  3.79277E-02  1.02224E+02 -1.00000E+00  1.23400E-01
      21    -1     0     0   502   501  0.000000000E+00  0.000000000E+00  2.063793283E+02  2.063793283E+02  0.000000000E+00  0.00000E+00  9.000E+00
      21    -1     0     0   512   502  0.000000000E+00  0.000000000E+00 -1.174405224E+03  1.174405224E+03  0.000000000E+00  0.00000E+00  9.000E+00
      25     1     1     2     0     0  1.683113779E+02  1.938175522E+00  5.767486140E+01  2.174485367E+02  1.250000000E+02  0.00000E+00  9.000E+00
      25     1     1     2     0     0 -1.650734187E+02 -1.041104053E+02 -1.379306863E+02  2.696999894E+02  1.250000000E+02  0.00000E+00  9.000E+00
      21     1     1     2   512   501 -3.237959183E+00  1.021722298E+02 -8.877700712E+02  8.936360267E+02  1.525878906E-05  0.00000E+00  9.000E+00
#rwgt            1           1   3.5304795146870467E-002          10      117567           0
</event>
<event>
      5   9999  3.79277E-02  2.40602E+01 -1.00000E+00  1.60007E-01
      21    -1     0     0   511   501  0.000000000E+00  0.000000000E+00  6.108260730E+01  6.108260730E+01  0.000000000E+00  0.00000E+00  9.000E+00
      21    -1     0     0   501   502  0.000000000E+00  0.000000000E+00 -1.383425409E+03  1.383425409E+03  0.000000000E+00  0.00000E+00  9.000E+00
      25     1     1     2     0     0 -1.623623774E+02  1.599076599E+02 -7.580080043E+02  8.013321009E+02  1.250000000E+02  0.00000E+00  9.000E+00
      25     1     1     2     0     0  1.619618690E+02 -1.839645506E+02 -5.504877392E+02  6.154155944E+02  1.250000000E+02  0.00000E+00  9.000E+00
      21     1     1     2   511   502  4.005084197E-01  2.405689067E+01 -1.384705806E+01  2.776032083E+01  6.529361695E-07  0.00000E+00  9.000E+00
#rwgt            1           1   3.7008637151815869E-002          10      117645           0
</event>
<event>
      5   9999  3.79277E-02  5.12185E+01 -1.00000E+00  1.38481E-01
      21    -1     0     0   502   501  0.000000000E+00  0.000000000E+00  1.088836536E+02  1.088836536E+02  0.000000000E+00  0.00000E+00  9.000E+00
      21    -1     0     0   501   512  0.000000000E+00  0.000000000E+00 -8.806312255E+02  8.806312255E+02  0.000000000E+00  0.00000E+00  9.000E+00
      25     1     1     2     0     0 -2.019703323E+02 -1.368393314E+02 -2.239647867E+02  3.539805693E+02  1.250000000E+02  0.00000E+00  9.000E+00
      25     1     1     2     0     0  1.585388576E+02  1.639879245E+02 -3.829554385E+02  4.629324753E+02  1.250000000E+02  0.00000E+00  9.000E+00
      21     1     1     2   502   512  4.343147471E+01 -2.714859306E+01 -1.648273467E+02  1.726018346E+02  1.907348633E-06  0.00000E+00  9.000E+00
#rwgt            1           1   4.3813747614359445E-002          10      117856           0
</event>
<event>
      5   9999 -3.79277E-02  5.45820E+01 -1.00000E+00  1.36937E-01
      21    -1     0     0   502   501  0.000000000E+00  0.000000000E+00  4.004774827E+02  4.004774827E+02  0.000000000E+00  0.00000E+00  9.000E+00
      21    -1     0     0   501   511  0.000000000E+00  0.000000000E+00 -1.864615656E+02  1.864615656E+02  0.000000000E+00  0.00000E+00  9.000E+00
      25     1     1     2     0     0 -6.317020724E+01 -8.709934550E+01  3.314373279E+01  1.682268650E+02  1.250000000E+02  0.00000E+00  9.000E+00
      25     1     1     2     0     0  1.176448884E+02  9.052107188E+01  2.588582510E+02  3.235227633E+02  1.250000000E+02  0.00000E+00  9.000E+00
      21     1     1     2   502   511 -5.447468119E+01 -3.421726375E+00 -7.798606674E+01  9.518942014E+01  0.000000000E+00  0.00000E+00  9.000E+00
#rwgt            1           1 -0.23505096449738791               10      117970           0
</event>
<event>
      5   9999  3.79277E-02  3.64930E+01 -1.00000E+00  1.47356E-01
      21    -1     0     0   502   512  0.000000000E+00  0.000000000E+00  3.582354666E+02  3.582354666E+02  0.000000000E+00  0.00000E+00  9.000E+00
      21    -1     0     0   501   502  0.000000000E+00  0.000000000E+00 -5.125878915E+02  5.125878915E+02  0.000000000E+00  0.00000E+00  9.000E+00
      25     1     1     2     0     0 -9.480995106E+01 -1.432908103E+02 -3.178672611E+02  3.823424889E+02  1.250000000E+02  0.00000E+00  9.000E+00
      25     1     1     2     0     0  1.293362601E+02  1.551091844E+02 -7.353809664E+01  2.486354338E+02  1.250000000E+02  0.00000E+00  9.000E+00
      21     1     1     2   501   512 -3.452630907E+01 -1.181837407E+01  2.370529328E+02  2.398454355E+02  3.814697266E-06  0.00000E+00  9.000E+00
#rwgt            1           1   3.9460012218755655E-002          10      118068           0
</event>
<event>
      5   9999  3.79277E-02  1.60115E+01 -1.00000E+00  1.74755E-01
      21    -1     0     0   511   501  0.000000000E+00  0.000000000E+00  4.442080767E+01  4.442080767E+01  0.000000000E+00  0.00000E+00  9.000E+00
      21    -1     0     0   501   502  0.000000000E+00  0.000000000E+00 -1.236743025E+03  1.236743025E+03  0.000000000E+00  0.00000E+00  9.000E+00
      25     1     1     2     0     0  1.717543078E+02  8.006510587E+01 -6.360352478E+02  6.753338433E+02  1.250000000E+02  0.00000E+00  9.000E+00
      25     1     1     2     0     0 -1.562645821E+02 -8.411913929E+01 -5.438040184E+02  5.855275055E+02  1.250000000E+02  0.00000E+00  9.000E+00
      21     1     1     2   511   502 -1.548972576E+01  4.054033426E+00 -1.248295150E+01  2.030248431E+01  1.685873940E-07  0.00000E+00  9.000E+00
#rwgt            1           1   3.9601541764594517E-002          10      118310           0
</event>
<event>
      5   9999  3.79277E-02  4.78275E+01 -1.00000E+00  1.40185E-01
      21    -1     0     0   502   501  0.000000000E+00  0.000000000E+00  4.846024273E+02  4.846024273E+02  0.000000000E+00  0.00000E+00  9.000E+00
      21    -1     0     0   501   512  0.000000000E+00  0.000000000E+00 -8.023379919E+01  8.023379919E+01  0.000000000E+00  0.00000E+00  9.000E+00
      25     1     1     2     0     0  7.358378271E+01 -6.296855848E+01  1.801090621E+02  2.396745433E+02  1.250000000E+02  0.00000E+00  9.000E+00
      25     1     1     2     0     0 -1.213703276E+02  6.494653982E+01  1.931549964E+02  2.681094219E+02  1.250000000E+02  0.00000E+00  9.000E+00
      21     1     1     2   502   512  4.778654485E+01 -1.977981341E+00  3.110456957E+01  5.705226137E+01  0.000000000E+00  0.00000E+00  9.000E+00
#rwgt            1           1   3.9859415385270831E-002          10      118480           0
</event>
<event>
      5   9999  3.79277E-02  1.37723E+02 -1.00000E+00  1.17883E-01
      21    -1     0     0   502   501  0.000000000E+00  0.000000000E+00  7.508995109E+02  7.508995109E+02  0.000000000E+00  0.00000E+00  9.000E+00
      21    -1     0     0   501   511  0.000000000E+00  0.000000000E+00 -1.684333809E+02  1.684333809E+02  0.000000000E+00  0.00000E+00  9.000E+00
      25     1     1     2     0     0  2.664803290E+02  1.382627369E+01  4.633547654E+02  5.491134402E+02  1.250000000E+02  0.00000E+00  9.000E+00
      25     1     1     2     0     0 -1.477449205E+02  5.595635048E+01  1.159884378E+02  2.324607330E+02  1.250000000E+02  0.00000E+00  9.000E+00
      21     1     1     2   502   511 -1.187354085E+02 -6.978262417E+01  3.122926773E+00  1.377587185E+02  3.706047906E-06  0.00000E+00  9.000E+00
#rwgt            1           1   1.4713204144398254E-002          10      118538           0
</event>
<event>
      5   9999  3.79277E-02  2.93013E+01 -1.00000E+00  1.53754E-01
      21    -1     0     0   502   512  0.000000000E+00  0.000000000E+00  1.061476516E+03  1.061476516E+03  0.000000000E+00  0.00000E+00  9.000E+00
      21    -1     0     0   501   502  0.000000000E+00  0.000000000E+00 -8.574638968E+01  8.574638968E+01  0.000000000E+00  0.00000E+00  9.000E+00
      25     1     1     2     0     0  2.177114031E+02 -9.863457651E+01  5.161862937E+02  5.824090697E+02  1.250000000E+02  0.00000E+00  9.000E+00
      25     1     1     2     0     0 -2.027767216E+02  1.238441324E+02  2.999619636E+02  4.025642154E+02  1.250000000E+02  0.00000E+00  9.000E+00
      21     1     1     2   501   512 -1.493468144E+01 -2.520955589E+01  1.595818691E+02  1.622496206E+02  2.697398305E-06  0.00000E+00  9.000E+00
#rwgt            1           1   4.0670135998638737E-002          10      118650           0
</event>
<event>
      5   9999  3.79277E-02  4.03514E+01 -1.00000E+00  1.44605E-01
       2    -1     0     0   502     0  0.000000000E+00  0.000000000E+00  1.856397377E+03  1.856397377E+03  0.000000000E+00  0.00000E+00  9.000E+00
      21    -1     0     0   501   502  0.000000000E+00  0.000000000E+00 -1.644934484E+03  1.644934484E+03  0.000000000E+00  0.00000E+00  9.000E+00
      25     1     1     2     0     0  3.571036622E+02 -3.661349078E+01 -1.048902081E+03  1.115654135E+03  1.250000000E+02  0.00000E+00  9.000E+00
      25     1     1     2     0     0 -3.209261265E+02  5.448576067E+01 -5.083803926E+02  6.164721408E+02  1.250000000E+02  0.00000E+00  9.000E+00
       2     1     1     2   501     0 -3.617753565E+01 -1.787226988E+01  1.768745366E+03  1.769205585E+03  2.157918644E-05  0.00000E+00  9.000E+00
#rwgt            1           1   2.3760641865365074E-002          10      118803           0
</event>
<event>
      5   9999  3.79277E-02  1.48762E+02 -1.00000E+00  1.16536E-01
      21    -1     0     0   502   501  0.000000000E+00  0.000000000E+00  3.818359675E+02  3.818359675E+02  0.000000000E+00  0.00000E+00  9.000E+00
      21    -1     0     0   501   511  0.000000000E+00  0.000000000E+00 -3.137398133E+03  3.137398133E+03  0.000000000E+00  0.00000E+00  9.000E+00
      25     1     1     2     0     0  1.481487953E+02  7.079885736E+01  3.042670181E+02  3.676465178E+02  1.250000000E+02  0.00000E+00  9.000E+00
      25     1     1     2     0     0 -1.532898471E+02  7.787465758E+01 -2.131768720E+02  3.010508567E+02  1.250000000E+02  0.00000E+00  9.000E+00
      21     1     1     2   502   511  5.141051854E+00 -1.486735149E+02 -2.846652312E+03  2.850536726E+03  3.051757812E-05  0.00000E+00  9.000E+00
#rwgt            1           1   4.3896599227671092E-002          10      118980           0
</event>
<event>
      5   9999  3.79277E-02  6.33267E+01 -1.00000E+00  1.33463E-01
      21    -1     0     0   502   512  0.000000000E+00  0.000000000E+00  6.450716246E+01  6.450716246E+01  0.000000000E+00  0.00000E+00  9.000E+00
      21    -1     0     0   501   502  0.000000000E+00  0.000000000E+00 -8.681876555E+02  8.681876555E+02  0.000000000E+00  0.00000E+00  9.000E+00
      25     1     1     2     0     0 -1.004146527E+02  3.318941723E+01 -1.525027753E+02  2.237559751E+02  1.250000000E+02  0.00000E+00  9.000E+00
      25     1     1     2     0     0  1.144358110E+02 -9.494435070E+01 -5.889346272E+02  6.201443216E+02  1.250000000E+02  0.00000E+00  9.000E+00
      21     1     1     2   501   512 -1.402115829E+01  6.175493347E+01 -6.224309058E+01  8.879452129E+01  9.536743164E-07  0.00000E+00  9.000E+00
#rwgt            1           1   4.1773725171750924E-002          10      119056           0
</event>
<event>
      5   9999  3.79277E-02  1.79931E+01 -1.00000E+00  1.70250E-01
      21    -1     0     0   502   511  0.000000000E+00  0.000000000E+00  1.953478275E+02  1.953478275E+02  0.000000000E+00  0.00000E+00  9.000E+00
      21    -1     0     0   501   502  0.000000000E+00  0.000000000E+00 -2.542772240E+02  2.542772240E+02  0.000000000E+00  0.00000E+00  9.000E+00
      25     1     1     2     0     0 -1.199847177E+02 -1.354592500E+02 -4.724458629E+01  2.249501986E+02  1.250000000E+02  0.00000E+00  9.000E+00
      25     1     1     2     0     0  1.115930519E+02  1.195429112E+02 -1.498806083E+01  2.063811009E+02  1.250000000E+02  0.00000E+00  9.000E+00
      21     1     1     2   501   511  8.391665810E+00  1.591633885E+01  3.303250560E+00  1.829375198E+01  2.528810911E-07  0.00000E+00  9.000E+00
#rwgt            1           1   3.3147624461630519E-002          10      119160           0
</event>
<event>
      5   9999  3.79277E-02  7.56033E+01 -1.00000E+00  1.29549E-01
      21    -1     0     0   502   501  0.000000000E+00  0.000000000E+00  1.238126265E+02  1.238126265E+02  0.000000000E+00  0.00000E+00  9.000E+00
      21    -1     0     0   501   512  0.000000000E+00  0.000000000E+00 -4.321788195E+02  4.321788195E+02  0.000000000E+00  0.00000E+00  9.000E+00
      25     1     1     2     0     0 -1.372337077E+02  8.060728708E+01 -9.053358859E+01  2.217024040E+02  1.250000000E+02  0.00000E+00  9.000E+00
      25     1     1     2     0     0  1.012351593E+02 -1.412452381E+01 -8.760214779E+01  1.837040989E+02  1.250000000E+02  0.00000E+00  9.000E+00
      21     1     1     2   502   512  3.599854842E+01 -6.648276327E+01 -1.302304566E+02  1.505849432E+02  1.907348633E-06  0.00000E+00  9.000E+00
#rwgt            1           1   3.6872137852274230E-002          10      119430           0
</event>
<event>
      5   9999  3.79277E-02  2.76964E+01 -1.00000E+00  1.55490E-01
      21    -1     0     0   511   501  0.000000000E+00  0.000000000E+00  1.441775579E+02  1.441775579E+02  0.000000000E+00  0.00000E+00  9.000E+00
      21    -1     0     0   501   502  0.000000000E+00  0.000000000E+00 -3.672772146E+02  3.672772146E+02  0.000000000E+00  0.00000E+00  9.000E+00
      25     1     1     2     0     0  1.922625664E+01 -1.823557385E+02 -8.787299976E+01  2.386837414E+02  1.250000000E+02  0.00000E+00  9.000E+00
      25     1     1     2     0     0  4.067305582E+00  1.673723435E+02 -1.233813142E+02  2.426478787E+02  1.250000000E+02  0.00000E+00  9.000E+00
      21     1     1     2   511   502 -2.329356223E+01  1.498339502E+01 -1.184534271E+01  3.012315242E+01  2.384185791E-07  0.00000E+00  9.000E+00
#rwgt            1           1   3.2999168664933166E-002          10      119651           0
</event>
<event>
      5   9999  3.79277E-02  2.04869E+01 -1.00000E+00  1.65512E-01
      21    -1     0     0   512   501  0.000000000E+00  0.000000000E+00  4.946832602E+02  4.946832602E+02  0.000000000E+00  0.00000E+00  9.000E+00
      21    -1     0     0   501   502  0.000000000E+00  0.000000000E+00 -7.461697559E+01  7.461697559E+01  0.000000000E+00  0.00000E+00  9.000E+00
      25     1     1     2     0     0 -4.027091750E+01  2.619135490E+01  1.540929611E+01  1.347968111E+02  1.250000000E+02  0.00000E+00  9.000E+00
      25     1     1     2     0     0  3.410057912E+01 -4.572693148E+01  3.614813565E+02  3.867138126E+02  1.250000000E+02  0.00000E+00  9.000E+00
      21     1     1     2   512   502  6.170338378E+00  1.953557658E+01  4.317563204E+01  4.778961216E+01  9.536743164E-07  0.00000E+00  9.000E+00
#rwgt            1           1   5.5278649735598047E-002          10      119832           0
</event>
<event>
      5   9999  3.79277E-02  1.95036E+02 -1.00000E+00  1.12047E-01
      21    -1     0     0   502   501  0.000000000E+00  0.000000000E+00  1.032728869E+03  1.032728869E+03  0.000000000E+00  0.00000E+00  9.000E+00
      21    -1     0     0   511   502  0.000000000E+00  0.000000000E+00 -9.174313392E+01  9.174313392E+01  0.000000000E+00  0.00000E+00  9.000E+00
      25     1     1     2     0     0 -3.896514300E+01 -4.740082943E+01  1.821735013E+02  2.292974173E+02  1.250000000E+02  0.00000E+00  9.000E+00
      25     1     1     2     0     0  2.221298449E+02  1.144049497E+02  4.667876519E+02  5.440090739E+02  1.250000000E+02  0.00000E+00  9.000E+00
      21     1     1     2   511   501 -1.831647019E+02 -6.700412032E+01  2.920245817E+02  3.511655115E+02  0.000000000E+00  0.00000E+00  9.000E+00
#rwgt            1           1   5.8786515401554780E-002          10      119918           0
</event>
<event>
      5   9999  3.79277E-02  8.91216E+01 -1.00000E+00  1.26120E-01
      21    -1     0     0   502   512  0.000000000E+00  0.000000000E+00  4.339769242E+02  4.339769242E+02  0.000000000E+00  0.00000E+00  9.000E+00
      21    -1     0     0   501   502  0.000000000E+00  0.000000000E+00 -3.229697355E+02  3.229697355E+02  0.000000000E+00  0.00000E+00  9.000E+00
      25     1     1     2     0     0 -1.257426797E+02  1.450065376E+02 -2.320003210E+02  3.260172793E+02  1.250000000E+02  0.00000E+00  9.000E+00
      25     1     1     2     0     0  8.081518264E+01 -6.803786329E+01  1.680246421E+02  2.345581483E+02  1.250000000E+02  0.00000E+00  9.000E+00
      21     1     1     2   501   512  4.492749707E+01 -7.696867433E+01  1.749828677E+02  1.963712321E+02  3.303624740E-06  0.00000E+00  9.000E+00
#rwgt            1           1   3.9329330186009939E-002          10      120009           0
</event>
<event>
      5   9999  3.79277E-02  9.38130E+01 -1.00000E+00  1.25088E-01
      21    -1     0     0   511   501  0.000000000E+00  0.000000000E+00  1.114293238E+02  1.114293238E+02  0.000000000E+00  0.00000E+00  9.000E+00
      21    -1     0     0   501   502  0.000000000E+00  0.000000000E+00 -1.072662930E+03  1.072662930E+03  0.000000000E+00  0.00000E+00  9.000E+00
      25     1     1     2     0     0  1.322246719E+02 -1.452063195E+02 -6.630944246E+02  7.027712679E+02  1.250000000E+02  0.00000E+00  9.000E+00
      25     1     1     2     0     0 -2.233961067E+02  1.231010325E+02 -2.249190194E+02  3.623165053E+02  1.250000000E+02  0.00000E+00  9.000E+00
      21     1     1     2   511   502  9.117143482E+01  2.210528705E+01 -7.322016188E+01  1.190044804E+02  0.000000000E+00  0.00000E+00  9.000E+00
#rwgt            1           1   8.1900207961522462E-002          10      120151           0
</event>
<event>
      5   9999  3.79277E-02  2.34323E+01 -1.00000E+00  1.60887E-01
      21    -1     0     0   512   501  0.000000000E+00  0.000000000E+00  8.547513138E+02  8.547513138E+02  0.000000000E+00  0.00000E+00  9.000E+00
      21    -1     0     0   501   502  0.000000000E+00  0.000000000E+00 -1.314497148E+02  1.314497148E+02  0.000000000E+00  0.00000E+00  9.000E+00
      25     1     1     2     0     0  7.466115728E+01 -6.229905514E+01  1.511965625E+02  2.189540161E+02  1.250000000E+02  0.00000E+00  9.000E+00
      25     1     1     2     0     0 -9.674339609E+01  5.446036461E+01 -2.555741444E+01  1.691253897E+02  1.250000000E+02  0.00000E+00  9.000E+00
      21     1     1     2   512   502  2.208223882E+01  7.838690526E+00  5.976624510E+02  5.981216228E+02  0.000000000E+00  0.00000E+00  9.000E+00
#rwgt            1           1   4.5808861861283440E-002          10      120232           0
</event>
<event>
      5   9999  3.79277E-02  1.80583E+01 -1.00000E+00  1.70114E-01
      21    -1     0     0   502   511  0.000000000E+00  0.000000000E+00  6.770276435E+02  6.770276435E+02  0.000000000E+00  0.00000E+00  9.000E+00
      21    -1     0     0   501   502  0.000000000E+00  0.000000000E+00 -2.239977575E+02  2.239977575E+02  0.000000000E+00  0.00000E+00  9.000E+00
      25     1     1     2     0     0  9.716137248E+01 -4.841167567E+01 -1.244303325E+02  2.071036704E+02  1.250000000E+02  0.00000E+00  9.000E+00
      25     1     1     2     0     0 -9.881646389E+01  3.042936939E+01  5.520888621E+01  1.713582831E+02  1.250000000E+02  0.00000E+00  9.000E+00
      21     1     1     2   501   511  1.655091418E+00  1.798230627E+01  5.222513323E+02  5.225634476E+02  7.629394531E-06  0.00000E+00  9.000E+00
#rwgt            1           1   3.6171094272032869E-002          10      120430           0
</event>
<event>
      5   9999  3.79277E-02  5.50165E+01 -1.00000E+00  1.36747E-01
      21    -1     0     0   502   501  0.000000000E+00  0.000000000E+00  9.120182788E+02  9.120182788E+02  0.000000000E+00  0.00000E+00  9.000E+00
      21    -1     0     0   501   512  0.000000000E+00  0.000000000E+00 -5.987877459E+01  5.987877459E+01  0.000000000E+00  0.00000E+00  9.000E+00
      25     1     1     2     0     0  1.229352174E+02  9.178095523E+01  2.548308330E+02  3.226461915E+02  1.250000000E+02  0.00000E+00  9.000E+00
      25     1     1     2     0     0 -7.986031338E+01 -1.260062281E+02  5.119539211E+02  5.477016126E+02  1.250000000E+02  0.00000E+00  9.000E+00
      21     1     1     2   502   512 -4.307490405E+01  3.422527283E+01  8.535475010E+01  1.015492493E+02  1.348699152E-06  0.00000E+00  9.000E+00
#rwgt            1           1  0.12039731645391667               10      120699           0
</event>
<event>
      5   9999  3.79277E-02  2.82258E+01 -1.00000E+00  1.54902E-01
      21    -1     0     0   502   501  0.000000000E+00  0.000000000E+00  1.094116900E+02  1.094116900E+02  0.000000000E+00  0.00000E+00  9.000E+00
      21    -1     0     0   511   502  0.000000000E+00  0.000000000E+00 -5.865585367E+02  5.865585367E+02  0.000000000E+00  0.00000E+00  9.000E+00
      25     1     1     2     0     0 -1.523088546E+02 -1.282280690E+02 -2.129069219E+02  3.171668051E+02  1.250000000E+02  0.00000E+00  9.000E+00
      25     1     1     2     0     0  1.710859734E+02  1.071540835E+02 -2.070821227E+02  3.150562068E+02  1.250000000E+02  0.00000E+00  9.000E+00
      21     1     1     2   511   501 -1.877711878E+01  2.107398544E+01 -5.715780218E+01  6.374721486E+01  9.536743164E-07  0.00000E+00  9.000E+00
#rwgt            1           1   2.7474137533757853E-002          10      120918           0
</event>
<event>
      5   9999  3.79277E-02  4.47481E+01 -1.00000E+00  1.41882E-01
      21    -1     0     0   502   512  0.000000000E+00  0.000000000E+00  2.760830226E+02  2.760830226E+02  0.000000000E+00  0.00000E+00  9.000E+00
      21    -1     0     0   501   502  0.000000000E+00  0.000000000E+00 -6.340998252E+02  6.340998252E+02  0.000000000E+00  0.00000E+00  9.000E+00
      25     1     1     2     0     0 -1.075655298E+01 -1.251756441E+02 -3.250829005E+02  3.702546927E+02  1.250000000E+02  0.00000E+00  9.000E+00
      25     1     1     2     0     0  5.508241899E+01  1.190432994E+02 -2.553229623E+02  3.130817706E+02  1.250000000E+02  0.00000E+00  9.000E+00
      21     1     1     2   501   512 -4.432586601E+01  6.132344693E+00  2.223890601E+02  2.268463844E+02  6.031565972E-06  0.00000E+00  9.000E+00
#rwgt            1           1   3.5527115521862690E-002          10      121049           0
</event>
<event>
      5   9999  3.79277E-02  3.59397E+01 -1.00000E+00  1.47783E-01
      21    -1     0     0   502   511  0.000000000E+00  0.000000000E+00  1.502725548E+03  1.502725548E+03  0.000000000E+00  0.00000E+00  9.000E+00
      21    -1     0     0   501   502  0.000000000E+00  0.000000000E+00 -4.089536370E+02  4.089536370E+02  0.000000000E+00  0.00000E+00  9.000E+00
      25     1     1     2     0     0  4.085650624E+01  1.002516088E+02 -2.778481934E+02  3.233330446E+02  1.250000000E+02  0.00000E+00  9.000E+00
      25     1     1     2     0     0 -7.610573266E+01 -9.324049513E+01 -3.851937782E+01  1.777487410E+02  1.250000000E+02  0.00000E+00  9.000E+00
      21     1     1     2   501   511  3.524922643E+01 -7.011113678E+00  1.410139482E+03  1.410597399E+03  1.525878906E-05  0.00000E+00  9.000E+00
#rwgt            1           1   4.0946559534729220E-002          10      121204           0
</event>
<event>
      5   9999  3.79277E-02  7.87028E+01 -1.00000E+00  1.28694E-01
      21    -1     0     0   502   501  0.000000000E+00  0.000000000E+00  1.668813543E+03  1.668813543E+03  0.000000000E+00  0.00000E+00  9.000E+00
      21    -1     0     0   512   502  0.000000000E+00  0.000000000E+00 -1.799935040E+02  1.799935040E+02  0.000000000E+00  0.00000E+00  9.000E+00
      25     1     1     2     0     0  5.346574772E+01  3.782332726E+02  9.801061145E+02  1.059316756E+03  1.250000000E+02  0.00000E+00  9.000E+00
      25     1     1     2     0     0  2.460327144E+01 -3.682657379E+02  5.694918931E+02  6.900514408E+02  1.250000000E+02  0.00000E+00  9.000E+00
      21     1     1     2   512   501 -7.806901916E+01 -9.967534710E+00 -6.077796830E+01  9.943885021E+01  4.370284743E-06  0.00000E+00  9.000E+00
#rwgt            1           1   2.0290659428111445E-002          10      121410           0
</event>
<event>
      5   9999  3.79277E-02  4.50665E+01 -1.00000E+00  1.41699E-01
      21    -1     0     0   502   511  0.000000000E+00  0.000000000E+00  2.026375243E+02  2.026375243E+02  0.000000000E+00  0.00000E+00  9.000E+00
      21    -1     0     0   501   502  0.000000000E+00  0.000000000E+00 -7.835628968E+02  7.835628968E+02  0.000000000E+00  0.00000E+00  9.000E+00
      25     1     1     2     0     0  1.222173057E+02  8.743247783E+01 -4.886113342E+02  5.262580582E+02  1.250000000E+02  0.00000E+00  9.000E+00
      25     1     1     2     0     0 -1.262931841E+02 -1.323143275E+02 -2.274350994E+02  3.175039749E+02  1.250000000E+02  0.00000E+00  9.000E+00
      21     1     1     2   501   511  4.075878431E+00  4.488184962E+01  1.351210611E+02  1.424383880E+02  3.303624740E-06  0.00000E+00  9.000E+00
#rwgt            1           1   2.6495354633835549E-002          10      121647           0
</event>
<event>
      5   9999  3.79277E-02  6.32868E+01 -1.00000E+00  1.33477E-01
      21    -1     0     0   502   501  0.000000000E+00  0.000000000E+00  4.748609767E+02  4.748609767E+02  0.000000000E+00  0.00000E+00  9.000E+00
      21    -1     0     0   512   502  0.000000000E+00  0.000000000E+00 -1.250989600E+02  1.250989600E+02  0.000000000E+00  0.00000E+00  9.000E+00
      25     1     1     2     0     0  4.374899689E+01 -9.416035731E+01  9.326751988E+00  1.627640498E+02  1.250000000E+02  0.00000E+00  9.000E+00
      25     1     1     2     0     0  1.854917307E+01  1.053030448E+02  3.355754617E+02  3.737227496E+02  1.250000000E+02  0.00000E+00  9.000E+00
      21     1     1     2   512   501 -6.229816996E+01 -1.114268744E+01  4.859802951E+00  6.347313722E+01  1.361806352E-06  0.00000E+00  9.000E+00
#rwgt            1           1   4.3788211880252503E-002          10      121924           0
</event>
<event>
      5   9999  3.79277E-02  4.70450E+01 -1.00000E+00  1.40602E-01
      21    -1     0     0   502   511  0.000000000E+00  0.000000000E+00  1.638503204E+02  1.638503204E+02  0.000000000E+00  0.00000E+00  9.000E+00
      21    -1     0     0   501   502  0.000000000E+00  0.000000000E+00 -4.102725461E+02  4.102725461E+02  0.000000000E+00  0.00000E+00  9.000E+00
      25     1     1     2     0     0 -1.325330594E+01 -8.000004166E+01  5.604537450E+01  1.591908942E+02  1.250000000E+02  0.00000E+00  9.000E+00
      25     1     1     2     0     0  4.167870339E+01  1.174864680E+02 -3.193934831E+02  3.649347634E+02  1.250000000E+02  0.00000E+00  9.000E+00
      21     1     1     2   501   511 -2.842539745E+01 -3.748642638E+01  1.692588288E+01  4.999720886E+01  6.743495762E-07  0.00000E+00  9.000E+00
#rwgt            1           1   2.7211188471041665E-002          10      122068           0
</event>
<event>
      5   9999  3.79277E-02  4.87054E+01 -1.00000E+00  1.39729E-01
      21    -1     0     0   502   512  0.000000000E+00  0.000000000E+00  4.951942710E+02  4.951942710E+02  0.000000000E+00  0.00000E+00  9.000E+00
      21    -1     0     0   501   502  0.000000000E+00  0.000000000E+00 -2.869091641E+02  2.869091641E+02  0.000000000E+00  0.00000E+00  9.000E+00
      25     1     1     2     0     0  3.164376217E+02 -1.266041923E+02  3.201913660E+01  3.644332793E+02  1.250000000E+02  0.00000E+00  9.000E+00
      25     1     1     2     0     0 -2.731627361E+02  1.042546741E+02  1.122064855E+02  3.371975873E+02  1.250000000E+02  0.00000E+00  9.000E+00
      21     1     1     2   501   512 -4.327488562E+01  2.234951825E+01  6.405948481E+01  8.047256853E+01  9.536743164E-07  0.00000E+00  9.000E+00
#rwgt            1           1   5.1903588210799330E-002          10      122192           0
</event>
<event>
      5   9999  3.79277E-02  2.58034E+01 -1.00000E+00  1.57729E-01
      21    -1     0     0   511   501  0.000000000E+00  0.000000000E+00  3.950656630E+02  3.950656630E+02  0.000000000E+00  0.00000E+00  9.000E+00
      21    -1     0     0   501   502  0.000000000E+00  0.000000000E+00 -1.518926978E+02  1.518926978E+02  0.000000000E+00  0.00000E+00  9.000E+00
      25     1     1     2     0     0 -1.055930040E+01  1.676437092E+02  1.622141352E+02  2.648666414E+02  1.250000000E+02  0.00000E+00  9.000E+00
      25     1     1     2     0     0 -1.423990238E+01 -1.605153578E+02  7.333105110E+00  2.040753031E+02  1.250000000E+02  0.00000E+00  9.000E+00
      21     1     1     2   511   502  2.479920278E+01 -7.128351439E+00  7.362572491E+01  7.801641636E+01  9.536743164E-07  0.00000E+00  9.000E+00
#rwgt            1           1   4.1854545334104730E-002          10      122353           0
</event>
<event>
      5   9999 -3.79277E-02  4.34246E+01 -1.00000E+00  1.42662E-01
       3    -1     0     0   502     0  0.000000000E+00  0.000000000E+00  2.709264523E+02  2.709264523E+02  0.000000000E+00  0.00000E+00  9.000E+00
      21    -1     0     0   501   502  0.000000000E+00  0.000000000E+00 -6.182253921E+02  6.182253921E+02  0.000000000E+00  0.00000E+00  9.000E+00
      25     1     1     2     0     0 -1.625026256E+02 -1.558160836E+01 -9.208449817E+01  2.252874711E+02  1.250000000E+02  0.00000E+00  9.000E+00
      25     1     1     2     0     0  1.793041623E+02  5.562414307E+01 -4.290325686E+02  4.847040053E+02  1.250000000E+02  0.00000E+00  9.000E+00
       3     1     1     2   501     0 -1.680153666E+01 -4.004253471E+01  1.738181269E+02  1.791603680E+02  2.697398305E-06  0.00000E+00  9.000E+00
#rwgt            1           1  -2.9504328984124469E-002          10      122765           0
</event>
<event>
      5   9999 -3.79277E-02  3.77778E+01 -1.00000E+00  1.46397E-01
      21    -1     0     0   511   501  0.000000000E+00  0.000000000E+00  1.744517137E+02  1.744517137E+02  0.000000000E+00  0.00000E+00  9.000E+00
      21    -1     0     0   501   502  0.000000000E+00  0.000000000E+00 -5.119333717E+02  5.119333717E+02  0.000000000E+00  0.00000E+00  9.000E+00
      25     1     1     2     0     0 -1.138865744E+02  1.938451035E+02 -9.134273647E+01  2.729735729E+02  1.250000000E+02  0.00000E+00  9.000E+00
      25     1     1     2     0     0  1.362301078E+02 -2.243070643E+02 -2.356531669E+02  3.742054468E+02  1.250000000E+02  0.00000E+00  9.000E+00
      21     1     1     2   511   502 -2.234353340E+01  3.046196079E+01 -1.048575466E+01  3.920606574E+01  6.848052319E-07  0.00000E+00  9.000E+00
#rwgt            1           1  -3.3302141565717681E-002          10      123080           0
</event>
<event>
      5   9999  3.79277E-02  4.52739E+01 -1.00000E+00  1.41581E-01
      21    -1     0     0   512   501  0.000000000E+00  0.000000000E+00  1.390301215E+03  1.390301215E+03  0.000000000E+00  0.00000E+00  9.000E+00
      21    -1     0     0   501   502  0.000000000E+00  0.000000000E+00 -6.123007300E+01  6.123007300E+01  0.000000000E+00  0.00000E+00  9.000E+00
      25     1     1     2     0     0  7.225286443E+01  1.734367700E+02  3.939735443E+02  4.540274697E+02  1.250000000E+02  0.00000E+00  9.000E+00
      25     1     1     2     0     0 -8.626587671E+01 -2.164874121E+02  5.557099675E+02  6.154243813E+02  1.250000000E+02  0.00000E+00  9.000E+00
      21     1     1     2   512   502  1.401301227E+01  4.305064208E+01  3.793876301E+02  3.820794369E+02  7.629394531E-06  0.00000E+00  9.000E+00
#rwgt            1           1   3.2322089053807082E-002          10      123230           0
</event>
<event>
      5   9999  3.79277E-02  1.59863E+01 -1.00000E+00  1.74817E-01
      21    -1     0     0   502   501  0.000000000E+00  0.000000000E+00  7.949889665E+02  7.949889665E+02  0.000000000E+00  0.00000E+00  9.000E+00
       1    -1     0     0   501     0  0.000000000E+00  0.000000000E+00 -6.531004557E+02  6.531004557E+02  0.000000000E+00  0.00000E+00  9.000E+00
      25     1     1     2     0     0  1.399564758E+02  9.131208864E+01  6.791317727E+02  7.104721510E+02  1.250000000E+02  0.00000E+00  9.000E+00
      25     1     1     2     0     0 -1.388928758E+02 -7.536116929E+01 -1.352263563E+00  2.014878790E+02  1.250000000E+02  0.00000E+00  9.000E+00
       1     1     1     2   502     0 -1.063600047E+00 -1.595091935E+01 -5.358909983E+02  5.361293921E+02  1.078959322E-05  0.00000E+00  9.000E+00
#rwgt            1           1   3.9384208154037002E-002          10      123423           0
</event>
<event>
      5   9999  3.79277E-02  7.34219E+01 -1.00000E+00  1.30179E-01
      21    -1     0     0   511   501  0.000000000E+00  0.000000000E+00  2.594120471E+02  2.594120471E+02  0.000000000E+00  0.00000E+00  9.000E+00
      21    -1     0     0   501   502  0.000000000E+00  0.000000000E+00 -3.611364886E+02  3.611364886E+02  0.000000000E+00  0.00000E+00  9.000E+00
      25     1     1     2     0     0 -1.040403312E+02  4.747804092E+01  1.476948482E+01  1.700637897E+02  1.250000000E+02  0.00000E+00  9.000E+00
      25     1     1     2     0     0  8.423821232E+01 -1.181791874E+02 -2.398416665E+02  3.069387915E+02  1.250000000E+02  0.00000E+00  9.000E+00
      21     1     1     2   511   502  1.980211885E+01  7.070114644E+01  1.233477402E+02  1.435459544E+02  1.907348633E-06  0.00000E+00  9.000E+00
#rwgt            1           1   4.9128412480295237E-002          10      123787           0
</event>
<event>
      5   9999  3.79277E-02  8.00219E+01 -1.00000E+00  1.28344E-01
      21    -1     0     0   502   501  0.000000000E+00  0.000000000E+00  2.594745277E+02  2.594745277E+02  0.000000000E+00  0.00000E+00  9.000E+00
      21    -1     0     0   512   502  0.000000000E+00  0.000000000E+00 -6.181912419E+02  6.181912419E+02  0.000000000E+00  0.00000E+00  9.000E+00
      25     1     1     2     0     0  1.045717047E+02 -1.872886913E+01 -2.385042903E+02  2.894741930E+02  1.250000000E+02  0.00000E+00  9.000E+00
      25     1     1     2     0     0 -1.124964589E+02 -6.089966885E+01  1.940490144E+02  2.639019570E+02  1.250000000E+02  0.00000E+00  9.000E+00
      21     1     1     2   512   501  7.924754224E+00  7.962853798E+01 -3.142614383E+02  3.242896196E+02  5.394796609E-06  0.00000E+00  9.000E+00
#rwgt            1           1   5.1603523751077948E-002          10      123914           0
</event>
<event>
      5   9999  3.79277E-02  8.37008E+00 -1.00000E+00  2.05135E-01
      21    -1     0     0   511   501  0.000000000E+00  0.000000000E+00  6.869009470E+01  6.869009470E+01  0.000000000E+00  0.00000E+00  9.000E+00
      21    -1     0     0   501   502  0.000000000E+00  0.000000000E+00 -4.557089060E+02  4.557089060E+02  0.000000000E+00  0.00000E+00  9.000E+00
      25     1     1     2     0     0 -1.007267289E+02 -1.865715157E+01 -2.639813287E+02  3.095239977E+02  1.250000000E+02  0.00000E+00  9.000E+00
      25     1     1     2     0     0  1.053595231E+02  2.562819543E+01 -1.235160114E+02  2.064912554E+02  1.250000000E+02  0.00000E+00  9.000E+00
      21     1     1     2   511   502 -4.632794167E+00 -6.971043856E+00  4.785287658E-01  8.383747612E+00  1.039082235E-07  0.00000E+00  9.000E+00
#rwgt            1           1   3.1929781122323135E-002          10      124176           0
</event>
<event>
      5   9999  3.79277E-02  3.81817E+01 -1.00000E+00  1.46104E-01
      21    -1     0     0   502   512  0.000000000E+00  0.000000000E+00  2.538977693E+02  2.538977693E+02  0.000000000E+00  0.00000E+00  9.000E+00
      21    -1     0     0   501   502  0.000000000E+00  0.000000000E+00 -2.873008259E+02  2.873008259E+02  0.000000000E+00  0.00000E+00  9.000E+00
      25     1     1     2     0     0 -4.687433487E+01  7.435996109E+01  7.998902612E+01  1.724814523E+02  1.250000000E+02  0.00000E+00  9.000E+00
      25     1     1     2     0     0  8.200904493E+01 -5.941369761E+01 -2.101737329E+02  2.646761585E+02  1.250000000E+02  0.00000E+00  9.000E+00
      21     1     1     2   501   512 -3.513471006E+01 -1.494626348E+01  9.678165006E+01  1.040409844E+02  0.000000000E+00  0.00000E+00  9.000E+00
#rwgt            1           1   4.5487735960409260E-002          10      124421           0
</event>
<event>
      5   9999  3.79277E-02  3.21453E+01 -1.00000E+00  1.50985E-01
      21    -1     0     0   502   511  0.000000000E+00  0.000000000E+00  1.065050683E+02  1.065050683E+02  0.000000000E+00  0.00000E+00  9.000E+00
      21    -1     0     0   501   502  0.000000000E+00  0.000000000E+00 -1.021312521E+03  1.021312521E+03  0.000000000E+00  0.00000E+00  9.000E+00
      25     1     1     2     0     0 -5.371225922E+01  1.888575003E+02 -1.050571653E+02  2.553706526E+02  1.250000000E+02  0.00000E+00  9.000E+00
      25     1     1     2     0     0  2.225288288E+01 -1.954626045E+02 -8.072266179E+02  8.402027334E+02  1.250000000E+02  0.00000E+00  9.000E+00
      21     1     1     2   501   511  3.145937634E+01  6.605104170E+00 -2.523669903E+00  3.224420368E+01  7.366661486E-07  0.00000E+00  9.000E+00
#rwgt            1           1   4.3007665423141939E-002          10      124570           0
</event>
<event>
      5   9999  3.79277E-02  1.11200E+01 -1.00000E+00  1.90574E-01
      21    -1     0     0   502   501  0.000000000E+00  0.000000000E+00  2.592037267E+02  2.592037267E+02  0.000000000E+00  0.00000E+00  9.000E+00
      21    -1     0     0   512   502  0.000000000E+00  0.000000000E+00 -2.424577404E+02  2.424577404E+02  0.000000000E+00  0.00000E+00  9.000E+00
      25     1     1     2     0     0  1.234246701E+02 -1.113818906E+02  3.131036860E+01  2.103447502E+02  1.250000000E+02  0.00000E+00  9.000E+00
      25     1     1     2     0     0 -1.196930546E+02  1.009067253E+02  6.528025087E+01  2.107014610E+02  1.250000000E+02  0.00000E+00  9.000E+00
      21     1     1     2   512   501 -3.731615477E+00  1.047516535E+01 -7.984463318E+01  8.061525594E+01  9.536743164E-07  0.00000E+00  9.000E+00
#rwgt            1           1   2.3301166331640571E-002          10      124778           0
</event>
<event>
      5   9999  3.79277E-02  7.39173E+00 -1.00000E+00  2.12265E-01
      21    -1     0     0   502   511  0.000000000E+00  0.000000000E+00  1.474004413E+03  1.474004413E+03  0.000000000E+00  0.00000E+00  9.000E+00
      21    -1     0     0   501   502  0.000000000E+00  0.000000000E+00 -5.092256923E+01  5.092256923E+01  0.000000000E+00  0.00000E+00  9.000E+00
      25     1     1     2     0     0  1.679742765E+02  4.955682502E+01  8.543597651E+02  8.810373685E+02  1.250000000E+02  0.00000E+00  9.000E+00
      25     1     1     2     0     0 -1.752922179E+02 -4.851499373E+01  2.868663089E+02  3.619369357E+02  1.250000000E+02  0.00000E+00  9.000E+00
      21     1     1     2   501   511  7.317941350E+00 -1.041831285E+00  2.818557699E+02  2.819526782E+02  3.814697266E-06  0.00000E+00  9.000E+00
#rwgt            1           1   4.0197736174231176E-002          10      124996           0
</event>
<event>
      5   9999  3.79277E-02  6.17070E+01 -1.00000E+00  1.34056E-01
      21    -1     0     0   502   501  0.000000000E+00  0.000000000E+00  6.623494588E+01  6.623494588E+01  0.000000000E+00  0.00000E+00  9.000E+00
      21    -1     0     0   512   502  0.000000000E+00  0.000000000E+00 -2.425869249E+03  2.425869249E+03  0.000000000E+00  0.00000E+00  9.000E+00
      25     1     1     2     0     0  2.895309056E+02 -9.897220188E+00 -5.153004280E+02  6.042231636E+02  1.250000000E+02  0.00000E+00  9.000E+00
      25     1     1     2     0     0 -2.783118690E+02 -5.078137300E+01 -1.151820988E+03  1.192624346E+03  1.250000000E+02  0.00000E+00  9.000E+00
      21     1     1     2   512   501 -1.121903665E+01  6.067859319E+01 -6.925128874E+02  6.952566848E+02  7.629394531E-06  0.00000E+00  9.000E+00
#rwgt            1           1   2.6910443831702387E-002          10      125374           0
</event>
<event>
      5   9999  3.79277E-02  7.22015E+01 -1.00000E+00  1.30543E-01
      21    -1     0     0   511   501  0.000000000E+00  0.000000000E+00  2.686276146E+02  2.686276146E+02  0.000000000E+00  0.00000E+00  9.000E+00
      21    -1     0     0   501   502  0.000000000E+00  0.000000000E+00 -3.792655428E+02  3.792655428E+02  0.000000000E+00  0.00000E+00  9.000E+00
      25     1     1     2     0     0 -1.897416225E+02 -6.568281604E+01  5.154609857E+01  2.420704772E+02  1.250000000E+02  0.00000E+00  9.000E+00
      25     1     1     2     0     0  2.047093275E+02  1.363158593E+02 -1.825384912E+02  3.308069271E+02  1.250000000E+02  0.00000E+00  9.000E+00
      21     1     1     2   511   502 -1.496770498E+01 -7.063304325E+01  2.035446448E+01  7.501575311E+01  1.092571186E-06  0.00000E+00  9.000E+00
#rwgt            1           1   4.7828610532291441E-002          10      125676           0
</event>
<event>
      5   9999  3.79277E-02  7.50553E+00 -1.00000E+00  2.11361E-01
      21    -1     0     0   502   501  0.000000000E+00  0.000000000E+00  1.528430802E+02  1.528430802E+02  0.000000000E+00  0.00000E+00  9.000E+00
      21    -1     0     0   501   512  0.000000000E+00  0.000000000E+00 -4.365842292E+02  4.365842292E+02  0.000000000E+00  0.00000E+00  9.000E+00
      25     1     1     2     0     0 -1.638208159E+02  5.966932178E+01 -1.656816364E+02  2.710592045E+02  1.250000000E+02  0.00000E+00  9.000E+00
      25     1     1     2     0     0  1.610251345E+02 -5.270389461E+01 -1.078062297E+01  2.108269819E+02  1.250000000E+02  0.00000E+00  9.000E+00
      21     1     1     2   502   512  2.795681353E+00 -6.965427170E+00 -1.072788896E+02  1.075411231E+02  0.000000000E+00  0.00000E+00  9.000E+00
#rwgt            1           1   1.9320039338308146E-002          10      125809           0
</event>
<event>
      5   9999  3.79277E-02  5.39118E+01 -1.00000E+00  1.37234E-01
      21    -1     0     0   502   511  0.000000000E+00  0.000000000E+00  6.372779623E+02  6.372779623E+02  0.000000000E+00  0.00000E+00  9.000E+00
      21    -1     0     0   501   502  0.000000000E+00  0.000000000E+00 -9.333873154E+01  9.333873154E+01  0.000000000E+00  0.00000E+00  9.000E+00
      25     1     1     2     0     0  1.500742176E+02  1.592563464E+01  3.395233596E+02  3.920165920E+02  1.250000000E+02  0.00000E+00  9.000E+00
      25     1     1     2     0     0 -1.400164589E+02 -6.889089151E+01  1.057908509E+02  2.262018299E+02  1.250000000E+02  0.00000E+00  9.000E+00
      21     1     1     2   501   511 -1.005775874E+01  5.296525687E+01  9.862502021E+01  1.123982720E+02  0.000000000E+00  0.00000E+00  9.000E+00
#rwgt            2          11   2.7972818938050538E-003          10      126202           0
</event>
<event>
      5   9999  3.79277E-02  2.26363E+01 -1.00000E+00  1.62051E-01
      21    -1     0     0   502   501  0.000000000E+00  0.000000000E+00  9.008491319E+02  9.008491319E+02  0.000000000E+00  0.00000E+00  9.000E+00
       2    -1     0     0   501     0  0.000000000E+00  0.000000000E+00 -1.503657074E+03  1.503657074E+03  0.000000000E+00  0.00000E+00  9.000E+00
      25     1     1     2     0     0 -1.949516333E+02 -3.992162554E+01  6.495143355E+02  6.907197315E+02  1.250000000E+02  0.00000E+00  9.000E+00
      25     1     1     2     0     0  1.816841977E+02  5.826222269E+01  1.742469365E+02  2.870376790E+02  1.250000000E+02  0.00000E+00  9.000E+00
       2     1     1     2   502     0  1.326743561E+01 -1.834059714E+01 -1.426569214E+03  1.426748795E+03  0.000000000E+00  0.00000E+00  9.000E+00
#rwgt            1           1   3.8098651555262236E-002          10      126357           0
</event>
<event>
      5   9999  3.79277E-02  3.96827E+01 -1.00000E+00  1.45055E-01
      21    -1     0     0   502   501  0.000000000E+00  0.000000000E+00  1.801031287E+02  1.801031287E+02  0.000000000E+00  0.00000E+00  9.000E+00
      21    -1     0     0   511   502  0.000000000E+00  0.000000000E+00 -9.911576836E+02  9.911576836E+02  0.000000000E+00  0.00000E+00  9.000E+00
      25     1     1     2     0     0 -2.314751812E+02 -9.110722152E+01 -5.604627343E+01  2.839849822E+02  1.250000000E+02  0.00000E+00  9.000E+00
      25     1     1     2     0     0  1.997926386E+02  6.721295557E+01 -1.638770085E+02  2.948141003E+02  1.250000000E+02  0.00000E+00  9.000E+00
      21     1     1     2   511   501  3.168254263E+01  2.389426595E+01 -5.911312730E+02  5.924617298E+02  7.629394531E-06  0.00000E+00  9.000E+00
#rwgt            1           1   3.4935580546134222E-002          10      126495           0
</event>
<event>
      5   9999  3.79277E-02  2.56419E+02 -1.00000E+00  1.07855E-01
       1    -1     0     0   502     0  0.000000000E+00  0.000000000E+00  1.657377339E+03  1.657377339E+03  0.000000000E+00  0.00000E+00  9.000E+00
      21    -1     0     0   501   502  0.000000000E+00  0.000000000E+00 -5.799635450E+02  5.799635450E+02  0.000000000E+00  0.00000E+00  9.000E+00
      25     1     1     2     0     0  2.687215149E+02 -4.743189834E+02 -1.465672229E+01  5.594904558E+02  1.250000000E+02  0.00000E+00  9.000E+00
      25     1     1     2     0     0 -1.926385683E+01  4.149776192E+02 -1.109663417E+02  4.477901848E+02  1.250000000E+02  0.00000E+00  9.000E+00
       1     1     1     2   501     0 -2.494576580E+02  5.934136419E+01  1.203036858E+03  1.230060244E+03  1.525878906E-05  0.00000E+00  9.000E+00
#rwgt            1           1   9.8670846190254111E-002          10      126643           0
</event>
<event>
      5   9999  3.79277E-02  3.72626E+01 -1.00000E+00  1.46776E-01
      21    -1     0     0   502   501  0.000000000E+00  0.000000000E+00  1.426697866E+03  1.426697866E+03  0.000000000E+00  0.00000E+00  9.000E+00
      21    -1     0     0   511   502  0.000000000E+00  0.000000000E+00 -1.567900209E+02  1.567900209E+02  0.000000000E+00  0.00000E+00  9.000E+00
      25     1     1     2     0     0 -1.888502969E+02 -2.030082786E+02  5.184948985E+02  6.011145944E+02  1.250000000E+02  0.00000E+00  9.000E+00
      25     1     1     2     0     0  1.687345840E+02  2.343747904E+02  8.342028508E+02  8.915841511E+02  1.250000000E+02  0.00000E+00  9.000E+00
      21     1     1     2   511   501  2.011571295E+01 -3.136651181E+01 -8.278990418E+01  9.078914145E+01  3.015782986E-06  0.00000E+00  9.000E+00
#rwgt            1           1   3.3340945188401888E-002          10      126786           0
</event>
<event>
      5   9999  3.79277E-02  1.44899E+01 -1.00000E+00  1.78811E-01
      21    -1     0     0   502   501  0.000000000E+00  0.000000000E+00  6.661701779E+02  6.661701779E+02  0.000000000E+00  0.00000E+00  9.000E+00
      21    -1     0     0   512   502  0.000000000E+00  0.000000000E+00 -1.528129947E+02  1.528129947E+02  0.000000000E+00  0.00000E+00  9.000E+00
      25     1     1     2     0     0 -1.738875408E+02 -1.194161848E+02  3.478460211E+02  4.255807284E+02  1.250000000E+02  0.00000E+00  9.000E+00
      25     1     1     2     0     0  1.623504188E+02  1.106497037E+02  2.300027945E+02  3.273030719E+02  1.250000000E+02  0.00000E+00  9.000E+00
      21     1     1     2   512   501  1.153712196E+01  8.766481054E+00 -6.449163235E+01  6.609937228E+01  1.907348633E-06  0.00000E+00  9.000E+00
#rwgt            1           1   7.5271020971488273E-002          10      126928           0
</event>
<event>
      5   9999  3.79277E-02  1.97735E+01 -1.00000E+00  1.66778E-01
      21    -1     0     0   502   501  0.000000000E+00  0.000000000E+00  1.200421914E+03  1.200421914E+03  0.000000000E+00  0.00000E+00  9.000E+00
      21    -1     0     0   511   502  0.000000000E+00  0.000000000E+00 -8.942653174E+02  8.942653174E+02  0.000000000E+00  0.00000E+00  9.000E+00
      25     1     1     2     0     0  2.061876665E+02  3.905175847E+00  7.832110451E+02  8.194956652E+02  1.250000000E+02  0.00000E+00  9.000E+00
      25     1     1     2     0     0 -1.865810092E+02 -6.468307325E+00  3.673204284E+02  4.305851938E+02  1.250000000E+02  0.00000E+00  9.000E+00
      21     1     1     2   511   501 -1.960665721E+01  2.563131478E+00 -8.443748772E+02  8.446063721E+02  0.000000000E+00  0.00000E+00  9.000E+00
#rwgt            1           1   3.9175170558705924E-002          10      127184           0
</event>
<event>
      5   9999  3.79277E-02  6.04173E+01 -1.00000E+00  1.34543E-01
      21    -1     0     0   502   501  0.000000000E+00  0.000000000E+00  5.862026108E+02  5.862026108E+02  0.000000000E+00  0.00000E+00  9.000E+00
      21    -1     0     0   501   512  0.000000000E+00  0.000000000E+00 -7.804442977E+01  7.804442977E+01  0.000000000E+00  0.00000E+00  9.000E+00
      25     1     1     2     0     0  4.817285997E+00  2.942518676E+01  4.169501437E+02  4.363043321E+02  1.250000000E+02  0.00000E+00  9.000E+00
      25     1     1     2     0     0 -6.202342533E+01 -4.886003534E+01  5.657795666E+01  1.583043699E+02  1.250000000E+02  0.00000E+00  9.000E+00
      21     1     1     2   502   512  5.720613933E+01  1.943484858E+01  3.463008066E+01  6.963833860E+01  1.066240300E-06  0.00000E+00  9.000E+00
#rwgt            1           1   2.5631680983617070E-002          10      127370           0
</event>
<event>
      5   9999  3.79277E-02  8.65603E+01 -1.00000E+00  1.26714E-01
      21    -1     0     0   502   501  0.000000000E+00  0.000000000E+00  8.951894747E+01  8.951894747E+01  0.000000000E+00  0.00000E+00  9.000E+00
      21    -1     0     0   501   511  0.000000000E+00  0.000000000E+00 -1.037200738E+03  1.037200738E+03  0.000000000E+00  0.00000E+00  9.000E+00
      25     1     1     2     0     0 -2.943085925E+01  2.127161457E+02 -4.178920524E+02  4.861821691E+02  1.250000000E+02  0.00000E+00  9.000E+00
      25     1     1     2     0     0  1.156937542E+02 -2.055474514E+02 -3.427499606E+02  4.344391040E+02  1.250000000E+02  0.00000E+00  9.000E+00
      21     1     1     2   502   511 -8.626289497E+01 -7.168694300E+00 -1.870397777E+02  2.060984126E+02  0.000000000E+00  0.00000E+00  9.000E+00
#rwgt            1           1   4.7770362267500470E-002          10      127471           0
</event>
<event>
      5   9999  3.79277E-02  7.58004E+01 -1.00000E+00  1.29493E-01
      21    -1     0     0   502   512  0.000000000E+00  0.000000000E+00  5.687671743E+02  5.687671743E+02  0.000000000E+00  0.00000E+00  9.000E+00
      21    -1     0     0   501   502  0.000000000E+00  0.000000000E+00 -1.966970155E+02  1.966970155E+02  0.000000000E+00  0.00000E+00  9.000E+00
      25     1     1     2     0     0 -1.887034418E+02  1.213397261E+02  2.925357824E+02  3.892743275E+02  1.250000000E+02  0.00000E+00  9.000E+00
      25     1     1     2     0     0  1.583837901E+02 -5.186726859E+01 -6.051819264E+01  2.169402917E+02  1.250000000E+02  0.00000E+00  9.000E+00
      21     1     1     2   501   512  3.031965172E+01 -6.947245755E+01  1.400525691E+02  1.592495707E+02  1.907348633E-06  0.00000E+00  9.000E+00
#rwgt            2          11   2.2559584841541796E-003          10      127615           0
</event>
<event>
      5   9999  3.79277E-02  1.69662E+01 -1.00000E+00  1.72488E-01
      21    -1     0     0   511   501  0.000000000E+00  0.000000000E+00  1.438736153E+02  1.438736153E+02  0.000000000E+00  0.00000E+00  9.000E+00
      21    -1     0     0   501   502  0.000000000E+00  0.000000000E+00 -3.702393736E+02  3.702393736E+02  0.000000000E+00  0.00000E+00  9.000E+00
      25     1     1     2     0     0  9.018880561E+01 -8.533505786E+01 -9.513019574E+01  2.002269884E+02  1.250000000E+02  0.00000E+00  9.000E+00
      25     1     1     2     0     0 -8.733177537E+01  6.861112049E+01 -1.897790543E+02  2.529336164E+02  1.250000000E+02  0.00000E+00  9.000E+00
      21     1     1     2   511   502 -2.857030241E+00  1.672393737E+01  5.854349176E+01  6.095238412E+01  0.000000000E+00  0.00000E+00  9.000E+00
#rwgt            1           1   3.5728005381052474E-002          10      127665           0
</event>
<event>
      5   9999  3.79277E-02  2.65415E+01 -1.00000E+00  1.56829E-01
      21    -1     0     0   502   501  0.000000000E+00  0.000000000E+00  8.592951530E+02  8.592951530E+02  0.000000000E+00  0.00000E+00  9.000E+00
      21    -1     0     0   501   512  0.000000000E+00  0.000000000E+00 -5.516250560E+01  5.516250560E+01  0.000000000E+00  0.00000E+00  9.000E+00
      25     1     1     2     0     0  7.721953327E+01 -1.267564172E+02  4.471845130E+02  4.874720857E+02  1.250000000E+02  0.00000E+00  9.000E+00
      25     1     1     2     0     0 -6.341732256E+01  1.494268390E+02  3.343404676E+02  3.921207534E+02  1.250000000E+02  0.00000E+00  9.000E+00
      21     1     1     2   502   512 -1.380221070E+01 -2.267042174E+01  2.260766684E+01  3.486481955E+01  5.331201500E-07  0.00000E+00  9.000E+00
#rwgt            1           1   4.2523552618775780E-002          10      127888           0
</event>
<event>
      5   9999  3.79277E-02  3.61571E+01 -1.00000E+00  1.47614E-01
      21    -1     0     0   511   501  0.000000000E+00  0.000000000E+00  2.273005821E+02  2.273005821E+02  0.000000000E+00  0.00000E+00  9.000E+00
      21    -1     0     0   501   502  0.000000000E+00  0.000000000E+00 -1.519220300E+02  1.519220300E+02  0.000000000E+00  0.00000E+00  9.000E+00
      25     1     1     2     0     0 -5.917805310E+00  2.284476845E+01  1.112644436E+02  1.690020127E+02  1.250000000E+02  0.00000E+00  9.000E+00
      25     1     1     2     0     0  1.762003269E+01 -5.705579360E+01 -7.452314146E+01  1.573039343E+02  1.250000000E+02  0.00000E+00  9.000E+00
      21     1     1     2   511   502 -1.170222738E+01  3.421102515E+01  3.863724998E+01  5.291666518E+01  0.000000000E+00  0.00000E+00  9.000E+00
#rwgt            1           1   4.0972894384442543E-002          10      128022           0
</event>
<event>
      5   9999  3.79277E-02  1.56927E+01 -1.00000E+00  1.75556E-01
      21    -1     0     0   512   501  0.000000000E+00  0.000000000E+00  6.956828345E+02  6.956828345E+02  0.000000000E+00  0.00000E+00  9.000E+00
      21    -1     0     0   501   502  0.000000000E+00  0.000000000E+00 -1.034949175E+02  1.034949175E+02  0.000000000E+00  0.00000E+00  9.000E+00
      25     1     1     2     0     0  1.224748842E+02 -3.678725390E+01  5.360297138E+02  5.650719011E+02  1.250000000E+02  0.00000E+00  9.000E+00
      25     1     1     2     0     0 -1.100621037E+02  4.638850960E+01 -2.986538834E+00  1.729146608E+02  1.250000000E+02  0.00000E+00  9.000E+00
      21     1     1     2   512   502 -1.241278048E+01 -9.601255706E+00  5.914474200E+01  6.119119002E+01  6.743495762E-07  0.00000E+00  9.000E+00
#rwgt            1           1   3.9637589244609785E-002          10      128192           0
</event>
<event>
      5   9999  3.79277E-02  2.14207E+01 -1.00000E+00  1.63947E-01
      21    -1     0     0   502   501  0.000000000E+00  0.000000000E+00  9.503457778E+02  9.503457778E+02  0.000000000E+00  0.00000E+00  9.000E+00
      21    -1     0     0   511   502  0.000000000E+00  0.000000000E+00 -5.368141696E+01  5.368141696E+01  0.000000000E+00  0.00000E+00  9.000E+00
      25     1     1     2     0     0 -1.164802975E+02  3.448124324E+01  6.825034210E+02  7.044093523E+02  1.250000000E+02  0.00000E+00  9.000E+00
      25     1     1     2     0     0  1.279011612E+02 -1.635914451E+01  2.123692698E+02  2.781223389E+02  1.250000000E+02  0.00000E+00  9.000E+00
      21     1     1     2   511   501 -1.142086374E+01 -1.812209873E+01  1.791669968E+00  2.149550354E+01  4.015026565E-07  0.00000E+00  9.000E+00
#rwgt            1           1   4.7048660002896599E-002          10      128467           0
</event>
<event>
      5   9999  3.79277E-02  1.53255E+02 -1.00000E+00  1.16025E-01
      -4    -1     0     0     0   501  0.000000000E+00  0.000000000E+00  1.334657730E+02  1.334657730E+02  0.000000000E+00  0.00000E+00  9.000E+00
      21    -1     0     0   501   502  0.000000000E+00  0.000000000E+00 -1.923207509E+03  1.923207509E+03  0.000000000E+00  0.00000E+00  9.000E+00
      25     1     1     2     0     0  1.813043623E+02  1.991967054E+02 -4.477635700E+02  5.372781531E+02  1.250000000E+02  0.00000E+00  9.000E+00
      25     1     1     2     0     0 -3.231452580E+02 -2.572325052E+02 -1.285613354E+03  1.356104021E+03  1.250000000E+02  0.00000E+00  9.000E+00
      -4     1     1     2     0   502  1.418408957E+02  5.803579987E+01 -5.636481146E+01  1.632911073E+02  3.989505894E-06  0.00000E+00  9.000E+00
#rwgt            1           1   2.9850102828073606E-002          10      128635           0
</event>
<event>
      5   9999  3.79277E-02  9.35251E+01 -1.00000E+00  1.25150E-01
      21    -1     0     0   511   501  0.000000000E+00  0.000000000E+00  1.228218530E+02  1.228218530E+02  0.000000000E+00  0.00000E+00  9.000E+00
      21    -1     0     0   501   502  0.000000000E+00  0.000000000E+00 -1.471306365E+03  1.471306365E+03  0.000000000E+00  0.00000E+00  9.000E+00
      25     1     1     2     0     0  1.795800197E+02 -2.542894307E+02 -2.721129889E+02  4.319520538E+02  1.250000000E+02  0.00000E+00  9.000E+00
      25     1     1     2     0     0 -1.867676459E+02  1.610409208E+02 -1.010862067E+03  1.047990196E+03  1.250000000E+02  0.00000E+00  9.000E+00
      21     1     1     2   511   502  7.187626187E+00  9.324850991E+01 -6.550945606E+01  1.141859685E+02  1.348699152E-06  0.00000E+00  9.000E+00
#rwgt            1           1   2.2864776592117254E-002          10      128770           0
</event>
<event>
      5   9999 -5.02120E-02  4.95235E+01 -1.00000E+00  1.39313E-01
      21    -1     0     0   502   501  0.000000000E+00  0.000000000E+00  2.886444347E+02  2.886444347E+02  0.000000000E+00  0.00000E+00  9.000E+00
      21    -1     0     0   512   502  0.000000000E+00  0.000000000E+00 -3.060294422E+02  3.060294422E+02  0.000000000E+00  0.00000E+00  9.000E+00
      25     1     1     2     0     0  1.205190746E+02 -2.332696688E+02 -4.770973357E+01  2.946876387E+02  1.250000000E+02  0.00000E+00  9.000E+00
      25     1     1     2     0     0 -1.013765949E+02  1.875953326E+02  3.730995858E+01  2.499725102E+02  1.250000000E+02  0.00000E+00  9.000E+00
      21     1     1     2   512   501 -1.914247973E+01  4.567433620E+01 -6.985232545E+00  5.001372803E+01  4.616955931E-07  0.00000E+00  9.000E+00
#rwgt            1           1 -0.39693844091639052               10      128947           0
</event>
<event>
      5   9999  3.79277E-02  1.16160E+01 -1.00000E+00  1.88526E-01
      21    -1     0     0   511   501  0.000000000E+00  0.000000000E+00  2.522650610E+02  2.522650610E+02  0.000000000E+00  0.00000E+00  9.000E+00
      21    -1     0     0   501   502  0.000000000E+00  0.000000000E+00 -3.557898305E+02  3.557898305E+02  0.000000000E+00  0.00000E+00  9.000E+00
      25     1     1     2     0     0 -3.968335873E+01  4.503544456E+01  4.834715271E+01  1.468516510E+02  1.250000000E+02  0.00000E+00  9.000E+00
      25     1     1     2     0     0  5.108304149E+01 -4.280420276E+01 -2.899150217E+02  3.226722745E+02  1.250000000E+02  0.00000E+00  9.000E+00
      21     1     1     2   511   502 -1.139968276E+01 -2.231241800E+00  1.380430995E+02  1.385309659E+02  1.907348633E-06  0.00000E+00  9.000E+00
#rwgt            1           1   3.3946943369713982E-002          10      129049           0
</event>
<event>
      5   9999  3.79277E-02  1.42609E+02 -1.00000E+00  1.17270E-01
      21    -1     0     0   502   501  0.000000000E+00  0.000000000E+00  7.572299961E+02  7.572299961E+02  0.000000000E+00  0.00000E+00  9.000E+00
       2    -1     0     0   501     0  0.000000000E+00  0.000000000E+00 -2.581267536E+02  2.581267536E+02  0.000000000E+00  0.00000E+00  9.000E+00
      25     1     1     2     0     0 -2.669947622E+00  9.362234977E+01  4.433386308E+02  4.700493746E+02  1.250000000E+02  0.00000E+00  9.000E+00
      25     1     1     2     0     0 -8.218980387E+01 -2.082358825E+02  2.127820055E+02  3.331944305E+02  1.250000000E+02  0.00000E+00  9.000E+00
       2     1     1     2   502     0  8.485975150E+01  1.146135328E+02 -1.570173939E+02  2.121129447E+02  5.046370146E-06  0.00000E+00  9.000E+00
#rwgt            2          13   2.1964236840444192E-004          10      129388           0
</event>
<event>
      5   9999  3.79277E-02  7.96897E+00 -1.00000E+00  2.07891E-01
      21    -1     0     0   502   511  0.000000000E+00  0.000000000E+00  8.142178700E+01  8.142178700E+01  0.000000000E+00  0.00000E+00  9.000E+00
      21    -1     0     0   501   502  0.000000000E+00  0.000000000E+00 -4.887634243E+02  4.887634243E+02  0.000000000E+00  0.00000E+00  9.000E+00
      25     1     1     2     0     0  7.644106741E+01  1.132557094E+02 -3.004089383E+02  3.529031350E+02  1.250000000E+02  0.00000E+00  9.000E+00
      25     1     1     2     0     0 -7.025566299E+01 -1.082312415E+02 -1.073858758E+02  2.093002297E+02  1.250000000E+02  0.00000E+00  9.000E+00
      21     1     1     2   501   511 -6.185404428E+00 -5.024467899E+00  4.531767862E-01  7.981846579E+00  8.971687092E-08  0.00000E+00  9.000E+00
#rwgt            1           1   3.1468067908364733E-002          10      129497           0
</event>
<event>
      5   9999  3.79277E-02  1.60165E+02 -1.00000E+00  1.15276E-01
      21    -1     0     0   502   501  0.000000000E+00  0.000000000E+00  2.333530385E+02  2.333530385E+02  0.000000000E+00  0.00000E+00  9.000E+00
      21    -1     0     0   501   512  0.000000000E+00  0.000000000E+00 -1.046388021E+03  1.046388021E+03  0.000000000E+00  0.00000E+00  9.000E+00
      25     1     1     2     0     0  1.073018292E+02  3.186122000E+02 -5.136186150E+02  6.264634852E+02  1.250000000E+02  0.00000E+00  9.000E+00
      25     1     1     2     0     0  5.192776509E+01 -3.358967887E+02 -6.279757359E+01  3.675482019E+02  1.250000000E+02  0.00000E+00  9.000E+00
      21     1     1     2   502   512 -1.592295943E+02  1.728458866E+01 -2.366187940E+02  2.857293726E+02  3.814697266E-06  0.00000E+00  9.000E+00
#rwgt            1           1   4.6889385108607233E-002          10      129825           0
</event>
<event>
      5   9999  3.79277E-02  1.87611E+00 -1.00000E+00  3.76548E-01
      21    -1     0     0   511   501  0.000000000E+00  0.000000000E+00  1.252848325E+02  1.252848325E+02  0.000000000E+00  0.00000E+00  9.000E+00
      21    -1     0     0   501   502  0.000000000E+00  0.000000000E+00 -5.371708812E+02  5.371708812E+02  0.000000000E+00  0.00000E+00  9.000E+00
      25     1     1     2     0     0  1.911926612E+02 -7.122296341E+01 -3.303074834E+02  4.078668629E+02  1.250000000E+02  0.00000E+00  9.000E+00
      25     1     1     2     0     0 -1.916240133E+02  6.939711188E+01 -8.182295257E+01  2.526968879E+02  1.250000000E+02  0.00000E+00  9.000E+00
      21     1     1     2   511   502  4.313520446E-01  1.825851531E+00  2.443873231E-01  1.891962887E+00  3.678429436E-08  0.00000E+00  9.000E+00
#rwgt            1           1   3.6838511838343489E-002          10      130002           0
</event>
<event>
      5   9999  3.79277E-02  6.25717E+01 -1.00000E+00  1.33737E-01
      21    -1     0     0   502   501  0.000000000E+00  0.000000000E+00  1.371917644E+02  1.371917644E+02  0.000000000E+00  0.00000E+00  9.000E+00
      21    -1     0     0   512   502  0.000000000E+00  0.000000000E+00 -3.739066053E+02  3.739066053E+02  0.000000000E+00  0.00000E+00  9.000E+00
      25     1     1     2     0     0  1.456573365E+02 -3.659261071E+01 -1.647401264E+02  2.555765797E+02  1.250000000E+02  0.00000E+00  9.000E+00
      25     1     1     2     0     0 -9.818534470E+01  7.735566467E+01 -2.784580768E+01  1.789543232E+02  1.250000000E+02  0.00000E+00  9.000E+00
      21     1     1     2   512   501 -4.747199181E+01 -4.076305397E+01 -4.412890687E+01  7.656746696E+01  9.536743164E-07  0.00000E+00  9.000E+00
#rwgt            1           1   4.0057926048437983E-002          10      130889           0
</event>
<event>
      5   9999  3.79277E-02  1.26051E+01 -1.00000E+00  1.84809E-01
      21    -1     0     0   502   501  0.000000000E+00  0.000000000E+00  3.105980398E+02  3.105980398E+02  0.000000000E+00  0.00000E+00  9.000E+00
      21    -1     0     0   511   502  0.000000000E+00  0.000000000E+00 -1.012281805E+02  1.012281805E+02  0.000000000E+00  0.00000E+00  9.000E+00
      25     1     1     2     0     0  3.937662142E+01 -1.585924861E+01  2.328911744E+02  2.677038162E+02  1.250000000E+02  0.00000E+00  9.000E+00
      25     1     1     2     0     0 -2.680230104E+01  1.497842780E+01 -2.589797876E+01  1.312951711E+02  1.250000000E+02  0.00000E+00  9.000E+00
      21     1     1     2   511   501 -1.257432039E+01  8.808208145E-01  2.376663686E+00  1.282723309E+01  5.960464478E-08  0.00000E+00  9.000E+00
#rwgt            1           1   3.8640869583970693E-002          10      131001           0
</event>
<event>
      5   9999  3.79277E-02  9.10644E+00 -1.00000E+00  2.00577E-01
      21    -1     0     0   502   501  0.000000000E+00  0.000000000E+00  8.456242275E+01  8.456242275E+01  0.000000000E+00  0.00000E+00  9.000E+00
      21    -1     0     0   512   502  0.000000000E+00  0.000000000E+00 -4.043882966E+02  4.043882966E+02  0.000000000E+00  0.00000E+00  9.000E+00
      25     1     1     2     0     0  1.867494803E+01 -4.361588515E+01 -2.617408849E+02  2.939122147E+02  1.250000000E+02  0.00000E+00  9.000E+00
      25     1     1     2     0     0 -1.733581066E+01  5.262332604E+01 -4.915879708E-01  1.367296107E+02  1.250000000E+02  0.00000E+00  9.000E+00
      21     1     1     2   512   501 -1.339137367E+00 -9.007440888E+00 -5.759340099E+01  5.830889398E+01  6.743495762E-07  0.00000E+00  9.000E+00
#rwgt            1           1   5.0494851182043651E-002          10      131203           0
</event>
<event>
      5   9999  3.79277E-02  3.73619E+01 -1.00000E+00  1.46702E-01
      21    -1     0     0   502   501  0.000000000E+00  0.000000000E+00  6.010096310E+01  6.010096310E+01  0.000000000E+00  0.00000E+00  9.000E+00
       2    -1     0     0   501     0  0.000000000E+00  0.000000000E+00 -1.740436788E+03  1.740436788E+03  0.000000000E+00  0.00000E+00  9.000E+00
      25     1     1     2     0     0 -5.828113960E+01 -8.127161864E+01 -3.528987369E+02  3.875103685E+02  1.250000000E+02  0.00000E+00  9.000E+00
      25     1     1     2     0     0  9.399387572E+01  9.224954987E+01 -1.514486850E+02  2.364456223E+02  1.250000000E+02  0.00000E+00  9.000E+00
       2     1     1     2   502     0 -3.571273611E+01 -1.097793122E+01 -1.175988403E+03  1.176581760E+03  0.000000000E+00  0.00000E+00  9.000E+00
#rwgt            1           1   3.4197363672264613E-002          10      131679           0
</event>
<event>
      5   9999  3.79277E-02  3.40472E+01 -1.00000E+00  1.49318E-01
      21    -1     0     0   502   501  0.000000000E+00  0.000000000E+00  3.241252613E+02  3.241252613E+02  0.000000000E+00  0.00000E+00  9.000E+00
      21    -1     0     0   511   502  0.000000000E+00  0.000000000E+00 -7.147526531E+02  7.147526531E+02  0.000000000E+00  0.00000E+00  9.000E+00
      25     1     1     2     0     0 -3.671709589E+02  2.173887029E+02 -2.038783867E+02  4.891459473E+02  1.250000000E+02  0.00000E+00  9.000E+00
      25     1     1     2     0     0  3.968684725E+02 -2.340401652E+02 -1.518160442E+02  5.009515892E+02  1.250000000E+02  0.00000E+00  9.000E+00
      21     1     1     2   511   501 -2.969751362E+01  1.665146228E+01 -3.493296088E+01  4.878037789E+01  4.768371582E-07  0.00000E+00  9.000E+00
#rwgt            2          11   1.2000704567884624E-002          10      132019           0
</event>
<event>
      5   9999  3.79277E-02  4.03506E+01 -1.00000E+00  1.44605E-01
      21    -1     0     0   512   501  0.000000000E+00  0.000000000E+00  2.216009753E+02  2.216009753E+02  0.000000000E+00  0.00000E+00  9.000E+00
      21    -1     0     0   501   502  0.000000000E+00  0.000000000E+00 -2.707998561E+02  2.707998561E+02  0.000000000E+00  0.00000E+00  9.000E+00
      25     1     1     2     0     0 -1.603824184E+01  9.751342825E+01  1.306345430E+02  2.060496972E+02  1.250000000E+02  0.00000E+00  9.000E+00
      25     1     1     2     0     0 -2.195502468E+01 -8.392355043E+01 -1.912746068E+02  2.444098211E+02  1.250000000E+02  0.00000E+00  9.000E+00
      21     1     1     2   512   502  3.799326652E+01 -1.358987782E+01  1.144118298E+01  4.194131314E+01  7.725644944E-07  0.00000E+00  9.000E+00
#rwgt            1           1   3.7470391744832902E-002          10      132054           0
</event>
<event>
      5   9999  3.79277E-02  3.54656E+01 -1.00000E+00  1.48157E-01
      21    -1     0     0   502   501  0.000000000E+00  0.000000000E+00  2.989683638E+02  2.989683638E+02  0.000000000E+00  0.00000E+00  9.000E+00
      21    -1     0     0   511   502  0.000000000E+00  0.000000000E+00 -1.562032977E+02  1.562032977E+02  0.000000000E+00  0.00000E+00  9.000E+00
      25     1     1     2     0     0  9.545446416E+01  1.207944597E+02  5.179912198E+01  2.049658637E+02  1.250000000E+02  0.00000E+00  9.000E+00
      25     1     1     2     0     0 -6.329458968E+01 -1.357459887E+02  8.969635694E+01  2.147175237E+02  1.250000000E+02  0.00000E+00  9.000E+00
      21     1     1     2   511   501 -3.215987448E+01  1.495152899E+01  1.269587165E+00  3.548827408E+01  1.504943511E-07  0.00000E+00  9.000E+00
#rwgt            1           1   3.1859999086978480E-002          10      132170           0
</event>
<event>
      5   9999  3.79277E-02  8.27664E+01 -1.00000E+00  1.27639E-01
      21    -1     0     0   512   501  0.000000000E+00  0.000000000E+00  2.707822877E+02  2.707822877E+02  0.000000000E+00  0.00000E+00  9.000E+00
      21    -1     0     0   501   502  0.000000000E+00  0.000000000E+00 -3.321666177E+02  3.321666177E+02  0.000000000E+00  0.00000E+00  9.000E+00
      25     1     1     2     0     0  2.250019322E+02  7.487578886E+01 -1.228227082E+02  2.948604261E+02  1.250000000E+02  0.00000E+00  9.000E+00
      25     1     1     2     0     0 -1.785132818E+02 -6.398889811E+00  5.624814828E+01  2.251594807E+02  1.250000000E+02  0.00000E+00  9.000E+00
      21     1     1     2   512   502 -4.648865041E+01 -6.847689905E+01  5.190229976E+00  8.292899860E+01  7.202056631E-07  0.00000E+00  9.000E+00
#rwgt            2          11   3.2338747429722053E-003          10      132292           0
</event>
<event>
      5   9999  3.79277E-02  1.28627E+02 -1.00000E+00  1.19102E-01
      21    -1     0     0   502   501  0.000000000E+00  0.000000000E+00  1.029369881E+02  1.029369881E+02  0.000000000E+00  0.00000E+00  9.000E+00
      21    -1     0     0   501   511  0.000000000E+00  0.000000000E+00 -1.133881877E+03  1.133881877E+03  0.000000000E+00  0.00000E+00  9.000E+00
      25     1     1     2     0     0 -1.829716732E-01 -2.217992066E+01  2.493113161E+01  1.293775239E+02  1.250000000E+02  0.00000E+00  9.000E+00
      25     1     1     2     0     0  5.765830016E+01  1.372517952E+02 -4.904359391E+02  5.275556323E+02  1.250000000E+02  0.00000E+00  9.000E+00
      21     1     1     2   502   511 -5.747532849E+01 -1.150718745E+02 -5.654400817E+02  5.798857092E+02  0.000000000E+00  0.00000E+00  9.000E+00
#rwgt            1           1   3.8205064523021283E-002          10      132372           0
</event>
<event>
      5   9999  3.79277E-02  1.42994E+01 -1.00000E+00  1.79363E-01
      21    -1     0     0   502   501  0.000000000E+00  0.000000000E+00  4.016127024E+02  4.016127024E+02  0.000000000E+00  0.00000E+00  9.000E+00
      21    -1     0     0   512   502  0.000000000E+00  0.000000000E+00 -1.188670901E+02  1.188670901E+02  0.000000000E+00  0.00000E+00  9.000E+00
      25     1     1     2     0     0 -4.124353477E+01 -1.444175759E+02  2.122044877E+02  2.884669998E+02  1.250000000E+02  0.00000E+00  9.000E+00
      25     1     1     2     0     0  5.019834514E+01  1.555658308E+02  7.105941680E+01  2.177040245E+02  1.250000000E+02  0.00000E+00  9.000E+00
      21     1     1     2   512   501 -8.954810373E+00 -1.114825497E+01 -5.182921897E-01  1.430876810E+01  1.890745393E-07  0.00000E+00  9.000E+00
#rwgt            1           1   3.9772725941550874E-002          10      132466           0
</event>
<event>
      5   9999  3.79277E-02  3.59265E+01 -1.00000E+00  1.47794E-01
      21    -1     0     0   502   501  0.000000000E+00  0.000000000E+00  9.497880199E+01  9.497880199E+01  0.000000000E+00  0.00000E+00  9.000E+00
      -1    -1     0     0     0   502  0.000000000E+00  0.000000000E+00 -6.374082385E+02  6.374082385E+02  0.000000000E+00  0.00000E+00  9.000E+00
      25     1     1     2     0     0  1.332655272E+02 -1.582464915E+02 -2.476277010E+02  3.460435393E+02  1.250000000E+02  0.00000E+00  9.000E+00
      25     1     1     2     0     0 -1.071630948E+02  1.335609732E+02 -2.668908908E+02  3.408492483E+02  1.250000000E+02  0.00000E+00  9.000E+00
      -1     1     1     2     0   501 -2.610243238E+01  2.468551835E+01 -2.791084468E+01  4.549425286E+01  3.371747881E-07  0.00000E+00  9.000E+00
#rwgt            1           1   3.9003619430127416E-002          10      132671           0
</event>
<event>
      5   9999  3.79277E-02  3.70832E+01 -1.00000E+00  1.46909E-01
       2    -1     0     0   502     0  0.000000000E+00  0.000000000E+00  1.491703800E+03  1.491703800E+03  0.000000000E+00  0.00000E+00  9.000E+00
      21    -1     0     0   501   502  0.000000000E+00  0.000000000E+00 -2.348921886E+02  2.348921886E+02  0.000000000E+00  0.00000E+00  9.000E+00
      25     1     1     2     0     0  1.560431345E+02  1.770406124E+02 -5.600927822E+01  2.728642108E+02  1.250000000E+02  0.00000E+00  9.000E+00
      25     1     1     2     0     0 -1.743696221E+02 -1.448023276E+02  1.685927664E+02  3.089028975E+02  1.250000000E+02  0.00000E+00  9.000E+00
       2     1     1     2   501     0  1.832648765E+01 -3.223828484E+01  1.144228123E+03  1.144828880E+03  0.000000000E+00  0.00000E+00  9.000E+00
#rwgt            1           1   3.9594569093821488E-002          10      132801           0
</event>
<event>
      5   9999  3.79277E-02  2.69460E+02 -1.00000E+00  1.07129E-01
      21    -1     0     0   502   501  0.000000000E+00  0.000000000E+00  2.447076518E+02  2.447076518E+02  0.000000000E+00  0.00000E+00  9.000E+00
       1    -1     0     0   501     0  0.000000000E+00  0.000000000E+00 -1.198162308E+03  1.198162308E+03  0.000000000E+00  0.00000E+00  9.000E+00
      25     1     1     2     0     0  1.710832902E+02  8.895927942E+01 -1.712431872E+02  2.865876389E+02  1.250000000E+02  0.00000E+00  9.000E+00
      25     1     1     2     0     0  6.258499810E+01  4.523363184E+01  1.354746627E+02  1.998533154E+02  1.250000000E+02  0.00000E+00  9.000E+00
       1     1     1     2   502     0 -2.336682883E+02 -1.341929113E+02 -9.176861321E+02  9.564290059E+02  1.078959322E-05  0.00000E+00  9.000E+00
#rwgt            1           1   4.3136431417773742E-002          10      132891           0
</event>
<event>
      5   9999  3.79277E-02  2.67486E+01 -1.00000E+00  1.56583E-01
      21    -1     0     0   502   501  0.000000000E+00  0.000000000E+00  9.732960858E+01  9.732960858E+01  0.000000000E+00  0.00000E+00  9.000E+00
       2    -1     0     0   501     0  0.000000000E+00  0.000000000E+00 -1.157193383E+03  1.157193383E+03  0.000000000E+00  0.00000E+00  9.000E+00
      25     1     1     2     0     0 -2.009920685E+02 -1.350851296E+02 -1.874041340E+02  3.307432740E+02  1.250000000E+02  0.00000E+00  9.000E+00
      25     1     1     2     0     0  1.977492429E+02  1.085337824E+02 -6.433686608E+02  6.931324395E+02  1.250000000E+02  0.00000E+00  9.000E+00
       2     1     1     2   502     0  3.242825582E+00  2.655134729E+01 -2.290909795E+02  2.306472780E+02  2.697398305E-06  0.00000E+00  9.000E+00
#rwgt            1           1   3.9626093982814928E-002          10      132947           0
</event>
<event>
      5   9999  3.79277E-02  5.63704E+01 -1.00000E+00  1.36168E-01
      21    -1     0     0   502   501  0.000000000E+00  0.000000000E+00  3.490002001E+01  3.490002001E+01  0.000000000E+00  0.00000E+00  9.000E+00
      21    -1     0     0   501   511  0.000000000E+00  0.000000000E+00 -1.273145515E+03  1.273145515E+03  0.000000000E+00  0.00000E+00  9.000E+00
      25     1     1     2     0     0 -7.143394791E+01 -1.101294107E+01 -8.655630325E+02  8.775240492E+02  1.250000000E+02  0.00000E+00  9.000E+00
      25     1     1     2     0     0  4.543957350E+01  6.103209164E+01 -1.930106252E+02  2.422143111E+02  1.250000000E+02  0.00000E+00  9.000E+00
      21     1     1     2   502   511  2.599437441E+01 -5.001915056E+01 -1.796718372E+02  1.883071747E+02  3.303624740E-06  0.00000E+00  9.000E+00
#rwgt            1           1   5.1308828882071000E-002          10      133128           0
</event>
<event>
      5   9999  3.79277E-02  2.52373E+01 -1.00000E+00  1.58444E-01
      21    -1     0     0   512   501  0.000000000E+00  0.000000000E+00  9.886006009E+01  9.886006009E+01  0.000000000E+00  0.00000E+00  9.000E+00
      21    -1     0     0   501   502  0.000000000E+00  0.000000000E+00 -4.311927341E+02  4.311927341E+02  0.000000000E+00  0.00000E+00  9.000E+00
      25     1     1     2     0     0 -1.257179913E+02 -5.598404607E+01 -2.249591147E+02  2.918404188E+02  1.250000000E+02  0.00000E+00  9.000E+00
      25     1     1     2     0     0  1.120326607E+02  7.718858927E+01 -1.058510715E+02  2.129292012E+02  1.250000000E+02  0.00000E+00  9.000E+00
      21     1     1     2   512   502  1.368533061E+01 -2.120454320E+01 -1.522487790E+00  2.528317415E+01  6.226474767E-07  0.00000E+00  9.000E+00
#rwgt            1           1   3.2876367680850609E-002          10      133279           0
</event>
<event>
      5   9999  3.79277E-02  2.35462E+01 -1.00000E+00  1.60725E-01
      21    -1     0     0   502   501  0.000000000E+00  0.000000000E+00  9.753495479E+01  9.753495479E+01  0.000000000E+00  0.00000E+00  9.000E+00
      21    -1     0     0   511   502  0.000000000E+00  0.000000000E+00 -1.212669500E+03  1.212669500E+03  0.000000000E+00  0.00000E+00  9.000E+00
      25     1     1     2     0     0  9.522711991E+01 -9.156042928E+01 -2.224979816E+01  1.832254625E+02  1.250000000E+02  0.00000E+00  9.000E+00
      25     1     1     2     0     0 -7.328983321E+01  8.300582687E+01 -3.969450441E+02  4.306410744E+02  1.250000000E+02  0.00000E+00  9.000E+00
      21     1     1     2   511   501 -2.193728671E+01  8.554602406E+00 -6.959397028E+02  6.963379177E+02  0.000000000E+00  0.00000E+00  9.000E+00
#rwgt            1           1   3.5266351914271521E-002          10      133469           0
</event>
<event>
      5   9999  3.79277E-02  9.77660E+00 -1.00000E+00  1.96898E-01
      21    -1     0     0   502   501  0.000000000E+00  0.000000000E+00  3.488051642E+02  3.488051642E+02  0.000000000E+00  0.00000E+00  9.000E+00
      21    -1     0     0   512   502  0.000000000E+00  0.000000000E+00 -1.427432448E+02  1.427432448E+02  0.000000000E+00  0.00000E+00  9.000E+00
      25     1     1     2     0     0 -7.041060130E+01  1.648526704E+02  8.753237932E+01  2.354165949E+02  1.250000000E+02  0.00000E+00  9.000E+00
      25     1     1     2     0     0  6.079969012E+01 -1.666449669E+02  1.158500331E+02  2.459946696E+02  1.250000000E+02  0.00000E+00  9.000E+00
      21     1     1     2   512   501  9.610911178E+00  1.792296432E+00  2.679507035E+00  1.013714448E+01  2.980232239E-08  0.00000E+00  9.000E+00
#rwgt            1           1   4.4753211549352516E-002          10      133703           0
</event>
<event>
      5   9999  3.79277E-02  2.49851E+01 -1.00000E+00  1.58770E-01
      21    -1     0     0   502   501  0.000000000E+00  0.000000000E+00  3.555819795E+02  3.555819795E+02  0.000000000E+00  0.00000E+00  9.000E+00
      21    -1     0     0   501   511  0.000000000E+00  0.000000000E+00 -2.053034953E+02  2.053034953E+02  0.000000000E+00  0.00000E+00  9.000E+00
      25     1     1     2     0     0 -1.555584025E+02 -9.117773964E+00 -8.578115745E+01  2.174050537E+02  1.250000000E+02  0.00000E+00  9.000E+00
      25     1     1     2     0     0  1.321180728E+02  1.776669697E+01  2.538656974E+02  3.127996691E+02  1.250000000E+02  0.00000E+00  9.000E+00
      21     1     1     2   502   511  2.344032970E+01 -8.648923002E+00 -1.780605574E+01  3.068075205E+01  2.384185791E-07  0.00000E+00  9.000E+00
#rwgt            1           1   9.0831787343885292E-002          10      134007           0
</event>
<event>
      5   9999  3.79277E-02  1.63789E+01 -1.00000E+00  1.73859E-01
      21    -1     0     0   502   512  0.000000000E+00  0.000000000E+00  1.033306293E+02  1.033306293E+02  0.000000000E+00  0.00000E+00  9.000E+00
      21    -1     0     0   501   502  0.000000000E+00  0.000000000E+00 -5.284859892E+02  5.284859892E+02  0.000000000E+00  0.00000E+00  9.000E+00
      25     1     1     2     0     0  4.864515435E+01  1.227286456E+02 -3.948787598E+02  4.347216425E+02  1.250000000E+02  0.00000E+00  9.000E+00
      25     1     1     2     0     0 -6.024394986E+01 -1.111641574E+02 -2.339715386E+01  1.793299478E+02  1.250000000E+02  0.00000E+00  9.000E+00
      21     1     1     2   501   512  1.159879551E+01 -1.156448826E+01 -6.879446348E+00  1.776502823E+01  0.000000000E+00  0.00000E+00  9.000E+00
#rwgt            1           1   4.5516626099029581E-002          10      134141           0
</event>
<event>
      5   9999  3.79277E-02  2.35704E+01 -1.00000E+00  1.60690E-01
      21    -1     0     0   502   501  0.000000000E+00  0.000000000E+00  1.165315294E+02  1.165315294E+02  0.000000000E+00  0.00000E+00  9.000E+00
      21    -1     0     0   511   502  0.000000000E+00  0.000000000E+00 -4.246196092E+02  4.246196092E+02  0.000000000E+00  0.00000E+00  9.000E+00
      25     1     1     2     0     0 -6.838105348E+01  1.191680516E+02 -1.306087304E+01  1.862057448E+02  1.250000000E+02  0.00000E+00  9.000E+00
      25     1     1     2     0     0  4.611475513E+01 -1.114364450E+02 -2.563884439E+02  3.096848173E+02  1.250000000E+02  0.00000E+00  9.000E+00
      21     1     1     2   511   501  2.226629835E+01 -7.731606556E+00 -3.863876284E+01  4.526057640E+01  4.768371582E-07  0.00000E+00  9.000E+00
#rwgt            1           1   4.8431942135932528E-002          10      134429           0
</event>
<event>
      5   9999  3.79277E-02  5.10403E+01 -1.00000E+00  1.38567E-01
      21    -1     0     0   502   512  0.000000000E+00  0.000000000E+00  1.033025041E+02  1.033025041E+02  0.000000000E+00  0.00000E+00  9.000E+00
      21    -1     0     0   501   502  0.000000000E+00  0.000000000E+00 -2.113655685E+03  2.113655685E+03  0.000000000E+00  0.00000E+00  9.000E+00
      25     1     1     2     0     0 -1.662667729E+00 -4.887442424E+01 -3.441421290E+02  3.693917687E+02  1.250000000E+02  0.00000E+00  9.000E+00
      25     1     1     2     0     0  1.032964611E+01 -1.424596800E+00 -1.747275511E+03  1.751772086E+03  1.250000000E+02  0.00000E+00  9.000E+00
      21     1     1     2   501   512 -8.666978377E+00  5.029902103E+01  8.106445882E+01  9.579433446E+01  3.015782986E-06  0.00000E+00  9.000E+00
#rwgt            1           1   9.6939793883060094E-002          10      134604           0
</event>
<event>
      5   9999  3.79277E-02  1.73372E+02 -1.00000E+00  1.13955E-01
      21    -1     0     0   502   501  0.000000000E+00  0.000000000E+00  2.171010427E+03  2.171010427E+03  0.000000000E+00  0.00000E+00  9.000E+00
       3    -1     0     0   501     0  0.000000000E+00  0.000000000E+00 -3.928237821E+02  3.928237821E+02  0.000000000E+00  0.00000E+00  9.000E+00
      25     1     1     2     0     0  2.595367693E+02 -2.279193486E+02  1.324111721E+03  1.374119141E+03  1.250000000E+02  0.00000E+00  9.000E+00
      25     1     1     2     0     0 -1.006386466E+02  1.585712303E+02  7.846477734E+02  8.164374444E+02  1.250000000E+02  0.00000E+00  9.000E+00
       3     1     1     2   502     0 -1.588981227E+02  6.934811828E+01 -3.305728499E+02  3.732776232E+02  1.009274029E-05  0.00000E+00  9.000E+00
#rwgt            1           1   7.7077112042464119E-002          10      134649           0
</event>
<event>
      5   9999  3.79277E-02  3.62321E+01 -1.00000E+00  1.47556E-01
      21    -1     0     0   502   501  0.000000000E+00  0.000000000E+00  4.110920544E+02  4.110920544E+02  0.000000000E+00  0.00000E+00  9.000E+00
      21    -1     0     0   511   502  0.000000000E+00  0.000000000E+00 -1.531756164E+02  1.531756164E+02  0.000000000E+00  0.00000E+00  9.000E+00
      25     1     1     2     0     0 -1.111920726E+02 -1.660307578E+02  2.096314787E+02  3.154365965E+02  1.250000000E+02  0.00000E+00  9.000E+00
      25     1     1     2     0     0  8.256313490E+01  1.438237836E+02  3.750956424E+01  2.110306124E+02  1.250000000E+02  0.00000E+00  9.000E+00
      21     1     1     2   511   501  2.862893771E+01  2.220697425E+01  1.077539513E+01  3.780046190E+01  5.057621821E-07  0.00000E+00  9.000E+00
#rwgt            1           1   4.0293788383391808E-002          10      134708           0
</event>
<event>
      5   9999  3.79277E-02  7.38126E+01 -1.00000E+00  1.30065E-01
      21    -1     0     0   502   512  0.000000000E+00  0.000000000E+00  5.811292349E+02  5.811292349E+02  0.000000000E+00  0.00000E+00  9.000E+00
      21    -1     0     0   501   502  0.000000000E+00  0.000000000E+00 -9.822260640E+01  9.822260640E+01  0.000000000E+00  0.00000E+00  9.000E+00
      25     1     1     2     0     0 -1.264693696E+02  3.893319804E+01  1.339866183E+02  2.260259039E+02  1.250000000E+02  0.00000E+00  9.000E+00
      25     1     1     2     0     0  7.688669683E+01  1.574646550E+01  6.733960601E+01  1.622317412E+02  1.250000000E+02  0.00000E+00  9.000E+00
      21     1     1     2   501   512  4.958267272E+01 -5.467966354E+01  2.815804041E+02  2.910941961E+02  3.814697266E-06  0.00000E+00  9.000E+00
#rwgt            1           1   4.1742391753383373E-002          10      134851           0
</event>
<event>
      5   9999  3.79277E-02  5.62811E+01 -1.00000E+00  1.36205E-01
      21    -1     0     0   502   501  0.000000000E+00  0.000000000E+00  5.163151607E+02  5.163151607E+02  0.000000000E+00  0.00000E+00  9.000E+00
      21    -1     0     0   501   511  0.000000000E+00  0.000000000E+00 -1.651998841E+02  1.651998841E+02  0.000000000E+00  0.00000E+00  9.000E+00
      25     1     1     2     0     0 -1.716393388E+02  1.368109035E+02  2.387220852E+02  3.475493057E+02  1.250000000E+02  0.00000E+00  9.000E+00
      25     1     1     2     0     0  2.061045846E+02 -9.231701308E+01  9.519440182E+01  2.751154391E+02  1.250000000E+02  0.00000E+00  9.000E+00
      21     1     1     2   502   511 -3.446524585E+01 -4.449389037E+01  1.719878958E+01  5.885030004E+01  1.092571186E-06  0.00000E+00  9.000E+00
#rwgt            1           1   4.3402835505903729E-002          10      134899           0
</event>
<event>
      5   9999  3.79277E-02  3.15540E+01 -1.00000E+00  1.51532E-01
      21    -1     0     0   502   512  0.000000000E+00  0.000000000E+00  5.835770590E+02  5.835770590E+02  0.000000000E+00  0.00000E+00  9.000E+00
      21    -1     0     0   501   502  0.000000000E+00  0.000000000E+00 -5.547490197E+01  5.547490197E+01  0.000000000E+00  0.00000E+00  9.000E+00
      25     1     1     2     0     0  9.054240135E+01  1.023592025E+01  3.489583521E+02  3.817062116E+02  1.250000000E+02  0.00000E+00  9.000E+00
      25     1     1     2     0     0 -7.406479222E+01  1.667400187E+01  1.156727350E+02  1.864639306E+02  1.250000000E+02  0.00000E+00  9.000E+00
      21     1     1     2   501   512 -1.647760913E+01 -2.690992213E+01  6.347106992E+01  7.088181875E+01  9.536743164E-07  0.00000E+00  9.000E+00
#rwgt            1           1   3.6850294113988893E-002          10      135004           0
</event>
<event>
      5   9999  3.79277E-02  9.33390E+01 -1.00000E+00  1.25190E-01
      21    -1     0     0   511   501  0.000000000E+00  0.000000000E+00  1.257260398E+02  1.257260398E+02  0.000000000E+00  0.00000E+00  9.000E+00
      21    -1     0     0   501   502  0.000000000E+00  0.000000000E+00 -1.512047635E+03  1.512047635E+03  0.000000000E+00  0.00000E+00  9.000E+00
      25     1     1     2     0     0 -1.160647031E+02  5.962523300E+01 -2.978012585E+02  3.483342838E+02  1.250000000E+02  0.00000E+00  9.000E+00
      25     1     1     2     0     0  1.679684392E+02  1.795165727E+01 -1.155564736E+03  1.174517142E+03  1.250000000E+02  0.00000E+00  9.000E+00
      21     1     1     2   511   502 -5.190373606E+01 -7.757689027E+01  6.704439943E+01  1.149222486E+02  5.642013343E-06  0.00000E+00  9.000E+00
#rwgt            1           1   4.0559382994875527E-002          10      135147           0
</event>
<event>
      5   9999  3.79277E-02  1.64523E+02 -1.00000E+00  1.14825E-01
      21    -1     0     0   502   501  0.000000000E+00  0.000000000E+00  9.961477310E+02  9.961477310E+02  0.000000000E+00  0.00000E+00  9.000E+00
       1    -1     0     0   501     0  0.000000000E+00  0.000000000E+00 -6.497409254E+02  6.497409254E+02  0.000000000E+00  0.00000E+00  9.000E+00
      25     1     1     2     0     0 -1.208842470E+02 -4.012651892E+02  7.066697425E+02  8.310438485E+02  1.250000000E+02  0.00000E+00  9.000E+00
      25     1     1     2     0     0 -3.790247257E+00  2.939149226E+02  9.297463712E+01  3.326704538E+02  1.250000000E+02  0.00000E+00  9.000E+00
       1     1     1     2   502     0  1.246744942E+02  1.073502667E+02 -4.532375740E+02  4.821743541E+02  9.344061824E-06  0.00000E+00  9.000E+00
#rwgt            2          12   3.2516875373474614E-004          10      135310           0
</event>
<event>
      5   9999  3.79277E-02  1.18328E+02 -1.00000E+00  1.20627E-01
      21    -1     0     0   502   501  0.000000000E+00  0.000000000E+00  1.241222255E+03  1.241222255E+03  0.000000000E+00  0.00000E+00  9.000E+00
       2    -1     0     0   501     0  0.000000000E+00  0.000000000E+00 -6.805256129E+02  6.805256129E+02  0.000000000E+00  0.00000E+00  9.000E+00
      25     1     1     2     0     0  1.193479833E+02 -1.032026901E+02  6.553656284E+02  6.855828493E+02  1.250000000E+02  0.00000E+00  9.000E+00
      25     1     1     2     0     0 -9.600552054E+01 -1.280037861E+01  5.543419161E+02  5.764554360E+02  1.250000000E+02  0.00000E+00  9.000E+00
       2     1     1     2   502     0 -2.334246271E+01  1.160030687E+02 -6.490109022E+02  6.597095828E+02  1.078959322E-05  0.00000E+00  9.000E+00
#rwgt            1           1   4.4315801175723812E-002          10      135344           0
</event>
<event>
      5   9999  3.79277E-02  1.15612E+02 -1.00000E+00  1.21059E-01
      21    -1     0     0   502   501  0.000000000E+00  0.000000000E+00  1.888068467E+03  1.888068467E+03  0.000000000E+00  0.00000E+00  9.000E+00
      21    -1     0     0   511   502  0.000000000E+00  0.000000000E+00 -7.494040684E+01  7.494040684E+01  0.000000000E+00  0.00000E+00  9.000E+00
      25     1     1     2     0     0  1.287848197E+02 -7.546281892E+01  6.986180324E+02  7.252394929E+02  1.250000000E+02  0.00000E+00  9.000E+00
      25     1     1     2     0     0 -1.976744532E+02 -1.738267780E+01  1.095845936E+03  1.120660815E+03  1.250000000E+02  0.00000E+00  9.000E+00
      21     1     1     2   511   501  6.888963347E+01  9.284549672E+01  1.866409159E+01  1.171085658E+02  3.536319011E-06  0.00000E+00  9.000E+00
#rwgt            1           1   3.3656107319707862E-002          10      135516           0
</event>
<event>
      5   9999  3.79277E-02  3.38746E+01 -1.00000E+00  1.49464E-01
      21    -1     0     0   502   501  0.000000000E+00  0.000000000E+00  4.010605180E+01  4.010605180E+01  0.000000000E+00  0.00000E+00  9.000E+00
      21    -1     0     0   512   502  0.000000000E+00  0.000000000E+00 -1.217740530E+03  1.217740530E+03  0.000000000E+00  0.00000E+00  9.000E+00
      25     1     1     2     0     0  1.397598619E+02 -1.140726579E+01 -5.585914624E+02  5.893321360E+02  1.250000000E+02  0.00000E+00  9.000E+00
      25     1     1     2     0     0 -1.060732238E+02  7.843855342E+00 -2.573120039E+02  3.052007900E+02  1.250000000E+02  0.00000E+00  9.000E+00
      21     1     1     2   512   501 -3.368663803E+01  3.563410449E+00 -3.617310121E+02  3.633136560E+02  5.394796609E-06  0.00000E+00  9.000E+00
#rwgt            1           1   3.8573031856632210E-002          10      135670           0
</event>
<event>
      5   9999 -3.79277E-02  4.60991E+01 -1.00000E+00  1.41119E-01
       2    -1     0     0   502     0  0.000000000E+00  0.000000000E+00  2.659890695E+02  2.659890695E+02  0.000000000E+00  0.00000E+00  9.000E+00
      21    -1     0     0   501   502  0.000000000E+00  0.000000000E+00 -2.318632895E+02  2.318632895E+02  0.000000000E+00  0.00000E+00  9.000E+00
      25     1     1     2     0     0 -7.446030369E+01  1.339722149E+02 -6.612487627E+01  2.085434977E+02  1.250000000E+02  0.00000E+00  9.000E+00
      25     1     1     2     0     0  5.547179322E+01 -1.759789307E+02  6.787174567E+01  2.329748436E+02  1.250000000E+02  0.00000E+00  9.000E+00
       2     1     1     2   501     0  1.898851047E+01  4.200671579E+01  3.237891061E+01  5.633401773E+01  8.259061849E-07  0.00000E+00  9.000E+00
#rwgt            1           1  -2.3768187627154318E-002          10      135750           0
</event>
<event>
      5   9999  3.79277E-02  3.66589E+01 -1.00000E+00  1.47229E-01
      21    -1     0     0   502   501  0.000000000E+00  0.000000000E+00  4.743748815E+02  4.743748815E+02  0.000000000E+00  0.00000E+00  9.000E+00
       1    -1     0     0   501     0  0.000000000E+00  0.000000000E+00 -2.544720667E+02  2.544720667E+02  0.000000000E+00  0.00000E+00  9.000E+00
      25     1     1     2     0     0 -1.979857567E+01  8.600887353E+01  3.387195026E+02  3.716791780E+02  1.250000000E+02  0.00000E+00  9.000E+00
      25     1     1     2     0     0 -6.676375775E+00 -1.113654031E+02  5.745538796E+01  1.771241051E+02  1.250000000E+02  0.00000E+00  9.000E+00
       1     1     1     2   502     0  2.647495144E+01  2.535652962E+01 -1.762720757E+02  1.800436651E+02  2.697398305E-06  0.00000E+00  9.000E+00
#rwgt            1           1   3.8591577353492446E-002          10      135841           0
</event>
<event>
      5   9999  3.79277E-02  1.03706E+01 -1.00000E+00  1.93948E-01
      21    -1     0     0   502   501  0.000000000E+00  0.000000000E+00  1.512453699E+02  1.512453699E+02  0.000000000E+00  0.00000E+00  9.000E+00
      21    -1     0     0   511   502  0.000000000E+00  0.000000000E+00 -3.235033290E+02  3.235033290E+02  0.000000000E+00  0.00000E+00  9.000E+00
      25     1     1     2     0     0 -1.717787285E+01 -1.374950656E+02  7.181719810E-01  1.866158839E+02  1.250000000E+02  0.00000E+00  9.000E+00
      25     1     1     2     0     0  2.616061260E+01  1.323124737E+02 -9.040368083E+01  2.049116733E+02  1.250000000E+02  0.00000E+00  9.000E+00
      21     1     1     2   511   501 -8.982739743E+00  5.182591852E+00 -8.257245025E+01  8.322114162E+01  9.536743164E-07  0.00000E+00  9.000E+00
#rwgt            1           1   3.6882623289805898E-002          10      136007           0
</event>
<event>
      5   9999  3.79277E-02  6.40663E+00 -1.00000E+00  2.21138E-01
      21    -1     0     0   512   501  0.000000000E+00  0.000000000E+00  2.176929625E+02  2.176929625E+02  0.000000000E+00  0.00000E+00  9.000E+00
      21    -1     0     0   501   502  0.000000000E+00  0.000000000E+00 -3.215854715E+02  3.215854715E+02  0.000000000E+00  0.00000E+00  9.000E+00
      25     1     1     2     0     0 -1.768387039E+02  1.362867831E+02 -1.098617840E+02  2.784611751E+02  1.250000000E+02  0.00000E+00  9.000E+00
      25     1     1     2     0     0  1.722465895E+02 -1.318194066E+02 -2.307195901E+00  2.503508871E+02  1.250000000E+02  0.00000E+00  9.000E+00
      21     1     1     2   512   502  4.592114454E+00 -4.467376541E+00  8.276470928E+00  1.046637183E+01  1.192092896E-07  0.00000E+00  9.000E+00
#rwgt            1           1   4.2759105362088809E-002          10      136312           0
</event>
<event>
      5   9999  3.79277E-02  6.63036E+01 -1.00000E+00  1.32425E-01
      21    -1     0     0   502   501  0.000000000E+00  0.000000000E+00  1.068159399E+02  1.068159399E+02  0.000000000E+00  0.00000E+00  9.000E+00
      21    -1     0     0   501   511  0.000000000E+00  0.000000000E+00 -5.427838803E+02  5.427838803E+02  0.000000000E+00  0.00000E+00  9.000E+00
      25     1     1     2     0     0  4.338689736E+01 -4.896375314E+01  1.917952412E+01  1.423823238E+02  1.250000000E+02  0.00000E+00  9.000E+00
      25     1     1     2     0     0  1.791908235E+01  7.421725506E+01 -3.786059857E+02  4.059517051E+02  1.250000000E+02  0.00000E+00  9.000E+00
      21     1     1     2   502   511 -6.130597971E+01 -2.525350192E+01 -7.654147878E+01  1.012657913E+02  1.348699152E-06  0.00000E+00  9.000E+00
#rwgt            1           1   4.3936384123224669E-002          10      136606           0
</event>
<event>
      5   9999  3.79277E-02  2.64471E+01 -1.00000E+00  1.56942E-01
      21    -1     0     0   502   501  0.000000000E+00  0.000000000E+00  2.657181268E+02  2.657181268E+02  0.000000000E+00  0.00000E+00  9.000E+00
      21    -1     0     0   501   512  0.000000000E+00  0.000000000E+00 -6.184137384E+02  6.184137384E+02  0.000000000E+00  0.00000E+00  9.000E+00
      25     1     1     2     0     0 -2.577248584E+02 -6.274798502E+01  1.120813041E+02  3.139213771E+02  1.250000000E+02  0.00000E+00  9.000E+00
      25     1     1     2     0     0  2.663140680E+02  3.773447069E+01 -4.525217165E+02  5.410618976E+02  1.250000000E+02  0.00000E+00  9.000E+00
      21     1     1     2   502   512 -8.589209606E+00  2.501351433E+01 -1.225519922E+01  2.914859051E+01  2.384185791E-07  0.00000E+00  9.000E+00
#rwgt            1           1   4.6857488499978547E-002          10      136740           0
</event>
<event>
      5   9999  3.79277E-02  2.09459E+01 -1.00000E+00  1.64730E-01
      21    -1     0     0   502   501  0.000000000E+00  0.000000000E+00  8.638834133E+01  8.638834133E+01  0.000000000E+00  0.00000E+00  9.000E+00
       1    -1     0     0   501     0  0.000000000E+00  0.000000000E+00 -4.666783040E+02  4.666783040E+02  0.000000000E+00  0.00000E+00  9.000E+00
      25     1     1     2     0     0  2.296793198E+01 -1.198111247E+02 -1.440265086E+02  2.263865426E+02  1.250000000E+02  0.00000E+00  9.000E+00
      25     1     1     2     0     0 -1.218156468E+01  1.018560810E+02 -1.028684664E+02  1.916506539E+02  1.250000000E+02  0.00000E+00  9.000E+00
       1     1     1     2   502     0 -1.078636730E+01  1.795504366E+01 -1.333949877E+02  1.350294488E+02  3.303624740E-06  0.00000E+00  9.000E+00
#rwgt            1           1   1.5540768407754788E-002          10      136925           0
</event>
<event>
      5   9999  3.79277E-02  1.15082E+01 -1.00000E+00  1.88959E-01
      21    -1     0     0   502   511  0.000000000E+00  0.000000000E+00  4.112509861E+02  4.112509861E+02  0.000000000E+00  0.00000E+00  9.000E+00
      21    -1     0     0   501   502  0.000000000E+00  0.000000000E+00 -1.266167343E+02  1.266167343E+02  0.000000000E+00  0.00000E+00  9.000E+00
      25     1     1     2     0     0  1.389262896E+02 -1.094242102E+02  1.657975227E+02  2.727416182E+02  1.250000000E+02  0.00000E+00  9.000E+00
      25     1     1     2     0     0 -1.373582065E+02  1.208250764E+02  1.000775829E+02  2.431182810E+02  1.250000000E+02  0.00000E+00  9.000E+00
      21     1     1     2   501   511 -1.568083133E+00 -1.140086612E+01  1.875914608E+01  2.200782121E+01  2.384185791E-07  0.00000E+00  9.000E+00
#rwgt            1           1   3.0925919132912653E-002          10      137148           0
</event>
<event>
      5   9999  3.79277E-02  1.19943E+01 -1.00000E+00  1.87050E-01
      21    -1     0     0   502   501  0.000000000E+00  0.000000000E+00  2.772398222E+02  2.772398222E+02  0.000000000E+00  0.00000E+00  9.000E+00
      21    -1     0     0   512   502  0.000000000E+00  0.000000000E+00 -1.211480611E+02  1.211480611E+02  0.000000000E+00  0.00000E+00  9.000E+00
      25     1     1     2     0     0  6.565402729E+01  5.377094397E+01  1.273510919E+02  1.975982448E+02  1.250000000E+02  0.00000E+00  9.000E+00
      25     1     1     2     0     0 -5.500776868E+01 -5.929557906E+01  6.510546965E+01  1.624978230E+02  1.250000000E+02  0.00000E+00  9.000E+00
      21     1     1     2   512   501 -1.064625861E+01  5.524635097E+00 -3.636480052E+01  3.829181547E+01  4.768371582E-07  0.00000E+00  9.000E+00
#rwgt            1           1   3.1738193360507386E-002          10      137548           0
</event>
<event>
      5   9999  3.79277E-02  8.20290E+00 -1.00000E+00  2.06258E-01
      21    -1     0     0   502   511  0.000000000E+00  0.000000000E+00  1.249369470E+02  1.249369470E+02  0.000000000E+00  0.00000E+00  9.000E+00
      21    -1     0     0   501   502  0.000000000E+00  0.000000000E+00 -1.794271187E+02  1.794271187E+02  0.000000000E+00  0.00000E+00  9.000E+00
      25     1     1     2     0     0  9.934812106E+00  3.906593702E+01  2.168071262E+01  1.331161193E+02  1.250000000E+02  0.00000E+00  9.000E+00
      25     1     1     2     0     0 -1.741089360E+00 -3.867792750E+01 -8.738524189E+01  1.573537224E+02  1.250000000E+02  0.00000E+00  9.000E+00
      21     1     1     2   501   511 -8.193722746E+00 -3.880095258E-01  1.121435754E+01  1.389422394E+01  2.665600750E-07  0.00000E+00  9.000E+00
#rwgt            1           1   5.0121328302880234E-002          10      137874           0
</event>
<event>
      5   9999  3.79277E-02  1.23163E+02 -1.00000E+00  1.19891E-01
      21    -1     0     0   502   501  0.000000000E+00  0.000000000E+00  1.093337727E+03  1.093337727E+03  0.000000000E+00  0.00000E+00  9.000E+00
      21    -1     0     0   512   502  0.000000000E+00  0.000000000E+00 -6.836466464E+01  6.836466464E+01  0.000000000E+00  0.00000E+00  9.000E+00
      25     1     1     2     0     0 -2.171159298E+01  2.347353923E+01  7.402516470E+02  7.514119384E+02  1.250000000E+02  0.00000E+00  9.000E+00
      25     1     1     2     0     0 -8.888802918E+01  3.071928676E+01  9.170704955E+01  1.813282638E+02  1.250000000E+02  0.00000E+00  9.000E+00
      21     1     1     2   512   501  1.105996222E+02 -5.419282600E+01  1.930143662E+02  2.289621898E+02  2.697398305E-06  0.00000E+00  9.000E+00
#rwgt            1           1   3.1747369367871620E-002          10      138084           0
</event>
<event>
      5   9999  3.79277E-02  1.20612E+02 -1.00000E+00  1.20275E-01
      21    -1     0     0   502   501  0.000000000E+00  0.000000000E+00  8.205758207E+02  8.205758207E+02  0.000000000E+00  0.00000E+00  9.000E+00
      21    -1     0     0   511   502  0.000000000E+00  0.000000000E+00 -7.534533800E+02  7.534533800E+02  0.000000000E+00  0.00000E+00  9.000E+00
      25     1     1     2     0     0  1.145786561E+02  2.278143542E+02  2.663350341E+02  3.893417507E+02  1.250000000E+02  0.00000E+00  9.000E+00
      25     1     1     2     0     0 -9.617486053E+01 -1.086149295E+02  4.685222338E+02  5.061471034E+02  1.250000000E+02  0.00000E+00  9.000E+00
      21     1     1     2   511   501 -1.840379552E+01 -1.191994246E+02 -6.677348272E+02  6.785403467E+02  1.078959322E-05  0.00000E+00  9.000E+00
#rwgt            1           1   1.6497957698028285E-002          10      138122           0
</event>
<event>
      5   9999  3.79277E-02  1.19644E+01 -1.00000E+00  1.87164E-01
      21    -1     0     0   502   501  0.000000000E+00  0.000000000E+00  5.511860464E+02  5.511860464E+02  0.000000000E+00  0.00000E+00  9.000E+00
       1    -1     0     0   501     0  0.000000000E+00  0.000000000E+00 -7.951814884E+02  7.951814884E+02  0.000000000E+00  0.00000E+00  9.000E+00
      25     1     1     2     0     0 -1.215993574E+02  3.885749339E+01  2.482734575E+02  3.058774562E+02  1.250000000E+02  0.00000E+00  9.000E+00
      25     1     1     2     0     0  1.299027438E+02 -4.747154049E+01  2.423598499E+02  3.057639070E+02  1.250000000E+02  0.00000E+00  9.000E+00
       1     1     1     2   502     0 -8.303386459E+00  8.614047095E+00 -7.346287493E+02  7.347261716E+02  1.078959322E-05  0.00000E+00  9.000E+00
#rwgt            1           1   4.2565032354665154E-002          10      138170           0
</event>
<event>
      5   9999  3.79277E-02  1.39053E+02 -1.00000E+00  1.17713E-01
      21    -1     0     0   502   501  0.000000000E+00  0.000000000E+00  2.425382573E+02  2.425382573E+02  0.000000000E+00  0.00000E+00  9.000E+00
       2    -1     0     0   501     0  0.000000000E+00  0.000000000E+00 -1.398017392E+03  1.398017392E+03  0.000000000E+00  0.00000E+00  9.000E+00
      25     1     1     2     0     0 -9.592377069E+01  3.905602154E+01 -2.001740935E+02  2.577235152E+02  1.250000000E+02  0.00000E+00  9.000E+00
      25     1     1     2     0     0  2.104739900E+02 -1.178851016E+02  1.211114094E+02  2.974712946E+02  1.250000000E+02  0.00000E+00  9.000E+00
       2     1     1     2   502     0 -1.145502193E+02  7.882908004E+01 -1.076416450E+03  1.085360839E+03  1.525878906E-05  0.00000E+00  9.000E+00
#rwgt            1           1   4.7437053147709997E-002          10      138396           0
</event>
<event>
      5   9999 -3.79277E-02  6.98815E+01 -1.00000E+00  1.31258E-01
      21    -1     0     0   502   501  0.000000000E+00  0.000000000E+00  1.857276533E+02  1.857276533E+02  0.000000000E+00  0.00000E+00  9.000E+00
      21    -1     0     0   511   502  0.000000000E+00  0.000000000E+00 -4.072014487E+02  4.072014487E+02  0.000000000E+00  0.00000E+00  9.000E+00
      25     1     1     2     0     0 -1.229686058E+02  3.283711585E+01 -2.462152924E+02  3.040502005E+02  1.250000000E+02  0.00000E+00  9.000E+00
      25     1     1     2     0     0  1.565727006E+02  2.843426984E+01  5.937167781E+01  2.108874449E+02  1.250000000E+02  0.00000E+00  9.000E+00
      21     1     1     2   511   501 -3.360409480E+01 -6.127138569E+01 -3.463018078E+01  7.799145667E+01  1.168007728E-06  0.00000E+00  9.000E+00
#rwgt            1           1 -0.12311118723695200               10      138491           0
</event>
<event>
      5   9999  3.79277E-02  1.77259E+02 -1.00000E+00  1.13590E-01
      21    -1     0     0   502   501  0.000000000E+00  0.000000000E+00  4.413291695E+02  4.413291695E+02  0.000000000E+00  0.00000E+00  9.000E+00
      21    -1     0     0   512   502  0.000000000E+00  0.000000000E+00 -2.192188241E+02  2.192188241E+02  0.000000000E+00  0.00000E+00  9.000E+00
      25     1     1     2     0     0  1.105825033E+02  8.664592747E+01  9.770481184E+01  2.119132772E+02  1.250000000E+02  0.00000E+00  9.000E+00
      25     1     1     2     0     0 -8.826329771E+01  8.920231860E+01  1.898829283E+02  2.596690005E+02  1.250000000E+02  0.00000E+00  9.000E+00
      21     1     1     2   512   501 -2.231920556E+01 -1.758482461E+02 -6.547739474E+01  1.889657160E+02  3.162979880E-06  0.00000E+00  9.000E+00
#rwgt            1           1   4.2605952937032343E-002          10      138674           0
</event>
<event>
      5   9999 -3.79277E-02  4.98349E+01 -1.00000E+00  1.39158E-01
      21    -1     0     0   502   501  0.000000000E+00  0.000000000E+00  1.774635284E+02  1.774635284E+02  0.000000000E+00  0.00000E+00  9.000E+00
      21    -1     0     0   501   511  0.000000000E+00  0.000000000E+00 -4.353504136E+02  4.353504136E+02  0.000000000E+00  0.00000E+00  9.000E+00
      25     1     1     2     0     0 -2.126406885E+02 -2.651199000E+01 -1.711816138E+02  3.014085151E+02  1.250000000E+02  0.00000E+00  9.000E+00
      25     1     1     2     0     0  1.628873852E+02  2.936205354E+01  4.514559257E+00  2.074603858E+02  1.250000000E+02  0.00000E+00  9.000E+00
      21     1     1     2   502   511  4.975330333E+01 -2.850063541E+00 -9.121983060E+01  1.039450410E+02  0.000000000E+00  0.00000E+00  9.000E+00
#rwgt            1           1  -5.1948117101232559E-002          10      138920           0
</event>
<event>
      5   9999  3.79277E-02  1.27185E+01 -1.00000E+00  1.84411E-01
      21    -1     0     0   502   501  0.000000000E+00  0.000000000E+00  1.294664900E+02  1.294664900E+02  0.000000000E+00  0.00000E+00  9.000E+00
      21    -1     0     0   501   512  0.000000000E+00  0.000000000E+00 -4.858626088E+02  4.858626088E+02  0.000000000E+00  0.00000E+00  9.000E+00
      25     1     1     2     0     0  1.618077377E+02 -1.131144262E+02 -2.088194652E+02  3.133802586E+02  1.250000000E+02  0.00000E+00  9.000E+00
      25     1     1     2     0     0 -1.495876472E+02  1.166400971E+02 -9.226237704E+01  2.451911961E+02  1.250000000E+02  0.00000E+00  9.000E+00
      21     1     1     2   502   512 -1.222009058E+01 -3.525670825E+00 -5.531427663E+01  5.675764413E+01  6.743495762E-07  0.00000E+00  9.000E+00
#rwgt            1           1   3.8960095820544882E-002          10      139271           0
</event>
<event>
      5   9999  3.79277E-02  5.54704E+01 -1.00000E+00  1.36551E-01
      21    -1     0     0   502   501  0.000000000E+00  0.000000000E+00  1.715745121E+03  1.715745121E+03  0.000000000E+00  0.00000E+00  9.000E+00
      21    -1     0     0   501   511  0.000000000E+00  0.000000000E+00 -2.895438062E+02  2.895438062E+02  0.000000000E+00  0.00000E+00  9.000E+00
      25     1     1     2     0     0 -1.146671247E+01  1.016970384E+02  2.497655537E+02  2.974585768E+02  1.250000000E+02  0.00000E+00  9.000E+00
      25     1     1     2     0     0 -2.273918602E+01 -5.802878275E+01  1.435811544E+03  1.442589408E+03  1.250000000E+02  0.00000E+00  9.000E+00
      21     1     1     2   502   511  3.420589849E+01 -4.366825564E+01 -2.593757835E+02  2.652409417E+02  8.529922400E-06  0.00000E+00  9.000E+00
#rwgt            1           1   3.5656768729186349E-002          10      139479           0
</event>
<event>
      5   9999  3.79277E-02  5.80707E+00 -1.00000E+00  2.27699E-01
      21    -1     0     0   512   501  0.000000000E+00  0.000000000E+00  6.110061901E+02  6.110061901E+02  0.000000000E+00  0.00000E+00  9.000E+00
      21    -1     0     0   501   502  0.000000000E+00  0.000000000E+00 -7.202755674E+01  7.202755674E+01  0.000000000E+00  0.00000E+00  9.000E+00
      25     1     1     2     0     0  1.087288565E+02  4.046223372E+01  8.636866977E+01  1.911640754E+02  1.250000000E+02  0.00000E+00  9.000E+00
      25     1     1     2     0     0 -1.122017888E+02 -4.511635666E+01  3.676765174E+02  4.067379359E+02  1.250000000E+02  0.00000E+00  9.000E+00
      21     1     1     2   512   502  3.472932260E+00  4.654122944E+00  8.493344622E+01  8.513173559E+01  9.536743164E-07  0.00000E+00  9.000E+00
#rwgt            1           1   3.7192505627144601E-002          10      139644           0
</event>
<event>
      5   9999  3.79277E-02  3.43328E+01 -1.00000E+00  1.49079E-01
      21    -1     0     0   511   501  0.000000000E+00  0.000000000E+00  1.917917447E+02  1.917917447E+02  0.000000000E+00  0.00000E+00  9.000E+00
      21    -1     0     0   501   502  0.000000000E+00  0.000000000E+00 -6.389470852E+02  6.389470852E+02  0.000000000E+00  0.00000E+00  9.000E+00
      25     1     1     2     0     0 -1.387569917E+02  6.624157513E+00 -1.629911035E+02  2.479687118E+02  1.250000000E+02  0.00000E+00  9.000E+00
      25     1     1     2     0     0  1.429424249E+02  2.745254670E+01 -4.098201520E+02  4.525082719E+02  1.250000000E+02  0.00000E+00  9.000E+00
      21     1     1     2   511   502 -4.185433212E+00 -3.407670421E+01  1.256559149E+02  1.302618462E+02  3.015782986E-06  0.00000E+00  9.000E+00
#rwgt            1           1   4.3563369405299840E-002          10      139985           0
</event>
<event>
      5   9999  3.79277E-02  9.25988E+01 -1.00000E+00  1.25349E-01
      21    -1     0     0   502   501  0.000000000E+00  0.000000000E+00  2.356675238E+02  2.356675238E+02  0.000000000E+00  0.00000E+00  9.000E+00
       1    -1     0     0   501     0  0.000000000E+00  0.000000000E+00 -1.571007183E+03  1.571007183E+03  0.000000000E+00  0.00000E+00  9.000E+00
      25     1     1     2     0     0  3.304034445E+01 -6.091992764E+01  1.984321015E+02  2.445469298E+02  1.250000000E+02  0.00000E+00  9.000E+00
      25     1     1     2     0     0 -4.970007102E+01  1.520077573E+02 -1.102024004E+03  1.120561627E+03  1.250000000E+02  0.00000E+00  9.000E+00
       1     1     1     2   502     0  1.665972657E+01 -9.108782962E+01 -4.317477568E+02  4.415661499E+02  9.344061824E-06  0.00000E+00  9.000E+00
#rwgt            1           1   5.8804104003009706E-002          10      140098           0
</event>
<event>
      5   9999  3.79277E-02  9.25750E+01 -1.00000E+00  1.25354E-01
      21    -1     0     0   511   501  0.000000000E+00  0.000000000E+00  1.743430124E+02  1.743430124E+02  0.000000000E+00  0.00000E+00  9.000E+00
      21    -1     0     0   501   502  0.000000000E+00  0.000000000E+00 -7.055552261E+02  7.055552261E+02  0.000000000E+00  0.00000E+00  9.000E+00
      25     1     1     2     0     0 -1.987263293E+02 -1.196295148E+02 -4.405284871E+02  5.133163963E+02  1.250000000E+02  0.00000E+00  9.000E+00
      25     1     1     2     0     0  1.351313493E+02  1.869035993E+02 -7.339402801E+01  2.724061680E+02  1.250000000E+02  0.00000E+00  9.000E+00
      21     1     1     2   511   502  6.359497999E+01 -6.727408451E+01 -1.728969852E+01  9.417567415E+01  4.129530925E-07  0.00000E+00  9.000E+00
#rwgt            1           1  0.10610410027976727               10      140229           0
</event>
<event>
      5   9999  3.79277E-02  4.19498E+01 -1.00000E+00  1.43570E-01
      21    -1     0     0   512   501  0.000000000E+00  0.000000000E+00  1.333998586E+03  1.333998586E+03  0.000000000E+00  0.00000E+00  9.000E+00
      21    -1     0     0   501   502  0.000000000E+00  0.000000000E+00 -7.386797934E+01  7.386797934E+01  0.000000000E+00  0.00000E+00  9.000E+00
      25     1     1     2     0     0 -4.738161487E+01  8.659207955E+01  1.504346037E+02  2.190862288E+02  1.250000000E+02  0.00000E+00  9.000E+00
      25     1     1     2     0     0  8.575148793E+01 -1.035489671E+02  1.765670471E+02  2.547089091E+02  1.250000000E+02  0.00000E+00  9.000E+00
      21     1     1     2   512   502 -3.836987307E+01  1.695688756E+01  9.331289563E+02  9.340714278E+02  0.000000000E+00  0.00000E+00  9.000E+00
#rwgt            1           1   4.8691609641019588E-002          10      140346           0
</event>
<event>
      5   9999  3.79277E-02  9.96959E+01 -1.00000E+00  1.23887E-01
      21    -1     0     0   502   501  0.000000000E+00  0.000000000E+00  5.847560996E+02  5.847560996E+02  0.000000000E+00  0.00000E+00  9.000E+00
       2    -1     0     0   501     0  0.000000000E+00  0.000000000E+00 -1.598934725E+03  1.598934725E+03  0.000000000E+00  0.00000E+00  9.000E+00
      25     1     1     2     0     0  2.092345708E+02  2.494297204E+01  2.740012362E+02  3.675635114E+02  1.250000000E+02  0.00000E+00  9.000E+00
      25     1     1     2     0     0 -2.212596933E+02  7.402506220E+01  1.955258752E+02  3.290758721E+02  1.250000000E+02  0.00000E+00  9.000E+00
       2     1     1     2   502     0  1.202512253E+01 -9.896803424E+01 -1.483705737E+03  1.487051441E+03  2.157918644E-05  0.00000E+00  9.000E+00
#rwgt            1           1   3.4465666581253898E-002          10      140464           0
</event>
<event>
      5   9999  3.79277E-02  1.29454E+01 -1.00000E+00  1.83631E-01
      21    -1     0     0   502   501  0.000000000E+00  0.000000000E+00  1.117548870E+03  1.117548870E+03  0.000000000E+00  0.00000E+00  9.000E+00
      21    -1     0     0   501   511  0.000000000E+00  0.000000000E+00 -4.828592702E+01  4.828592702E+01  0.000000000E+00  0.00000E+00  9.000E+00
      25     1     1     2     0     0 -1.421038892E+02 -2.711265497E+01  6.206986685E+02  6.494770577E+02  1.250000000E+02  0.00000E+00  9.000E+00
      25     1     1     2     0     0  1.332062544E+02  3.651558176E+01  4.617307891E+02  4.978931768E+02  1.250000000E+02  0.00000E+00  9.000E+00
      21     1     1     2   502   511  8.897634781E+00 -9.402926791E+00 -1.316651501E+01  1.846456213E+01  6.529361695E-07  0.00000E+00  9.000E+00
#rwgt            1           1  0.10781281895480746               10      140561           0
</event>
<event>
      5   9999  3.79277E-02  2.37337E+01 -1.00000E+00  1.60460E-01
      21    -1     0     0   502   512  0.000000000E+00  0.000000000E+00  2.616119204E+02  2.616119204E+02  0.000000000E+00  0.00000E+00  9.000E+00
      21    -1     0     0   501   502  0.000000000E+00  0.000000000E+00 -4.762488135E+02  4.762488135E+02  0.000000000E+00  0.00000E+00  9.000E+00
      25     1     1     2     0     0  1.050932832E+02 -4.741596106E+01 -2.755359231E+02  3.237868380E+02  1.250000000E+02  0.00000E+00  9.000E+00
      25     1     1     2     0     0 -1.267969001E+02  5.702030481E+01 -1.261414274E+02  2.255336532E+02  1.250000000E+02  0.00000E+00  9.000E+00
      21     1     1     2   501   512  2.170361690E+01 -9.604343757E+00  1.870404574E+02  1.885402427E+02  0.000000000E+00  0.00000E+00  9.000E+00
#rwgt            1           1   4.0109234775779615E-002          10      140816           0
</event>
<event>
      5   9999  3.79277E-02  6.52300E+01 -1.00000E+00  1.32792E-01
      21    -1     0     0   502   501  0.000000000E+00  0.000000000E+00  6.392802156E+02  6.392802156E+02  0.000000000E+00  0.00000E+00  9.000E+00
      21    -1     0     0   501   511  0.000000000E+00  0.000000000E+00 -1.401100549E+02  1.401100549E+02  0.000000000E+00  0.00000E+00  9.000E+00
      25     1     1     2     0     0 -5.546112514E+01  1.318912754E+02  4.242099679E+01  1.946683999E+02  1.250000000E+02  0.00000E+00  9.000E+00
      25     1     1     2     0     0  1.158275437E+02 -1.566066408E+02  4.645649522E+02  5.190252929E+02  1.250000000E+02  0.00000E+00  9.000E+00
      21     1     1     2   502   511 -6.036641858E+01  2.471536531E+01 -7.815788276E+00  6.569657770E+01  1.039242493E-06  0.00000E+00  9.000E+00
#rwgt            1           1   3.1096330096197972E-002          10      140953           0
</event>
<event>
      5   9999  3.79277E-02  1.43776E+01 -1.00000E+00  1.79135E-01
      21    -1     0     0   502   501  0.000000000E+00  0.000000000E+00  4.226301684E+02  4.226301684E+02  0.000000000E+00  0.00000E+00  9.000E+00
      21    -1     0     0   512   502  0.000000000E+00  0.000000000E+00 -2.063658902E+02  2.063658902E+02  0.000000000E+00  0.00000E+00  9.000E+00
      25     1     1     2     0     0 -1.815367571E+02  8.643465280E+01  1.879486139E+02  3.022850060E+02  1.250000000E+02  0.00000E+00  9.000E+00
      25     1     1     2     0     0  1.890702241E+02 -9.868054915E+01  9.022377534E+01  2.631553344E+02  1.250000000E+02  0.00000E+00  9.000E+00
      21     1     1     2   512   501 -7.533466926E+00  1.224589635E+01 -6.190811102E+01  6.355571817E+01  6.743495762E-07  0.00000E+00  9.000E+00
#rwgt            1           1   3.8315872372336704E-002          10      141080           0
</event>
<event>
      5   9999  3.79277E-02  4.98882E+01 -1.00000E+00  1.39131E-01
      21    -1     0     0   511   501  0.000000000E+00  0.000000000E+00  5.518750731E+01  5.518750731E+01  0.000000000E+00  0.00000E+00  9.000E+00
      21    -1     0     0   501   502  0.000000000E+00  0.000000000E+00 -8.129974104E+02  8.129974104E+02  0.000000000E+00  0.00000E+00  9.000E+00
      25     1     1     2     0     0  1.020791311E+02  5.897117725E+01 -2.524219480E+02  3.053515820E+02  1.250000000E+02  0.00000E+00  9.000E+00
      25     1     1     2     0     0 -1.032485183E+02 -9.096683592E+00 -4.802701738E+02  5.069787431E+02  1.250000000E+02  0.00000E+00  9.000E+00
      21     1     1     2   511   502  1.169387206E+00 -4.987449366E+01 -2.511778133E+01  5.585459268E+01  1.752011592E-06  0.00000E+00  9.000E+00
#rwgt            1           1   3.8998219119681474E-002          10      141286           0
</event>
<event>
      5   9999  3.79277E-02  3.61150E+01 -1.00000E+00  1.47647E-01
      21    -1     0     0   512   501  0.000000000E+00  0.000000000E+00  1.034948926E+03  1.034948926E+03  0.000000000E+00  0.00000E+00  9.000E+00
      21    -1     0     0   501   502  0.000000000E+00  0.000000000E+00 -4.823873606E+01  4.823873606E+01  0.000000000E+00  0.00000E+00  9.000E+00
      25     1     1     2     0     0 -4.828815066E+01  1.017587115E+02  6.778664286E+02  6.984371668E+02  1.250000000E+02  0.00000E+00  9.000E+00
      25     1     1     2     0     0  8.424857850E+01 -9.842130471E+01  1.953648345E+02  2.656633109E+02  1.250000000E+02  0.00000E+00  9.000E+00
      21     1     1     2   512   502 -3.596042784E+01 -3.337406746E+00  1.134789265E+02  1.190871841E+02  0.000000000E+00  0.00000E+00  9.000E+00
#rwgt            1           1   4.1169492793609944E-002          10      141374           0
</event>
<event>
      5   9999  3.79277E-02  1.06967E+01 -1.00000E+00  1.92436E-01
      21    -1     0     0   502   501  0.000000000E+00  0.000000000E+00  1.084561895E+03  1.084561895E+03  0.000000000E+00  0.00000E+00  9.000E+00
      21    -1     0     0   511   502  0.000000000E+00  0.000000000E+00 -4.075621369E+01  4.075621369E+01  0.000000000E+00  0.00000E+00  9.000E+00
      25     1     1     2     0     0 -2.150278519E+01  1.051124841E+02  2.066920926E+02  2.643059311E+02  1.250000000E+02  0.00000E+00  9.000E+00
      25     1     1     2     0     0  2.897337487E+01 -9.745680825E+01  8.346168342E+02  8.500279677E+02  1.250000000E+02  0.00000E+00  9.000E+00
      21     1     1     2   511   501 -7.470589680E+00 -7.655675819E+00  2.496754435E+00  1.098420981E+01  2.289159819E-07  0.00000E+00  9.000E+00
#rwgt            1           1   4.1393872108330128E-002          10      141598           0
</event>
<event>
      5   9999 -3.79277E-02  1.29573E+02 -1.00000E+00  1.18970E-01
      21    -1     0     0   502   501  0.000000000E+00  0.000000000E+00  8.924547399E+02  8.924547399E+02  0.000000000E+00  0.00000E+00  9.000E+00
      21    -1     0     0   501   512  0.000000000E+00  0.000000000E+00 -3.702486586E+02  3.702486586E+02  0.000000000E+00  0.00000E+00  9.000E+00
      25     1     1     2     0     0  5.410949177E+01 -8.652070760E+01  5.067736238E+02  5.318441273E+02  1.250000000E+02  0.00000E+00  9.000E+00
      25     1     1     2     0     0  3.539972822E+01  1.802079998E+02  3.259126277E+02  3.944262984E+02  1.250000000E+02  0.00000E+00  9.000E+00
      21     1     1     2   502   512 -8.950921999E+01 -9.368729218E+01 -3.104801702E+02  3.364329729E+02  6.607249480E-06  0.00000E+00  9.000E+00
#rwgt            1           1 -0.12138793657822299               10      141807           0
</event>
<event>
      5   9999  3.79277E-02  6.13385E+01 -1.00000E+00  1.34193E-01
      21    -1     0     0   502   501  0.000000000E+00  0.000000000E+00  1.189722631E+02  1.189722631E+02  0.000000000E+00  0.00000E+00  9.000E+00
      21    -1     0     0   501   511  0.000000000E+00  0.000000000E+00 -6.872150417E+02  6.872150417E+02  0.000000000E+00  0.00000E+00  9.000E+00
      25     1     1     2     0     0 -1.810582526E+02 -8.598448507E+01 -4.159000039E+02  4.783024522E+02  1.250000000E+02  0.00000E+00  9.000E+00
      25     1     1     2     0     0  1.777819472E+02  2.473352236E+01 -7.967531941E+01  2.327903013E+02  1.250000000E+02  0.00000E+00  9.000E+00
      21     1     1     2   502   511  3.276305412E+00  6.125096271E+01 -7.266745527E+01  9.509455119E+01  9.536743164E-07  0.00000E+00  9.000E+00
#rwgt            1           1  0.10905087821856679               10      141902           0
</event>
<event>
      5   9999 -3.79277E-02  2.61235E+01 -1.00000E+00  1.57334E-01
      21    -1     0     0   502   501  0.000000000E+00  0.000000000E+00  5.611157852E+02  5.611157852E+02  0.000000000E+00  0.00000E+00  9.000E+00
      21    -1     0     0   501   512  0.000000000E+00  0.000000000E+00 -2.257237976E+02  2.257237976E+02  0.000000000E+00  0.00000E+00  9.000E+00
      25     1     1     2     0     0  1.180815106E+02  6.304835689E+01  7.219007452E+01  1.968622496E+02  1.250000000E+02  0.00000E+00  9.000E+00
      25     1     1     2     0     0 -1.186923762E+02 -8.916470215E+01  4.032468412E+02  4.475167474E+02  1.250000000E+02  0.00000E+00  9.000E+00
      21     1     1     2   502   512  6.108655322E-01  2.611634526E+01 -1.400449280E+02  1.424605858E+02  1.907348633E-06  0.00000E+00  9.000E+00
#rwgt            1           1 -0.17268509517885650               10      141978           0
</event>
<event>
      5   9999  3.79277E-02  5.67845E+01 -1.00000E+00  1.35994E-01
      21    -1     0     0   511   501  0.000000000E+00  0.000000000E+00  3.948408845E+02  3.948408845E+02  0.000000000E+00  0.00000E+00  9.000E+00
      21    -1     0     0   501   502  0.000000000E+00  0.000000000E+00 -6.268263045E+02  6.268263045E+02  0.000000000E+00  0.00000E+00  9.000E+00
      25     1     1     2     0     0  1.300855683E+02 -3.101251796E+01 -9.617557115E+01  2.067819427E+02  1.250000000E+02  0.00000E+00  9.000E+00
      25     1     1     2     0     0 -1.128291593E+02 -2.308638798E+01 -4.575883751E+02  4.881347371E+02  1.250000000E+02  0.00000E+00  9.000E+00
      21     1     1     2   511   502 -1.725640901E+01  5.409890595E+01  3.217785263E+02  3.267505092E+02  6.607249480E-06  0.00000E+00  9.000E+00
#rwgt            1           1   3.3129363377945607E-002          10      142254           0
</event>
<event>
      5   9999  3.79277E-02  2.98682E+01 -1.00000E+00  1.53173E-01
      21    -1     0     0   502   501  0.000000000E+00  0.000000000E+00  1.026698187E+02  1.026698187E+02  0.000000000E+00  0.00000E+00  9.000E+00
      21    -1     0     0   501   512  0.000000000E+00  0.000000000E+00 -6.738756638E+02  6.738756638E+02  0.000000000E+00  0.00000E+00  9.000E+00
      25     1     1     2     0     0 -1.550822144E+02  1.260041770E+02 -1.868398212E+02  3.007684568E+02  1.250000000E+02  0.00000E+00  9.000E+00
      25     1     1     2     0     0  1.669148284E+02 -9.857976683E+01 -2.586399025E+02  3.465517704E+02  1.250000000E+02  0.00000E+00  9.000E+00
      21     1     1     2   502   512 -1.183261397E+01 -2.742441013E+01 -1.257261214E+02  1.292252554E+02  0.000000000E+00  0.00000E+00  9.000E+00
#rwgt            1           1  0.22007207831022599               10      142321           0
</event>
<event>
      5   9999  3.79277E-02  1.42838E+02 -1.00000E+00  1.17242E-01
      21    -1     0     0   502   501  0.000000000E+00  0.000000000E+00  6.853953649E+02  6.853953649E+02  0.000000000E+00  0.00000E+00  9.000E+00
       2    -1     0     0   501     0  0.000000000E+00  0.000000000E+00 -2.067220661E+02  2.067220661E+02  0.000000000E+00  0.00000E+00  9.000E+00
      25     1     1     2     0     0  2.404169258E+02  3.233071619E+01  1.309829560E+02  3.026996997E+02  1.250000000E+02  0.00000E+00  9.000E+00
      25     1     1     2     0     0 -2.484845186E+02 -1.749409830E+02  2.783325840E+02  4.306308522E+02  1.250000000E+02  0.00000E+00  9.000E+00
       2     1     1     2   502     0  8.067592782E+00  1.426102668E+02  6.935775877E+01  1.587868790E+02  3.162979880E-06  0.00000E+00  9.000E+00
#rwgt            1           1   4.1997309527109852E-002          10      142582           0
</event>
<event>
      5   9999  3.79277E-02  6.49425E+01 -1.00000E+00  1.32892E-01
      21    -1     0     0   502   501  0.000000000E+00  0.000000000E+00  4.937281137E+01  4.937281137E+01  0.000000000E+00  0.00000E+00  9.000E+00
       1    -1     0     0   501     0  0.000000000E+00  0.000000000E+00 -2.086392695E+03  2.086392695E+03  0.000000000E+00  0.00000E+00  9.000E+00
      25     1     1     2     0     0 -1.141985244E+02  1.397988209E+02 -5.249952040E+02  5.690606097E+02  1.250000000E+02  0.00000E+00  9.000E+00
      25     1     1     2     0     0  1.758131415E+02 -1.603210624E+02 -6.659533298E+02  7.181447913E+02  1.250000000E+02  0.00000E+00  9.000E+00
       1     1     1     2   502     0 -6.161461711E+01  2.052224147E+01 -8.460713501E+02  8.485601056E+02  1.078959322E-05  0.00000E+00  9.000E+00
#rwgt            1           1   4.0659010426520412E-002          10      142663           0
</event>
<event>
      5   9999  3.79277E-02  8.05880E+01 -1.00000E+00  1.28196E-01
      21    -1     0     0   502   501  0.000000000E+00  0.000000000E+00  1.648472017E+02  1.648472017E+02  0.000000000E+00  0.00000E+00  9.000E+00
      21    -1     0     0   511   502  0.000000000E+00  0.000000000E+00 -2.410805538E+02  2.410805538E+02  0.000000000E+00  0.00000E+00  9.000E+00
      25     1     1     2     0     0  1.152124777E+02  4.769878236E+01 -3.324396221E+01  1.796642699E+02  1.250000000E+02  0.00000E+00  9.000E+00
      25     1     1     2     0     0 -3.476991876E+01 -5.253768746E+01 -1.424267127E+01  1.407018463E+02  1.250000000E+02  0.00000E+00  9.000E+00
      21     1     1     2   511   501 -8.044255898E+01  4.838905100E+00 -2.874671856E+01  8.556163933E+01  6.743495762E-07  0.00000E+00  9.000E+00
#rwgt            2          11   2.1305830091436395E-003          10      142766           0
</event>
<event>
      5   9999  3.79277E-02  1.94798E+01 -1.00000E+00  1.67319E-01
      21    -1     0     0   502   501  0.000000000E+00  0.000000000E+00  1.370365649E+02  1.370365649E+02  0.000000000E+00  0.00000E+00  9.000E+00
      21    -1     0     0   501   512  0.000000000E+00  0.000000000E+00 -2.882521666E+02  2.882521666E+02  0.000000000E+00  0.00000E+00  9.000E+00
      25     1     1     2     0     0 -7.358009110E+01 -1.108989687E+02 -2.772721492E+01  1.846792070E+02  1.250000000E+02  0.00000E+00  9.000E+00
      25     1     1     2     0     0  5.987531771E+01  9.705550910E+01 -6.897838156E+01  1.827234047E+02  1.250000000E+02  0.00000E+00  9.000E+00
      21     1     1     2   502   512  1.370477339E+01  1.384345957E+01 -5.451000527E+01  5.788611976E+01  6.743495762E-07  0.00000E+00  9.000E+00
#rwgt            1           1   4.3369873223816323E-002          10      142786           0
</event>
<event>
      5   9999  3.79277E-02  1.33091E+02 -1.00000E+00  1.18490E-01
      21    -1     0     0   502   501  0.000000000E+00  0.000000000E+00  1.213425719E+03  1.213425719E+03  0.000000000E+00  0.00000E+00  9.000E+00
      -4    -1     0     0     0   502  0.000000000E+00  0.000000000E+00 -2.430107335E+02  2.430107335E+02  0.000000000E+00  0.00000E+00  9.000E+00
      25     1     1     2     0     0 -4.482950718E+01 -1.238182826E+02  1.890598762E+02  2.621245670E+02  1.250000000E+02  0.00000E+00  9.000E+00
      25     1     1     2     0     0  1.778661905E+02  1.200201381E+02  9.486048031E+02  9.805698790E+02  1.250000000E+02  0.00000E+00  9.000E+00
      -4     1     1     2     0   501 -1.330366833E+02  3.798144486E+00 -1.672496941E+02  2.137420062E+02  3.814697266E-06  0.00000E+00  9.000E+00
#rwgt            1           1   4.2422892172259932E-002          10      142993           0
</event>
<event>
      5   9999  3.79277E-02  2.98728E+01 -1.00000E+00  1.53168E-01
       2    -1     0     0   502     0  0.000000000E+00  0.000000000E+00  7.750443226E+01  7.750443226E+01  0.000000000E+00  0.00000E+00  9.000E+00
      21    -1     0     0   501   502  0.000000000E+00  0.000000000E+00 -8.258647725E+02  8.258647725E+02  0.000000000E+00  0.00000E+00  9.000E+00
      25     1     1     2     0     0  2.072068335E+01  1.492699408E+02 -4.300740705E+02  4.725458370E+02  1.250000000E+02  0.00000E+00  9.000E+00
      25     1     1     2     0     0 -4.372356271E+01 -1.683290981E+02 -3.342278593E+02  3.969630929E+02  1.250000000E+02  0.00000E+00  9.000E+00
       2     1     1     2   501     0  2.300287936E+01  1.905915724E+01  1.594158957E+01  3.386027483E+01  5.591411304E-07  0.00000E+00  9.000E+00
#rwgt            1           1   2.9241744608569594E-002          10      143043           0
</event>
<event>
      5   9999  3.79277E-02  1.18940E+02 -1.00000E+00  1.20532E-01
      21    -1     0     0   511   501  0.000000000E+00  0.000000000E+00  8.326645112E+01  8.326645112E+01  0.000000000E+00  0.00000E+00  9.000E+00
      21    -1     0     0   501   502  0.000000000E+00  0.000000000E+00 -1.758424541E+03  1.758424541E+03  0.000000000E+00  0.00000E+00  9.000E+00
      25     1     1     2     0     0  4.615048309E+01 -3.652974216E+01 -2.041852483E+02  2.465378364E+02  1.250000000E+02  0.00000E+00  9.000E+00
      25     1     1     2     0     0 -1.448165564E+02  1.029513867E+02 -1.459590385E+03  1.475669311E+03  1.250000000E+02  0.00000E+00  9.000E+00
      21     1     1     2   511   502  9.866607327E+01 -6.642164455E+01 -1.138245663E+01  1.194838449E+02  1.066240300E-06  0.00000E+00  9.000E+00
#rwgt            1           1   3.2485157027943898E-002          10      143241           0
</event>
<event>
      5   9999  3.79277E-02  2.27631E+01 -1.00000E+00  1.61862E-01
      21    -1     0     0   502   512  0.000000000E+00  0.000000000E+00  3.537101214E+02  3.537101214E+02  0.000000000E+00  0.00000E+00  9.000E+00
      21    -1     0     0   501   502  0.000000000E+00  0.000000000E+00 -1.587211721E+02  1.587211721E+02  0.000000000E+00  0.00000E+00  9.000E+00
      25     1     1     2     0     0  6.308233437E+00  1.697692763E+02  5.652754474E+01  2.183615449E+02  1.250000000E+02  0.00000E+00  9.000E+00
      25     1     1     2     0     0 -1.364978189E+01 -1.913160129E+02  1.009856456E+02  2.502223690E+02  1.250000000E+02  0.00000E+00  9.000E+00
      21     1     1     2   501   512  7.341548457E+00  2.154673655E+01  3.747575900E+01  4.384737965E+01  6.743495762E-07  0.00000E+00  9.000E+00
#rwgt            1           1   3.2192053959710636E-002          10      143296           0
</event>
<event>
      5   9999  3.79277E-02  1.15781E+01 -1.00000E+00  1.88677E-01
      21    -1     0     0   511   501  0.000000000E+00  0.000000000E+00  1.283984629E+03  1.283984629E+03  0.000000000E+00  0.00000E+00  9.000E+00
      21    -1     0     0   501   502  0.000000000E+00  0.000000000E+00 -2.654309718E+01  2.654309718E+01  0.000000000E+00  0.00000E+00  9.000E+00
      25     1     1     2     0     0 -5.314635796E+01  6.639092707E+01  2.659788268E+02  3.059444833E+02  1.250000000E+02  0.00000E+00  9.000E+00
      25     1     1     2     0     0  4.442974567E+01 -5.877028355E+01  8.206268752E+02  8.333555165E+02  1.250000000E+02  0.00000E+00  9.000E+00
      21     1     1     2   511   502  8.716612282E+00 -7.620643518E+00  1.708358297E+02  1.712277263E+02  2.697398305E-06  0.00000E+00  9.000E+00
#rwgt            1           1   4.7847206205837732E-002          10      143438           0
</event>
<event>
      5   9999  3.79277E-02  7.22103E+01 -1.00000E+00  1.30541E-01
      21    -1     0     0   502   501  0.000000000E+00  0.000000000E+00  1.946828364E+02  1.946828364E+02  0.000000000E+00  0.00000E+00  9.000E+00
      21    -1     0     0   512   502  0.000000000E+00  0.000000000E+00 -1.814755446E+03  1.814755446E+03  0.000000000E+00  0.00000E+00  9.000E+00
      25     1     1     2     0     0 -4.735802156E+01 -3.362860678E+01 -1.452349792E+02  2.002295297E+02  1.250000000E+02  0.00000E+00  9.000E+00
      25     1     1     2     0     0  9.876115320E+01  8.434400777E+01  1.175406366E+02  2.151940479E+02  1.250000000E+02  0.00000E+00  9.000E+00
      21     1     1     2   512   501 -5.140313164E+01 -5.071540099E+01 -1.592378267E+03  1.594014705E+03  0.000000000E+00  0.00000E+00  9.000E+00
#rwgt            1           1   3.2149660826784408E-002          10      143606           0
</event>
<event>
      5   9999  3.79277E-02  1.38319E+02 -1.00000E+00  1.17806E-01
      21    -1     0     0   502   511  0.000000000E+00  0.000000000E+00  2.430509474E+02  2.430509474E+02  0.000000000E+00  0.00000E+00  9.000E+00
      21    -1     0     0   501   502  0.000000000E+00  0.000000000E+00 -4.525652959E+02  4.525652959E+02  0.000000000E+00  0.00000E+00  9.000E+00
      25     1     1     2     0     0  1.151649931E+02  7.182409324E+00  1.337108641E+01  1.706409933E+02  1.250000000E+02  0.00000E+00  9.000E+00
      25     1     1     2     0     0 -2.502551885E+02  2.253144250E+01 -2.591364293E+02  3.819843116E+02  1.250000000E+02  0.00000E+00  9.000E+00
      21     1     1     2   501   511  1.350901954E+02 -2.971385183E+01  3.625099440E+01  1.429909385E+02  3.814697266E-06  0.00000E+00  9.000E+00
#rwgt            1           1   3.8894948897279916E-002          10      143721           0
</event>
<event>
      5   9999  3.79277E-02  7.20592E+01  7.55638E-03  1.30586E-01
       1    -1     0     0   501     0  0.000000000E+00  0.000000000E+00  5.060619104E+02  5.060619104E+02  0.000000000E+00  0.00000E+00  9.000E+00
      -1    -1     0     0     0   502  0.000000000E+00  0.000000000E+00 -8.663862599E+01  8.663862599E+01  0.000000000E+00  0.00000E+00  9.000E+00
      25     1     1     2     0     0 -3.428695338E+01 -1.179598086E+01  1.853591288E+02  2.264900593E+02  1.250000000E+02  0.00000E+00  9.000E+00
      25     1     1     2     0     0  4.160061445E+01  8.348308311E+01  4.266379762E+01  1.616948853E+02  1.250000000E+02  0.00000E+00  9.000E+00
      21     1     1     2   501   502 -7.313661073E+00 -7.168710225E+01  1.914003579E+02  2.045155918E+02  2.697398305E-06  0.00000E+00  9.000E+00
#rwgt            3           6   2.2623373024572533E-004          10      143842           0
</event>
<event>
      5   9999  3.79277E-02  4.65332E+01 -1.00000E+00  1.40880E-01
      21    -1     0     0   502   501  0.000000000E+00  0.000000000E+00  2.350294188E+02  2.350294188E+02  0.000000000E+00  0.00000E+00  9.000E+00
      21    -1     0     0   511   502  0.000000000E+00  0.000000000E+00 -1.433707305E+03  1.433707305E+03  0.000000000E+00  0.00000E+00  9.000E+00
      25     1     1     2     0     0  3.169442377E+00 -5.447139879E+01  1.889519254E+02  2.330343511E+02  1.250000000E+02  0.00000E+00  9.000E+00
      25     1     1     2     0     0 -3.583718062E+01  8.760979226E+01 -2.372428533E+02  2.843746660E+02  1.250000000E+02  0.00000E+00  9.000E+00
      21     1     1     2   511   501  3.266773825E+01 -3.313839347E+01 -1.150386958E+03  1.151327707E+03  0.000000000E+00  0.00000E+00  9.000E+00
#rwgt            1           1   4.3647016902017513E-002          10      143876           0
</event>
<event>
      5   9999  3.79277E-02  3.25915E+01 -1.00000E+00  1.50582E-01
      21    -1     0     0   502   512  0.000000000E+00  0.000000000E+00  2.584055064E+02  2.584055064E+02  0.000000000E+00  0.00000E+00  9.000E+00
      21    -1     0     0   501   502  0.000000000E+00  0.000000000E+00 -4.748887419E+02  4.748887419E+02  0.000000000E+00  0.00000E+00  9.000E+00
      25     1     1     2     0     0  2.144228307E+02 -1.004345526E+01  1.177246067E+02  2.748856205E+02  1.250000000E+02  0.00000E+00  9.000E+00
      25     1     1     2     0     0 -2.345515110E+02 -1.558941428E+01 -3.322461938E+02  4.257581173E+02  1.250000000E+02  0.00000E+00  9.000E+00
      21     1     1     2   501   512  2.012868034E+01  2.563286954E+01 -1.961648459E+00  3.265051053E+01  5.118716966E-07  0.00000E+00  9.000E+00
#rwgt            1           1   2.3706443371719642E-002          10      144142           0
</event>
<event>
      5   9999  3.79277E-02  3.03232E+01 -1.00000E+00  1.52717E-01
      21    -1     0     0   502   501  0.000000000E+00  0.000000000E+00  7.493961626E+02  7.493961626E+02  0.000000000E+00  0.00000E+00  9.000E+00
      21    -1     0     0   501   511  0.000000000E+00  0.000000000E+00 -2.189559894E+02  2.189559894E+02  0.000000000E+00  0.00000E+00  9.000E+00
      25     1     1     2     0     0  1.740957886E+01  1.946409024E+02  4.437769728E+02  5.007506125E+02  1.250000000E+02  0.00000E+00  9.000E+00
      25     1     1     2     0     0 -3.686524068E+01 -1.713820019E+02  2.335310844E+02  3.176359613E+02  1.250000000E+02  0.00000E+00  9.000E+00
      21     1     1     2   502   511  1.945566182E+01 -2.325890050E+01 -1.468678841E+02  1.499655780E+02  3.303624740E-06  0.00000E+00  9.000E+00
#rwgt            1           1   4.0858423918381875E-002          10      144362           0
</event>
<event>
      5   9999 -3.79277E-02  8.38505E+01 -1.00000E+00  1.27369E-01
      21    -1     0     0   512   501  0.000000000E+00  0.000000000E+00  4.909170627E+02  4.909170627E+02  0.000000000E+00  0.00000E+00  9.000E+00
      21    -1     0     0   501   502  0.000000000E+00  0.000000000E+00 -6.853848802E+02  6.853848802E+02  0.000000000E+00  0.00000E+00  9.000E+00
      25     1     1     2     0     0 -7.196155668E+01 -2.994083653E+01 -7.888526174E+01  1.671011785E+02  1.250000000E+02  0.00000E+00  9.000E+00
      25     1     1     2     0     0  1.558104511E+02  2.941729041E+01 -5.400347095E+02  5.765455413E+02  1.250000000E+02  0.00000E+00  9.000E+00
      21     1     1     2   512   502 -8.384889447E+01  5.235461222E-01  4.244521538E+02  4.326552231E+02  0.000000000E+00  0.00000E+00  9.000E+00
#rwgt            1           1 -0.15754006380937499               10      144527           0
</event>
<event>
      5   9999  3.79277E-02  3.81953E+01 -1.00000E+00  1.46095E-01
      21    -1     0     0   511   501  0.000000000E+00  0.000000000E+00  1.366430040E+03  1.366430040E+03  0.000000000E+00  0.00000E+00  9.000E+00
      21    -1     0     0   501   502  0.000000000E+00  0.000000000E+00 -1.916192295E+02  1.916192295E+02  0.000000000E+00  0.00000E+00  9.000E+00
      25     1     1     2     0     0  1.931114571E+02  6.281836938E+01 -6.005816242E+01  2.459068224E+02  1.250000000E+02  0.00000E+00  9.000E+00
      25     1     1     2     0     0 -1.583288525E+02 -7.859969278E+01  2.680089591E+02  3.445282854E+02  1.250000000E+02  0.00000E+00  9.000E+00
      21     1     1     2   511   502 -3.478260461E+01  1.578132340E+01  9.668600139E+02  9.676141618E+02  1.078959322E-05  0.00000E+00  9.000E+00
#rwgt            1           1   4.4107863862974904E-002          10      144617           0
</event>
<event>
      5   9999  3.79277E-02  7.14447E+00 -1.00000E+00  2.14307E-01
      21    -1     0     0   502   501  0.000000000E+00  0.000000000E+00  3.334502567E+02  3.334502567E+02  0.000000000E+00  0.00000E+00  9.000E+00
      21    -1     0     0   501   512  0.000000000E+00  0.000000000E+00 -3.378451356E+02  3.378451356E+02  0.000000000E+00  0.00000E+00  9.000E+00
      25     1     1     2     0     0 -1.276854672E+02 -1.240301215E+02 -4.039334544E+01  2.212321675E+02  1.250000000E+02  0.00000E+00  9.000E+00
      25     1     1     2     0     0  1.345082604E+02  1.261497855E+02  1.918773641E+02  2.940206852E+02  1.250000000E+02  0.00000E+00  9.000E+00
      21     1     1     2   502   512 -6.822793137E+00 -2.119663974E+00 -1.558788975E+02  1.560425396E+02  1.907348633E-06  0.00000E+00  9.000E+00
#rwgt            1           1   4.5422478464147917E-002          10      144741           0
</event>
<event>
      5   9999  3.79277E-02  7.01961E+01 -1.00000E+00  1.31159E-01
      21    -1     0     0   502   501  0.000000000E+00  0.000000000E+00  8.985245135E+01  8.985245135E+01  0.000000000E+00  0.00000E+00  9.000E+00
       2    -1     0     0   501     0  0.000000000E+00  0.000000000E+00 -8.314283944E+02  8.314283944E+02  0.000000000E+00  0.00000E+00  9.000E+00
      25     1     1     2     0     0  1.242104497E+02  1.009226649E+02 -5.448938189E+02  5.815048529E+02  1.250000000E+02  0.00000E+00  9.000E+00
      25     1     1     2     0     0 -5.472497692E+01 -1.108853263E+02 -5.940353703E+01  1.855913761E+02  1.250000000E+02  0.00000E+00  9.000E+00
       2     1     1     2   502     0 -6.948547274E+01  9.962661404E+00 -1.372785871E+02  1.541846167E+02  0.000000000E+00  0.00000E+00  9.000E+00
#rwgt            2          13   1.1846757393209209E-004          10      145122           0
</event>
<event>
      5   9999  3.79277E-02  1.08717E+02 -1.00000E+00  1.22217E-01
       1    -1     0     0   502     0  0.000000000E+00  0.000000000E+00  1.098546648E+03  1.098546648E+03  0.000000000E+00  0.00000E+00  9.000E+00
      21    -1     0     0   501   502  0.000000000E+00  0.000000000E+00 -4.226998917E+02  4.226998917E+02  0.000000000E+00  0.00000E+00  9.000E+00
      25     1     1     2     0     0  7.587995263E+01  1.348321126E+02 -2.117535665E+01  2.000271520E+02  1.250000000E+02  0.00000E+00  9.000E+00
      25     1     1     2     0     0 -1.593664300E+02 -6.519417735E+01 -2.724387653E+02  3.456816752E+02  1.250000000E+02  0.00000E+00  9.000E+00
       1     1     1     2   501     0  8.348647735E+01 -6.963793529E+01  9.694608782E+02  9.755377123E+02  1.868812365E-05  0.00000E+00  9.000E+00
#rwgt            1           1   1.3784116911349328E-002          10      145141           0
</event>
<event>
      5   9999  3.79277E-02  1.43279E+01 -1.00000E+00  1.79280E-01
      21    -1     0     0   502   501  0.000000000E+00  0.000000000E+00  2.782111130E+01  2.782111130E+01  0.000000000E+00  0.00000E+00  9.000E+00
      21    -1     0     0   501   511  0.000000000E+00  0.000000000E+00 -2.106542117E+03  2.106542117E+03  0.000000000E+00  0.00000E+00  9.000E+00
      25     1     1     2     0     0  4.179984242E+01 -1.261882260E+02 -1.518746728E+03  1.529669023E+03  1.250000000E+02  0.00000E+00  9.000E+00
      25     1     1     2     0     0 -5.183271523E+01  1.364171052E+02 -3.966309480E+02  4.407236842E+02  1.250000000E+02  0.00000E+00  9.000E+00
      21     1     1     2   502   511  1.003287281E+01 -1.022887923E+01 -1.633433294E+02  1.639705210E+02  0.000000000E+00  0.00000E+00  9.000E+00
#rwgt            1           1  0.12188389165512854               10      145272           0
</event>
<event>
      5   9999  3.79277E-02  2.53597E+01 -1.00000E+00  1.58288E-01
      21    -1     0     0   502   501  0.000000000E+00  0.000000000E+00  7.214259283E+01  7.214259283E+01  0.000000000E+00  0.00000E+00  9.000E+00
      21    -1     0     0   501   512  0.000000000E+00  0.000000000E+00 -1.287531243E+03  1.287531243E+03  0.000000000E+00  0.00000E+00  9.000E+00
      25     1     1     2     0     0  8.313904613E+00  5.762956540E+01 -5.609760707E+02  5.776758951E+02  1.250000000E+02  0.00000E+00  9.000E+00
      25     1     1     2     0     0 -2.428802851E+01 -7.732577413E+01 -2.378881551E+01  1.508644803E+02  1.250000000E+02  0.00000E+00  9.000E+00
      21     1     1     2   502   512  1.597412389E+01  1.969620872E+01 -6.306237637E+02  6.311334602E+02  1.078959322E-05  0.00000E+00  9.000E+00
#rwgt            1           1   3.9668690795252357E-002          10      145532           0
</event>
<event>
      5   9999 -3.79277E-02  9.41797E+01 -1.00000E+00  1.25011E-01
      21    -1     0     0   511   501  0.000000000E+00  0.000000000E+00  8.249440254E+01  8.249440254E+01  0.000000000E+00  0.00000E+00  9.000E+00
      21    -1     0     0   501   502  0.000000000E+00  0.000000000E+00 -8.647507048E+02  8.647507048E+02  0.000000000E+00  0.00000E+00  9.000E+00
      25     1     1     2     0     0  1.391689438E+02  1.352218663E+02 -2.857696430E+02  3.673448474E+02  1.250000000E+02  0.00000E+00  9.000E+00
      25     1     1     2     0     0 -1.182195259E+02 -4.340171161E+01 -4.283813308E+02  4.636756727E+02  1.250000000E+02  0.00000E+00  9.000E+00
      21     1     1     2   511   502 -2.094941793E+01 -9.182015466E+01 -6.810532847E+01  1.162245872E+02  2.861022949E-06  0.00000E+00  9.000E+00
#rwgt            1           1  -1.6156427335370871E-002          10      145695           0
</event>
<event>
      5   9999 -3.79277E-02  4.24989E+01 -1.00000E+00  1.43227E-01
      21    -1     0     0   502   501  0.000000000E+00  0.000000000E+00  1.047904380E+03  1.047904380E+03  0.000000000E+00  0.00000E+00  9.000E+00
      21    -1     0     0   512   502  0.000000000E+00  0.000000000E+00 -1.481082640E+02  1.481082640E+02  0.000000000E+00  0.00000E+00  9.000E+00
      25     1     1     2     0     0 -1.891696594E+02  8.476522776E+01  2.643008250E+02  3.583995396E+02  1.250000000E+02  0.00000E+00  9.000E+00
      25     1     1     2     0     0  2.105175247E+02 -4.801714521E+01  7.096016451E+02  7.521853290E+02  1.250000000E+02  0.00000E+00  9.000E+00
      21     1     1     2   512   501 -2.134786536E+01 -3.674808255E+01 -7.410635467E+01  8.542777493E+01  1.651812370E-06  0.00000E+00  9.000E+00
#rwgt            1           1  -3.7784257691082374E-002          10      145803           0
</event>
<event>
      5   9999  3.79277E-02  6.32866E+01 -1.00000E+00  1.33477E-01
      21    -1     0     0   511   501  0.000000000E+00  0.000000000E+00  1.126249889E+03  1.126249889E+03  0.000000000E+00  0.00000E+00  9.000E+00
      21    -1     0     0   501   502  0.000000000E+00  0.000000000E+00 -1.856817996E+02  1.856817996E+02  0.000000000E+00  0.00000E+00  9.000E+00
      25     1     1     2     0     0  5.958147947E+01  1.098880782E+02 -1.322788366E+01  1.772718797E+02  1.250000000E+02  0.00000E+00  9.000E+00
      25     1     1     2     0     0 -1.095993880E+02 -1.486618788E+02  4.987703205E+01  2.285281129E+02  1.250000000E+02  0.00000E+00  9.000E+00
      21     1     1     2   511   502  5.001790855E+01  3.877380061E+01  9.039189411E+02  9.061316962E+02  2.157918644E-05  0.00000E+00  9.000E+00
#rwgt            1           1   2.2667959893887760E-002          10      145946           0
</event>
<event>
      5   9999  3.79277E-02  3.77280E+01 -1.00000E+00  1.46433E-01
      21    -1     0     0   502   501  0.000000000E+00  0.000000000E+00  3.853084138E+02  3.853084138E+02  0.000000000E+00  0.00000E+00  9.000E+00
      21    -1     0     0   512   502  0.000000000E+00  0.000000000E+00 -4.844982585E+02  4.844982585E+02  0.000000000E+00  0.00000E+00  9.000E+00
      25     1     1     2     0     0 -4.325093731E+01  5.439098357E+01  3.233881314E+02  3.536013380E+02  1.250000000E+02  0.00000E+00  9.000E+00
      25     1     1     2     0     0  7.848170589E+01 -6.788907235E+01 -9.860457792E+01  1.900425402E+02  1.250000000E+02  0.00000E+00  9.000E+00
      21     1     1     2   512   501 -3.523076858E+01  1.349808878E+01 -3.239733982E+02  3.261627941E+02  0.000000000E+00  0.00000E+00  9.000E+00
#rwgt            1           1   3.7043316094727462E-002          10      146070           0
</event>
<event>
      5   9999  3.79277E-02  7.58651E+01 -1.00000E+00  1.29475E-01
      21    -1     0     0   502   511  0.000000000E+00  0.000000000E+00  1.495154708E+02  1.495154708E+02  0.000000000E+00  0.00000E+00  9.000E+00
      21    -1     0     0   501   502  0.000000000E+00  0.000000000E+00 -5.911084836E+02  5.911084836E+02  0.000000000E+00  0.00000E+00  9.000E+00
      25     1     1     2     0     0  1.842191259E+02  5.828682041E+01 -2.750778366E+02  3.586458643E+02  1.250000000E+02  0.00000E+00  9.000E+00
      25     1     1     2     0     0 -1.196225656E+02 -1.850246032E+01 -2.262471969E+02  2.854202049E+02  1.250000000E+02  0.00000E+00  9.000E+00
      21     1     1     2   501   511 -6.459656029E+01 -3.978436009E+01  5.973202069E+01  9.655788525E+01  1.168007728E-06  0.00000E+00  9.000E+00
#rwgt            1           1   6.6304522237751531E-002          10      146217           0
</event>
<event>
      5   9999  3.79277E-02  1.00032E+02 -1.00000E+00  1.23822E-01
      21    -1     0     0   512   501  0.000000000E+00  0.000000000E+00  1.395161012E+03  1.395161012E+03  0.000000000E+00  0.00000E+00  9.000E+00
      21    -1     0     0   501   502  0.000000000E+00  0.000000000E+00 -1.483501384E+02  1.483501384E+02  0.000000000E+00  0.00000E+00  9.000E+00
      25     1     1     2     0     0  1.708178465E+02  4.735263718E+00  1.695302060E+02  2.712317277E+02  1.250000000E+02  0.00000E+00  9.000E+00
      25     1     1     2     0     0 -7.129370516E+01  5.328796332E+00 -4.085030530E+01  1.496827843E+02  1.250000000E+02  0.00000E+00  9.000E+00
      21     1     1     2   512   502 -9.952414131E+01 -1.006406005E+01  1.118130973E+03  1.122596639E+03  2.157918644E-05  0.00000E+00  9.000E+00
#rwgt            1           1   4.4654387509424943E-002          10      146540           0
</event>
<event>
      5   9999  3.79277E-02  5.94241E+01 -1.00000E+00  1.34928E-01
      21    -1     0     0   511   501  0.000000000E+00  0.000000000E+00  1.759280479E+03  1.759280479E+03  0.000000000E+00  0.00000E+00  9.000E+00
      21    -1     0     0   501   502  0.000000000E+00  0.000000000E+00 -9.053563531E+01  9.053563531E+01  0.000000000E+00  0.00000E+00  9.000E+00
      25     1     1     2     0     0 -9.282017796E+01 -2.077504003E+02  4.653760841E+02  5.328937173E+02  1.250000000E+02  0.00000E+00  9.000E+00
      25     1     1     2     0     0  1.159099287E+02  2.625052398E+02  3.840106768E+02  4.954122651E+02  1.250000000E+02  0.00000E+00  9.000E+00
      21     1     1     2   511   502 -2.308975071E+01 -5.475483948E+01  8.193580832E+02  8.215101323E+02  1.078959322E-05  0.00000E+00  9.000E+00
#rwgt            1           1   3.7140154741565082E-002          10      146784           0
</event>
<event>
      5   9999  5.20192E-02  2.43913E+01 -1.00000E+00  1.59557E-01
       1    -1     0     0   502     0  0.000000000E+00  0.000000000E+00  1.731860375E+02  1.731860375E+02  0.000000000E+00  0.00000E+00  9.000E+00
      21    -1     0     0   501   502  0.000000000E+00  0.000000000E+00 -4.967107407E+02  4.967107407E+02  0.000000000E+00  0.00000E+00  9.000E+00
      25     1     1     2     0     0  1.373065631E+02 -1.331051486E+02 -2.579925118E+02  3.446087767E+02  1.250000000E+02  0.00000E+00  9.000E+00
      25     1     1     2     0     0 -1.524772698E+02  1.140058115E+02 -1.258599015E+02  2.602159827E+02  1.250000000E+02  0.00000E+00  9.000E+00
       1     1     1     2   501     0  1.517070676E+01  1.909933715E+01  6.032771004E+01  6.507201873E+01  1.348699152E-06  0.00000E+00  9.000E+00
#rwgt            1           1  0.55614556801169968               10      147125           0
</event>
<event>
      5   9999 -3.79277E-02  8.57635E+01 -1.00000E+00  1.26904E-01
      21    -1     0     0   511   501  0.000000000E+00  0.000000000E+00  1.080568076E+02  1.080568076E+02  0.000000000E+00  0.00000E+00  9.000E+00
      21    -1     0     0   501   502  0.000000000E+00  0.000000000E+00 -1.712043708E+03  1.712043708E+03  0.000000000E+00  0.00000E+00  9.000E+00
      25     1     1     2     0     0  2.060391419E+02  5.647553447E+01 -2.547816084E+02  3.552186397E+02  1.250000000E+02  0.00000E+00  9.000E+00
      25     1     1     2     0     0 -1.841527974E+02  2.644831733E+01 -1.360086364E+03  1.378430878E+03  1.250000000E+02  0.00000E+00  9.000E+00
      21     1     1     2   511   502 -2.188634453E+01 -8.292385180E+01  1.088107271E+01  8.645099778E+01  2.718390048E-06  0.00000E+00  9.000E+00
#rwgt            1           1  -2.9380989554245545E-002          10      147308           0
</event>
<event>
      5   9999  3.79277E-02  3.95179E+01 -1.00000E+00  1.45168E-01
      21    -1     0     0   502   501  0.000000000E+00  0.000000000E+00  7.215272474E+02  7.215272474E+02  0.000000000E+00  0.00000E+00  9.000E+00
       2    -1     0     0   501     0  0.000000000E+00  0.000000000E+00 -2.368435077E+03  2.368435077E+03  0.000000000E+00  0.00000E+00  9.000E+00
      25     1     1     2     0     0  1.541657228E+02 -7.200254822E+01  6.259771908E+02  6.606238570E+02  1.250000000E+02  0.00000E+00  9.000E+00
      25     1     1     2     0     0 -1.253428962E+02  4.496728495E+01 -2.879130451E+01  1.848968295E+02  1.250000000E+02  0.00000E+00  9.000E+00
       2     1     1     2   502     0 -2.882282652E+01  2.703526327E+01 -2.244093716E+03  2.244441638E+03  0.000000000E+00  0.00000E+00  9.000E+00
#rwgt            1           1   4.1819066658774003E-002          10      147391           0
</event>
<event>
      5   9999  3.79277E-02  2.07446E+01 -1.00000E+00  1.65070E-01
      21    -1     0     0   502   511  0.000000000E+00  0.000000000E+00  8.413611264E+02  8.413611264E+02  0.000000000E+00  0.00000E+00  9.000E+00
      21    -1     0     0   501   502  0.000000000E+00  0.000000000E+00 -6.837393167E+01  6.837393167E+01  0.000000000E+00  0.00000E+00  9.000E+00
      25     1     1     2     0     0  9.402247724E+01 -1.338365900E+02  1.887103099E+02  2.792651788E+02  1.250000000E+02  0.00000E+00  9.000E+00
      25     1     1     2     0     0 -8.468233826E+01  1.523595523E+02  5.081423968E+02  5.515598128E+02  1.250000000E+02  0.00000E+00  9.000E+00
      21     1     1     2   501   511 -9.340138980E+00 -1.852296226E+01  7.613448803E+01  7.891006649E+01  9.536743164E-07  0.00000E+00  9.000E+00
#rwgt            1           1   3.1542431303284366E-002          10      147500           0
</event>
<event>
      5   9999  3.79277E-02  3.81956E+01 -1.00000E+00  1.46094E-01
      21    -1     0     0   502   501  0.000000000E+00  0.000000000E+00  2.306084524E+02  2.306084524E+02  0.000000000E+00  0.00000E+00  9.000E+00
      21    -1     0     0   501   512  0.000000000E+00  0.000000000E+00 -2.984950505E+02  2.984950505E+02  0.000000000E+00  0.00000E+00  9.000E+00
      25     1     1     2     0     0  7.043251763E+01  1.018363107E+02  1.394322232E+02  2.244943620E+02  1.250000000E+02  0.00000E+00  9.000E+00
      25     1     1     2     0     0 -8.777400906E+01 -6.780428608E+01 -1.100093397E+02  2.000718688E+02  1.250000000E+02  0.00000E+00  9.000E+00
      21     1     1     2   502   512  1.734149143E+01 -3.403202461E+01 -9.730948161E+01  1.045372720E+02  1.348699152E-06  0.00000E+00  9.000E+00
#rwgt            1           1   4.1092607508191284E-002          10      147862           0
</event>
<event>
      5   9999  3.79277E-02  1.38880E+01 -1.00000E+00  1.80594E-01
      21    -1     0     0   502   511  0.000000000E+00  0.000000000E+00  5.792195231E+01  5.792195231E+01  0.000000000E+00  0.00000E+00  9.000E+00
      21    -1     0     0   501   502  0.000000000E+00  0.000000000E+00 -1.097410442E+03  1.097410442E+03  0.000000000E+00  0.00000E+00  9.000E+00
      25     1     1     2     0     0 -1.230746454E+02  9.832310952E+01 -1.915131236E+02  2.776996196E+02  1.250000000E+02  0.00000E+00  9.000E+00
      25     1     1     2     0     0  1.215777380E+02 -1.121302131E+02 -8.261396374E+02  8.517546780E+02  1.250000000E+02  0.00000E+00  9.000E+00
      21     1     1     2   501   511  1.496907381E+00  1.380710354E+01 -2.183572846E+01  2.587809648E+01  2.384185791E-07  0.00000E+00  9.000E+00
#rwgt            1           1   7.7443863443586336E-002          10      148065           0
</event>
<event>
      5   9999  3.79277E-02  9.69933E+01 -1.00000E+00  1.24427E-01
      21    -1     0     0   502   501  0.000000000E+00  0.000000000E+00  7.258035112E+02  7.258035112E+02  0.000000000E+00  0.00000E+00  9.000E+00
      21    -1     0     0   501   512  0.000000000E+00  0.000000000E+00 -2.284248455E+02  2.284248455E+02  0.000000000E+00  0.00000E+00  9.000E+00
      25     1     1     2     0     0 -1.488524160E+02 -2.571048587E+02 -1.626073461E+01  3.227218022E+02  1.250000000E+02  0.00000E+00  9.000E+00
      25     1     1     2     0     0  1.088233772E+02  1.687568505E+02  4.678625091E+02  5.242534973E+02  1.250000000E+02  0.00000E+00  9.000E+00
      21     1     1     2   502   512  4.002903878E+01  8.834800823E+01  4.577689123E+01  1.072530572E+02  6.743495762E-07  0.00000E+00  9.000E+00
#rwgt            2          11   4.0203729179754347E-003          10      148383           0
</event>
<event>
      5   9999  3.79277E-02  4.83798E+01 -1.00000E+00  1.39897E-01
      21    -1     0     0   502   501  0.000000000E+00  0.000000000E+00  1.058013691E+03  1.058013691E+03  0.000000000E+00  0.00000E+00  9.000E+00
      21    -1     0     0   511   502  0.000000000E+00  0.000000000E+00 -7.787196203E+01  7.787196203E+01  0.000000000E+00  0.00000E+00  9.000E+00
      25     1     1     2     0     0 -3.788336710E+01 -1.799962991E+02  1.791947333E+02  2.856038684E+02  1.250000000E+02  0.00000E+00  9.000E+00
      25     1     1     2     0     0  1.794911072E+00  1.477747967E+02  7.673365124E+02  7.913728170E+02  1.250000000E+02  0.00000E+00  9.000E+00
      21     1     1     2   511   501  3.608845603E+01  3.222150245E+01  3.361048323E+01  5.890896758E+01  1.348699152E-06  0.00000E+00  9.000E+00
#rwgt            1           1   3.8858144113335838E-002          10      148403           0
</event>
<event>
      5   9999  3.79277E-02  4.97047E+01 -1.00000E+00  1.39222E-01
      21    -1     0     0   502   512  0.000000000E+00  0.000000000E+00  6.503173170E+02  6.503173170E+02  0.000000000E+00  0.00000E+00  9.000E+00
      21    -1     0     0   501   502  0.000000000E+00  0.000000000E+00 -1.089501573E+02  1.089501573E+02  0.000000000E+00  0.00000E+00  9.000E+00
      25     1     1     2     0     0  8.914849323E+01 -1.742457350E+02  1.492935403E+02  2.760843914E+02  1.250000000E+02  0.00000E+00  9.000E+00
      25     1     1     2     0     0 -4.009268285E+01  1.822507792E+02  2.689330451E+02  3.503894298E+02  1.250000000E+02  0.00000E+00  9.000E+00
      21     1     1     2   501   512 -4.905581038E+01 -8.005044220E+00  1.231405743E+02  1.327936531E+02  1.348699152E-06  0.00000E+00  9.000E+00
#rwgt            1           1   4.1405303815302365E-002          10      148545           0
</event>
<event>
      5   9999  3.79277E-02  7.39507E+01 -1.00000E+00  1.30024E-01
      21    -1     0     0   511   501  0.000000000E+00  0.000000000E+00  5.599875262E+02  5.599875262E+02  0.000000000E+00  0.00000E+00  9.000E+00
      21    -1     0     0   501   502  0.000000000E+00  0.000000000E+00 -1.232542119E+02  1.232542119E+02  0.000000000E+00  0.00000E+00  9.000E+00
      25     1     1     2     0     0  2.288341756E+01  9.967671564E+01  2.679473360E+02  3.128575927E+02  1.250000000E+02  0.00000E+00  9.000E+00
      25     1     1     2     0     0 -2.829749291E+01 -1.734290014E+02  3.633345482E+01  2.186858170E+02  1.250000000E+02  0.00000E+00  9.000E+00
      21     1     1     2   511   502  5.414075354E+00  7.375228574E+01  1.324525234E+02  1.516983284E+02  1.907348633E-06  0.00000E+00  9.000E+00
#rwgt            1           1   4.5496026318447430E-002          10      148735           0
</event>
<event>
      5   9999  3.79277E-02  2.04855E+02 -1.00000E+00  1.11270E-01
       2    -1     0     0   502     0  0.000000000E+00  0.000000000E+00  2.173302132E+03  2.173302132E+03  0.000000000E+00  0.00000E+00  9.000E+00
      21    -1     0     0   501   502  0.000000000E+00  0.000000000E+00 -1.137275800E+02  1.137275800E+02  0.000000000E+00  0.00000E+00  9.000E+00
      25     1     1     2     0     0 -1.376695541E+02  3.712799558E+02  4.650020146E+02  6.234208734E+02  1.250000000E+02  0.00000E+00  9.000E+00
      25     1     1     2     0     0  2.835309055E+01 -1.980297706E+02  5.392535843E+02  5.885907882E+02  1.250000000E+02  0.00000E+00  9.000E+00
       2     1     1     2   501     0  1.093164636E+02 -1.732501852E+02  1.055318953E+03  1.075018050E+03  0.000000000E+00  0.00000E+00  9.000E+00
#rwgt            2          18   3.8338343453391015E-004          10      148859           0
</event>
<event>
      5   9999  3.79277E-02  6.31449E+01 -1.00000E+00  1.33528E-01
      21    -1     0     0   502   511  0.000000000E+00  0.000000000E+00  3.828111375E+02  3.828111375E+02  0.000000000E+00  0.00000E+00  9.000E+00
      21    -1     0     0   501   502  0.000000000E+00  0.000000000E+00 -1.895725069E+02  1.895725069E+02  0.000000000E+00  0.00000E+00  9.000E+00
      25     1     1     2     0     0 -1.687754525E+02  1.458474332E+01  9.177941879E+01  2.296656914E+02  1.250000000E+02  0.00000E+00  9.000E+00
      25     1     1     2     0     0  2.268845409E+02  1.012571770E+01  5.682977262E+01  2.653935721E+02  1.250000000E+02  0.00000E+00  9.000E+00
      21     1     1     2   501   511 -5.810908840E+01 -2.471046101E+01  4.462943916E+01  7.732438088E+01  8.259061849E-07  0.00000E+00  9.000E+00
#rwgt            1           1   1.4859333134988457E-002          10      148908           0
</event>
<event>
      5   9999  3.79277E-02  5.48851E+01 -1.00000E+00  1.36804E-01
      21    -1     0     0   502   501  0.000000000E+00  0.000000000E+00  1.489430176E+02  1.489430176E+02  0.000000000E+00  0.00000E+00  9.000E+00
      21    -1     0     0   512   502  0.000000000E+00  0.000000000E+00 -5.576099700E+02  5.576099700E+02  0.000000000E+00  0.00000E+00  9.000E+00
      25     1     1     2     0     0  6.215083365E+01  4.502110560E+01  7.060934240E+01  1.627891437E+02  1.250000000E+02  0.00000E+00  9.000E+00
      25     1     1     2     0     0 -3.346146480E+01 -9.181100844E+01 -1.819401906E+02  2.414045647E+02  1.250000000E+02  0.00000E+00  9.000E+00
      21     1     1     2   512   501 -2.868936885E+01  4.678990284E+01 -2.973361042E+02  3.023592792E+02  0.000000000E+00  0.00000E+00  9.000E+00
#rwgt            1           1   5.2030974552846034E-002          10      149007           0
</event>
<event>
      5   9999  3.79277E-02  3.98894E+01 -1.00000E+00  1.44915E-01
      21    -1     0     0   502   511  0.000000000E+00  0.000000000E+00  1.205180297E+03  1.205180297E+03  0.000000000E+00  0.00000E+00  9.000E+00
      21    -1     0     0   501   502  0.000000000E+00  0.000000000E+00 -7.073182097E+01  7.073182097E+01  0.000000000E+00  0.00000E+00  9.000E+00
      25     1     1     2     0     0  1.483454949E+02  1.484986359E+02  4.833103626E+02  5.415460621E+02  1.250000000E+02  0.00000E+00  9.000E+00
      25     1     1     2     0     0 -1.278571310E+02 -1.827242554E+02  3.659858238E+02  4.464372550E+02  1.250000000E+02  0.00000E+00  9.000E+00
      21     1     1     2   501   511 -2.048836391E+01  3.422561954E+01  2.851522899E+02  2.879288011E+02  0.000000000E+00  0.00000E+00  9.000E+00
#rwgt            1           1  0.28936246608586014               10      149176           0
</event>
<event>
      5   9999  3.79277E-02  1.87329E+02 -1.00000E+00  1.12693E-01
      21    -1     0     0   502   501  0.000000000E+00  0.000000000E+00  1.552075707E+03  1.552075707E+03  0.000000000E+00  0.00000E+00  9.000E+00
      21    -1     0     0   512   502  0.000000000E+00  0.000000000E+00 -7.550641341E+02  7.550641341E+02  0.000000000E+00  0.00000E+00  9.000E+00
      25     1     1     2     0     0 -1.712242306E+02 -1.907570161E+02  6.788144175E+02  7.362879802E+02  1.250000000E+02  0.00000E+00  9.000E+00
      25     1     1     2     0     0  9.640350321E+01  1.901843288E+01  8.247248742E+02  8.399115753E+02  1.250000000E+02  0.00000E+00  9.000E+00
      21     1     1     2   512   501  7.482072740E+01  1.717385832E+02 -7.065277193E+02  7.309402851E+02  0.000000000E+00  0.00000E+00  9.000E+00
#rwgt            1           1   6.2870075896255956E-002          10      149562           0
</event>
<event>
      5   9999  3.79277E-02  1.86224E+02 -1.00000E+00  1.12788E-01
       2    -1     0     0   502     0  0.000000000E+00  0.000000000E+00  2.299922665E+03  2.299922665E+03  0.000000000E+00  0.00000E+00  9.000E+00
      21    -1     0     0   501   502  0.000000000E+00  0.000000000E+00 -1.139047401E+02  1.139047401E+02  0.000000000E+00  0.00000E+00  9.000E+00
      25     1     1     2     0     0  1.510221896E+02  2.436828566E+01  1.809483973E+02  2.678970652E+02  1.250000000E+02  0.00000E+00  9.000E+00
      25     1     1     2     0     0 -1.342302485E+02 -2.098337458E+02  2.306425807E+02  3.617581520E+02  1.250000000E+02  0.00000E+00  9.000E+00
       2     1     1     2   501     0 -1.679194110E+01  1.854654602E+02  1.774426946E+03  1.784172187E+03  0.000000000E+00  0.00000E+00  9.000E+00
#rwgt            1           1   3.4997541225738824E-002          10      149595           0
</event>
<event>
      5   9999  3.79277E-02  3.88598E+01 -1.00000E+00  1.45623E-01
      21    -1     0     0   502   501  0.000000000E+00  0.000000000E+00  2.248892508E+02  2.248892508E+02  0.000000000E+00  0.00000E+00  9.000E+00
      21    -1     0     0   511   502  0.000000000E+00  0.000000000E+00 -1.733406692E+02  1.733406692E+02  0.000000000E+00  0.00000E+00  9.000E+00
      25     1     1     2     0     0  6.360321667E+01 -5.167153446E+01 -2.577101157E+01  1.516722179E+02  1.250000000E+02  0.00000E+00  9.000E+00
      25     1     1     2     0     0 -8.031692871E+01  1.658963354E+01  1.178803843E+02  1.903859501E+02  1.250000000E+02  0.00000E+00  9.000E+00
      21     1     1     2   511   501  1.671371204E+01  3.508190092E+01 -4.056079121E+01  5.617175203E+01  1.168007728E-06  0.00000E+00  9.000E+00
#rwgt            1           1   2.4847336224801231E-002          10      149654           0
</event>
<event>
      5   9999  3.79277E-02  3.02307E+01 -1.00000E+00  1.52809E-01
      21    -1     0     0   502   501  0.000000000E+00  0.000000000E+00  2.226863642E+02  2.226863642E+02  0.000000000E+00  0.00000E+00  9.000E+00
      21    -1     0     0   512   502  0.000000000E+00  0.000000000E+00 -2.496164338E+02  2.496164338E+02  0.000000000E+00  0.00000E+00  9.000E+00
      25     1     1     2     0     0 -7.737617446E+01  1.265889867E+02 -3.142454806E+01  1.965307766E+02  1.250000000E+02  0.00000E+00  9.000E+00
      25     1     1     2     0     0  7.967627798E+01 -9.644595615E+01  8.025251246E+01  1.942050398E+02  1.250000000E+02  0.00000E+00  9.000E+00
      21     1     1     2   512   501 -2.300103526E+00 -3.014303059E+01 -7.575803403E+01  8.156698162E+01  9.536743164E-07  0.00000E+00  9.000E+00
#rwgt            1           1   4.0745182535592277E-002          10      149750           0
</event>
<event>
      5   9999  3.79277E-02  4.96478E+01 -1.00000E+00  1.39251E-01
      21    -1     0     0   502   501  0.000000000E+00  0.000000000E+00  1.204948255E+02  1.204948255E+02  0.000000000E+00  0.00000E+00  9.000E+00
      21    -1     0     0   501   511  0.000000000E+00  0.000000000E+00 -8.595313017E+02  8.595313017E+02  0.000000000E+00  0.00000E+00  9.000E+00
      25     1     1     2     0     0  2.145534044E+01  2.117427067E+02 -9.282039621E+01  2.636966656E+02  1.250000000E+02  0.00000E+00  9.000E+00
      25     1     1     2     0     0  2.694764833E+01 -2.227907373E+02 -5.720587229E+02  6.270869723E+02  1.250000000E+02  0.00000E+00  9.000E+00
      21     1     1     2   502   511 -4.840298877E+01  1.104803059E+01 -7.415735707E+01  8.924248938E+01  1.651812370E-06  0.00000E+00  9.000E+00
#rwgt            1           1   4.8759415053264754E-002          10      149852           0
</event>
<event>
      5   9999  3.79277E-02  1.85219E+01 -1.00000E+00  1.69168E-01
      21    -1     0     0   502   501  0.000000000E+00  0.000000000E+00  1.299124267E+03  1.299124267E+03  0.000000000E+00  0.00000E+00  9.000E+00
       4    -1     0     0   501     0  0.000000000E+00  0.000000000E+00 -5.051419529E+01  5.051419529E+01  0.000000000E+00  0.00000E+00  9.000E+00
      25     1     1     2     0     0  4.699053500E+01  2.096941337E+01  1.173207693E+03  1.180969566E+03  1.250000000E+02  0.00000E+00  9.000E+00
      25     1     1     2     0     0 -4.146964218E+01 -3.289433759E+00  7.090097946E+01  1.496078223E+02  1.250000000E+02  0.00000E+00  9.000E+00
       4     1     1     2   502     0 -5.520892817E+00 -1.767997961E+01  4.501399868E+00  1.906107388E+01  3.953724850E-07  0.00000E+00  9.000E+00
#rwgt            1           1   4.4777422141758734E-002          10      149990           0
</event>
<event>
      5   9999  3.79277E-02  2.81226E+01 -1.00000E+00  1.55015E-01
       1    -1     0     0   502     0  0.000000000E+00  0.000000000E+00  2.454164897E+02  2.454164897E+02  0.000000000E+00  0.00000E+00  9.000E+00
      21    -1     0     0   501   502  0.000000000E+00  0.000000000E+00 -3.125588567E+02  3.125588567E+02  0.000000000E+00  0.00000E+00  9.000E+00
      25     1     1     2     0     0 -7.675237750E+01 -2.299886472E+02 -2.805729435E+01  2.742223862E+02  1.250000000E+02  0.00000E+00  9.000E+00
      25     1     1     2     0     0  5.975409889E+01  2.075846457E+02 -2.130509696E+01  2.504812261E+02  1.250000000E+02  0.00000E+00  9.000E+00
       1     1     1     2   501     0  1.699827862E+01  2.240400151E+01 -1.777997566E+01  3.327173416E+01  6.307962682E-07  0.00000E+00  9.000E+00
#rwgt            1           1   4.0374825538192854E-002          10      150256           0
</event>
<event>
      5   9999  3.79277E-02  2.53688E+01 -1.00000E+00  1.58276E-01
      21    -1     0     0   502   501  0.000000000E+00  0.000000000E+00  7.229669079E+02  7.229669079E+02  0.000000000E+00  0.00000E+00  9.000E+00
      21    -1     0     0   511   502  0.000000000E+00  0.000000000E+00 -1.908162178E+02  1.908162178E+02  0.000000000E+00  0.00000E+00  9.000E+00
      25     1     1     2     0     0  5.611989724E+01  1.063656397E+02 -1.180257359E+02  2.098050678E+02  1.250000000E+02  0.00000E+00  9.000E+00
      25     1     1     2     0     0 -6.572135278E+01 -8.288399695E+01  6.574913048E+02  6.775757294E+02  1.250000000E+02  0.00000E+00  9.000E+00
      21     1     1     2   511   501  9.601455543E+00 -2.348164272E+01 -7.314878919E+00  2.640232844E+01  2.230201594E-07  0.00000E+00  9.000E+00
#rwgt            1           1   3.9241577615065630E-002          10      150416           0
</event>
<event>
      5   9999  3.79277E-02  1.15110E+02 -1.00000E+00  1.21140E-01
      21    -1     0     0   502   501  0.000000000E+00  0.000000000E+00  6.472791315E+02  6.472791315E+02  0.000000000E+00  0.00000E+00  9.000E+00
      -1    -1     0     0     0   502  0.000000000E+00  0.000000000E+00 -1.419804743E+02  1.419804743E+02  0.000000000E+00  0.00000E+00  9.000E+00
      25     1     1     2     0     0 -1.749910305E+02  5.915365061E+01  1.407245037E+02  2.637222043E+02  1.250000000E+02  0.00000E+00  9.000E+00
      25     1     1     2     0     0  9.516151819E+01 -1.420846053E+02  3.505478643E+02  4.095760671E+02  1.250000000E+02  0.00000E+00  9.000E+00
      -1     1     1     2     0   501  7.982951229E+01  8.293095465E+01  1.402628924E+01  1.159613343E+02  2.800784141E-06  0.00000E+00  9.000E+00
#rwgt            1           1   2.9758562726555006E-002          10      150666           0
</event>
<event>
      5   9999  3.79277E-02  6.52236E+01 -1.00000E+00  1.32794E-01
      21    -1     0     0   502   501  0.000000000E+00  0.000000000E+00  1.758217455E+02  1.758217455E+02  0.000000000E+00  0.00000E+00  9.000E+00
      21    -1     0     0   511   502  0.000000000E+00  0.000000000E+00 -4.813490011E+02  4.813490011E+02  0.000000000E+00  0.00000E+00  9.000E+00
      25     1     1     2     0     0  1.421473640E+01 -1.342297711E+01 -1.334415337E+02  1.838855023E+02  1.250000000E+02  0.00000E+00  9.000E+00
      25     1     1     2     0     0  2.473649705E+01 -3.889259713E+01  1.167699234E+02  1.771573973E+02  1.250000000E+02  0.00000E+00  9.000E+00
      21     1     1     2   511   501 -3.895123345E+01  5.231557424E+01 -2.888556454E+02  2.961278470E+02  3.814697266E-06  0.00000E+00  9.000E+00
#rwgt            1           1   6.0868262294698945E-002          10      150772           0
</event>
<event>
      5   9999  3.79277E-02  6.12866E+01 -1.00000E+00  1.34213E-01
      21    -1     0     0   502   512  0.000000000E+00  0.000000000E+00  1.494356493E+02  1.494356493E+02  0.000000000E+00  0.00000E+00  9.000E+00
      21    -1     0     0   501   502  0.000000000E+00  0.000000000E+00 -3.818934852E+02  3.818934852E+02  0.000000000E+00  0.00000E+00  9.000E+00
      25     1     1     2     0     0 -1.363103204E+02 -9.151041749E+01 -2.281144353E+02  3.075969043E+02  1.250000000E+02  0.00000E+00  9.000E+00
      25     1     1     2     0     0  9.007000683E+01  5.128758799E+01 -4.525943843E+00  1.624453969E+02  1.250000000E+02  0.00000E+00  9.000E+00
      21     1     1     2   501   512  4.624031360E+01  4.022282950E+01  1.825432684E-01  6.128683331E+01  1.333359929E-06  0.00000E+00  9.000E+00
#rwgt            1           1   3.3594039167768423E-002          10      150932           0
</event>
<event>
      5   9999  3.79277E-02  8.96126E+00 -1.00000E+00  2.01429E-01
      21    -1     0     0   502   501  0.000000000E+00  0.000000000E+00  5.794974179E+02  5.794974179E+02  0.000000000E+00  0.00000E+00  9.000E+00
      21    -1     0     0   511   502  0.000000000E+00  0.000000000E+00 -1.049149689E+02  1.049149689E+02  0.000000000E+00  0.00000E+00  9.000E+00
      25     1     1     2     0     0 -1.297722835E+02 -1.321011280E+02  2.525059702E+02  3.371584472E+02  1.250000000E+02  0.00000E+00  9.000E+00
      25     1     1     2     0     0  1.208377557E+02  1.327928216E+02  2.415034149E+02  3.258597798E+02  1.250000000E+02  0.00000E+00  9.000E+00
      21     1     1     2   511   501  8.934527803E+00 -6.916936209E-01 -1.942693607E+01  2.139415977E+01  0.000000000E+00  0.00000E+00  9.000E+00
#rwgt            1           1   1.9333665904841216E-002          10      151084           0
</event>
<event>
      5   9999  3.79277E-02  9.71681E+01 -1.00000E+00  1.24392E-01
      21    -1     0     0   502   512  0.000000000E+00  0.000000000E+00  1.514940177E+02  1.514940177E+02  0.000000000E+00  0.00000E+00  9.000E+00
      21    -1     0     0   501   502  0.000000000E+00  0.000000000E+00 -8.756540116E+02  8.756540116E+02  0.000000000E+00  0.00000E+00  9.000E+00
      25     1     1     2     0     0 -1.976317968E+01  6.408213980E+01 -7.607297154E+02  7.738422344E+02  1.250000000E+02  0.00000E+00  9.000E+00
      25     1     1     2     0     0 -5.028130732E+01  3.263271908E+00 -2.664844111E+01  1.373826708E+02  1.250000000E+02  0.00000E+00  9.000E+00
      21     1     1     2   501   512  7.004448700E+01 -6.734541171E+01  6.321816259E+01  1.159231242E+02  1.168007728E-06  0.00000E+00  9.000E+00
#rwgt            1           1   3.2075644863137055E-002          10      151384           0
</event>
<event>
      5   9999  3.79277E-02  1.80113E+01 -1.00000E+00  1.70212E-01
       1    -1     0     0   502     0  0.000000000E+00  0.000000000E+00  4.189795353E+02  4.189795353E+02  0.000000000E+00  0.00000E+00  9.000E+00
      21    -1     0     0   501   502  0.000000000E+00  0.000000000E+00 -1.426577866E+02  1.426577866E+02  0.000000000E+00  0.00000E+00  9.000E+00
      25     1     1     2     0     0  1.765598032E+01  6.411940694E+01  1.395732569E+02  1.988183241E+02  1.250000000E+02  0.00000E+00  9.000E+00
      25     1     1     2     0     0 -5.808617617E+00 -5.055302753E+01 -7.222467877E+01  1.530710713E+02  1.250000000E+02  0.00000E+00  9.000E+00
       1     1     1     2   501     0 -1.184736270E+01 -1.356637941E+01  2.089731706E+02  2.097479265E+02  3.814697266E-06  0.00000E+00  9.000E+00
#rwgt            1           1   2.7904941195088576E-002          10      151521           0
</event>
<event>
      5   9999  3.79277E-02  2.30919E+01 -1.00000E+00  1.61378E-01
      21    -1     0     0   502   501  0.000000000E+00  0.000000000E+00  1.830847915E+02  1.830847915E+02  0.000000000E+00  0.00000E+00  9.000E+00
      21    -1     0     0   511   502  0.000000000E+00  0.000000000E+00 -7.176157722E+02  7.176157722E+02  0.000000000E+00  0.00000E+00  9.000E+00
      25     1     1     2     0     0  2.352853222E+02 -1.992248740E+02 -2.953003295E+02  4.448336969E+02  1.250000000E+02  0.00000E+00  9.000E+00
      25     1     1     2     0     0 -2.453558076E+02  2.200052159E+02 -1.875266611E+02  3.992405490E+02  1.250000000E+02  0.00000E+00  9.000E+00
      21     1     1     2   511   501  1.007048539E+01 -2.078034195E+01 -5.170399002E+01  5.662631784E+01  0.000000000E+00  0.00000E+00  9.000E+00
#rwgt            1           1   3.4405980171866794E-002          10      151765           0
</event>
<event>
      5   9999  3.79277E-02  3.88574E+01 -1.00000E+00  1.45625E-01
      21    -1     0     0   502   501  0.000000000E+00  0.000000000E+00  4.532517199E+01  4.532517199E+01  0.000000000E+00  0.00000E+00  9.000E+00
       2    -1     0     0   501     0  0.000000000E+00  0.000000000E+00 -1.894610663E+03  1.894610663E+03  0.000000000E+00  0.00000E+00  9.000E+00
      25     1     1     2     0     0  1.226613561E+02 -1.246786141E+02 -5.529440612E+02  5.932644435E+02  1.250000000E+02  0.00000E+00  9.000E+00
      25     1     1     2     0     0 -9.867427859E+01  1.552484688E+02 -4.758344005E+02  5.252447782E+02  1.250000000E+02  0.00000E+00  9.000E+00
       2     1     1     2   502     0 -2.398707751E+01 -3.056985476E+01 -8.205070297E+02  8.214266137E+02  1.078959322E-05  0.00000E+00  9.000E+00
#rwgt            1           1   4.5726385954021870E-002          10      152025           0
</event>
<event>
      5   9999  3.79277E-02  1.38130E+01 -1.00000E+00  1.80824E-01
      21    -1     0     0   511   501  0.000000000E+00  0.000000000E+00  9.603836566E+02  9.603836566E+02  0.000000000E+00  0.00000E+00  9.000E+00
      21    -1     0     0   501   502  0.000000000E+00  0.000000000E+00 -6.728152282E+01  6.728152282E+01  0.000000000E+00  0.00000E+00  9.000E+00
      25     1     1     2     0     0 -1.853963154E+02 -9.061688010E+01  2.903785245E+02  3.775286747E+02  1.250000000E+02  0.00000E+00  9.000E+00
      25     1     1     2     0     0  1.724937193E+02  8.568511909E+01  5.603545658E+02  6.055726729E+02  1.250000000E+02  0.00000E+00  9.000E+00
      21     1     1     2   511   502  1.290259616E+01  4.931761003E+00  4.236904353E+01  4.456383179E+01  6.743495762E-07  0.00000E+00  9.000E+00
#rwgt            1           1   3.8927565032100223E-002          10      152131           0
</event>
<event>
      5   9999  3.79277E-02  1.17148E+01 -1.00000E+00  1.88133E-01
      21    -1     0     0   502   501  0.000000000E+00  0.000000000E+00  1.165239185E+02  1.165239185E+02  0.000000000E+00  0.00000E+00  9.000E+00
      21    -1     0     0   512   502  0.000000000E+00  0.000000000E+00 -3.150039345E+02  3.150039345E+02  0.000000000E+00  0.00000E+00  9.000E+00
      25     1     1     2     0     0 -1.390798228E+01 -1.147957958E+02 -7.878118719E+01  1.876245777E+02  1.250000000E+02  0.00000E+00  9.000E+00
      25     1     1     2     0     0  2.550845757E+01  1.131631708E+02 -5.653190641E+01  1.796592360E+02  1.250000000E+02  0.00000E+00  9.000E+00
      21     1     1     2   512   501 -1.160047529E+01  1.632624974E+00 -6.316692247E+01  6.424403930E+01  0.000000000E+00  0.00000E+00  9.000E+00
#rwgt            1           1   4.3188678217196741E-002          10      152419           0
</event>
<event>
      5   9999  3.79277E-02  5.33503E+01 -1.00000E+00  1.37487E-01
      21    -1     0     0   502   501  0.000000000E+00  0.000000000E+00  1.138566811E+03  1.138566811E+03  0.000000000E+00  0.00000E+00  9.000E+00
      21    -1     0     0   511   502  0.000000000E+00  0.000000000E+00 -1.450737091E+02  1.450737091E+02  0.000000000E+00  0.00000E+00  9.000E+00
      25     1     1     2     0     0 -5.037962307E+01 -2.099084159E+02  5.925880709E+02  6.429504423E+02  1.250000000E+02  0.00000E+00  9.000E+00
      25     1     1     2     0     0  6.991961021E+01  1.602652028E+02  4.909995586E+02  5.359843782E+02  1.250000000E+02  0.00000E+00  9.000E+00
      21     1     1     2   511   501 -1.953998714E+01  4.964321306E+01 -9.009452742E+01  1.047056998E+02  4.046097457E-06  0.00000E+00  9.000E+00
#rwgt            1           1   3.4501247099029728E-002          10      152535           0
</event>
<event>
      5   9999  3.79277E-02  1.58021E+01 -1.00000E+00  1.75279E-01
      21    -1     0     0   512   501  0.000000000E+00  0.000000000E+00  3.446758035E+03  3.446758035E+03  0.000000000E+00  0.00000E+00  9.000E+00
      21    -1     0     0   501   502  0.000000000E+00  0.000000000E+00 -2.193509575E+01  2.193509575E+01  0.000000000E+00  0.00000E+00  9.000E+00
      25     1     1     2     0     0  3.922125970E+01 -1.764897540E+02  7.075683361E+02  7.409216495E+02  1.250000000E+02  0.00000E+00  9.000E+00
      25     1     1     2     0     0 -2.350963288E+01  1.781778497E+02  2.349326841E+03  2.359504535E+03  1.250000000E+02  0.00000E+00  9.000E+00
      21     1     1     2   512   502 -1.571162682E+01 -1.688095704E+00  3.679277629E+02  3.682669462E+02  0.000000000E+00  0.00000E+00  9.000E+00
#rwgt            1           1   3.2114371335057609E-002          10      152784           0
</event>
<event>
      5   9999  3.79277E-02  9.05687E+01 -1.00000E+00  1.25794E-01
      21    -1     0     0   502   501  0.000000000E+00  0.000000000E+00  7.919950851E+02  7.919950851E+02  0.000000000E+00  0.00000E+00  9.000E+00
      21    -1     0     0   511   502  0.000000000E+00  0.000000000E+00 -1.106947121E+02  1.106947121E+02  0.000000000E+00  0.00000E+00  9.000E+00
      25     1     1     2     0     0 -6.890168193E+01  1.527534877E+02  1.083718476E+02  2.354793561E+02  1.250000000E+02  0.00000E+00  9.000E+00
      25     1     1     2     0     0 -3.948949348E+00 -2.065631592E+02  4.807338187E+02  5.379720600E+02  1.250000000E+02  0.00000E+00  9.000E+00
      21     1     1     2   511   501  7.285063128E+01  5.380967147E+01  9.219470672E+01  1.292383812E+02  2.336015456E-06  0.00000E+00  9.000E+00
#rwgt            1           1   4.0784415798170347E-002          10      153140           0
</event>
<event>
      5   9999 -3.79277E-02  1.01813E+02 -1.00000E+00  1.23478E-01
      21    -1     0     0   502   501  0.000000000E+00  0.000000000E+00  1.746396124E+02  1.746396124E+02  0.000000000E+00  0.00000E+00  9.000E+00
      21    -1     0     0   501   512  0.000000000E+00  0.000000000E+00 -4.377559951E+02  4.377559951E+02  0.000000000E+00  0.00000E+00  9.000E+00
      25     1     1     2     0     0 -7.214831555E+01 -9.590569638E+01  9.036518608E+00  1.735221620E+02  1.250000000E+02  0.00000E+00  9.000E+00
      25     1     1     2     0     0  3.613984745E+01  1.911389201E+02 -1.339683697E+02  2.672315465E+02  1.250000000E+02  0.00000E+00  9.000E+00
      21     1     1     2   502   512  3.600846810E+01 -9.523322376E+01 -1.381845316E+02  1.716418989E+02  2.697398305E-06  0.00000E+00  9.000E+00
#rwgt            1           1  -6.5182183975159597E-002          10      153316           0
</event>
<event>
      5   9999  3.79277E-02  9.75309E+00 -1.00000E+00  1.97021E-01
      21    -1     0     0   511   501  0.000000000E+00  0.000000000E+00  9.995671324E+02  9.995671324E+02  0.000000000E+00  0.00000E+00  9.000E+00
      21    -1     0     0   501   502  0.000000000E+00  0.000000000E+00 -2.182882160E+02  2.182882160E+02  0.000000000E+00  0.00000E+00  9.000E+00
      25     1     1     2     0     0 -3.435296482E+02  2.673846461E+02  3.706326579E+02  5.852356237E+02  1.250000000E+02  0.00000E+00  9.000E+00
      25     1     1     2     0     0  3.523354456E+02 -2.715775852E+02  3.733289393E+02  5.940489440E+02  1.250000000E+02  0.00000E+00  9.000E+00
      21     1     1     2   511   502 -8.805797369E+00  4.192939129E+00  3.731731923E+01  3.857078066E+01  0.000000000E+00  0.00000E+00  9.000E+00
#rwgt            1           1  0.17540722980156084               10      153430           0
</event>
<event>
      5   9999  3.79277E-02  1.28828E+02 -1.00000E+00  1.19074E-01
      21    -1     0     0   512   501  0.000000000E+00  0.000000000E+00  5.511595501E+02  5.511595501E+02  0.000000000E+00  0.00000E+00  9.000E+00
      21    -1     0     0   501   502  0.000000000E+00  0.000000000E+00 -5.554031722E+02  5.554031722E+02  0.000000000E+00  0.00000E+00  9.000E+00
      25     1     1     2     0     0  4.976765720E+01  1.671124973E+02  1.277139412E+02  2.496783075E+02  1.250000000E+02  0.00000E+00  9.000E+00
      25     1     1     2     0     0  5.042641796E+01 -2.480932481E+02 -4.401074610E+02  5.228887650E+02  1.250000000E+02  0.00000E+00  9.000E+00
      21     1     1     2   512   502 -1.001940752E+02  8.098075085E+01  3.081498977E+02  3.339956499E+02  5.394796609E-06  0.00000E+00  9.000E+00
#rwgt            1           1   4.7512812434514405E-002          10      153760           0
</event>
<event>
      5   9999  3.79277E-02  2.72612E+01 -1.00000E+00  1.55985E-01
      21    -1     0     0   511   501  0.000000000E+00  0.000000000E+00  1.532418242E+03  1.532418242E+03  0.000000000E+00  0.00000E+00  9.000E+00
      21    -1     0     0   501   502  0.000000000E+00  0.000000000E+00 -2.472920289E+01  2.472920289E+01  0.000000000E+00  0.00000E+00  9.000E+00
      25     1     1     2     0     0  3.622644356E+01 -8.718764048E+01  4.934702698E+02  5.177373341E+02  1.250000000E+02  0.00000E+00  9.000E+00
      25     1     1     2     0     0 -5.663974080E+01  1.052561121E+02  6.036499653E+02  6.279372501E+02  1.250000000E+02  0.00000E+00  9.000E+00
      21     1     1     2   511   502  2.041329723E+01 -1.806847165E+01  4.105688041E+02  4.114728610E+02  9.344061824E-06  0.00000E+00  9.000E+00
#rwgt            1           1   4.6523946634487563E-002          10      153909           0
</event>
<event>
      5   9999  3.79277E-02  3.09222E+01 -1.00000E+00  1.52132E-01
      21    -1     0     0   502   501  0.000000000E+00  0.000000000E+00  2.783987084E+01  2.783987084E+01  0.000000000E+00  0.00000E+00  9.000E+00
      21    -1     0     0   512   502  0.000000000E+00  0.000000000E+00 -2.766867646E+03  2.766867646E+03  0.000000000E+00  0.00000E+00  9.000E+00
      25     1     1     2     0     0 -1.208402149E+02  7.157842858E+01 -4.558166953E+02  4.930716872E+02  1.250000000E+02  0.00000E+00  9.000E+00
      25     1     1     2     0     0  1.419643830E+02 -4.899634652E+01 -1.049328152E+03  1.067365495E+03  1.250000000E+02  0.00000E+00  9.000E+00
      21     1     1     2   512   501 -2.112416816E+01 -2.258208207E+01 -1.233882927E+03  1.234270334E+03  1.525878906E-05  0.00000E+00  9.000E+00
#rwgt            1           1   4.6353593724250033E-002          10      154101           0
</event>
<event>
      5   9999  3.79277E-02  1.19507E+02 -1.00000E+00  1.20444E-01
      21    -1     0     0   502   501  0.000000000E+00  0.000000000E+00  3.749399712E+02  3.749399712E+02  0.000000000E+00  0.00000E+00  9.000E+00
       1    -1     0     0   501     0  0.000000000E+00  0.000000000E+00 -1.435961898E+03  1.435961898E+03  0.000000000E+00  0.00000E+00  9.000E+00
      25     1     1     2     0     0 -6.790079510E+01  5.329962515E+01  3.348528588E+02  3.676993406E+02  1.250000000E+02  0.00000E+00  9.000E+00
      25     1     1     2     0     0 -3.683135536E+01 -1.108582480E+02 -3.403303142E+02  3.809144558E+02  1.250000000E+02  0.00000E+00  9.000E+00
       1     1     1     2   502     0  1.047321505E+02  5.755862282E+01 -1.055544471E+03  1.062288073E+03  1.525878906E-05  0.00000E+00  9.000E+00
#rwgt            1           1   3.0591430906524008E-002          10      154170           0
</event>
<event>
      5   9999  3.79277E-02  6.09684E+01 -1.00000E+00  1.34333E-01
      21    -1     0     0   502   501  0.000000000E+00  0.000000000E+00  4.501564945E+02  4.501564945E+02  0.000000000E+00  0.00000E+00  9.000E+00
      21    -1     0     0   501   511  0.000000000E+00  0.000000000E+00 -2.676265488E+02  2.676265488E+02  0.000000000E+00  0.00000E+00  9.000E+00
      25     1     1     2     0     0  1.204860897E+02  3.258477957E+01  2.831047345E+02  3.336944057E+02  1.250000000E+02  0.00000E+00  9.000E+00
      25     1     1     2     0     0 -1.028404368E+02 -9.094378492E+01  7.346993828E+01  1.996741327E+02  1.250000000E+02  0.00000E+00  9.000E+00
      21     1     1     2   502   511 -1.764565296E+01  5.835900534E+01 -1.740447271E+02  1.844145049E+02  3.303624740E-06  0.00000E+00  9.000E+00
#rwgt            1           1   4.2723792527133445E-002          10      154268           0
</event>
<event>
      5   9999 -3.79277E-02  8.92986E+01 -1.00000E+00  1.26080E-01
      21    -1     0     0   512   501  0.000000000E+00  0.000000000E+00  4.396574920E+01  4.396574920E+01  0.000000000E+00  0.00000E+00  9.000E+00
      21    -1     0     0   501   502  0.000000000E+00  0.000000000E+00 -1.475662393E+03  1.475662393E+03  0.000000000E+00  0.00000E+00  9.000E+00
      25     1     1     2     0     0  1.016868260E+01  1.190698774E+02 -3.039102473E+02  3.496676654E+02  1.250000000E+02  0.00000E+00  9.000E+00
      25     1     1     2     0     0 -9.832412669E+01 -1.333124968E+02 -9.311948593E+02  9.540381133E+02  1.250000000E+02  0.00000E+00  9.000E+00
      21     1     1     2   512   502  8.815544408E+01  1.424261941E+01 -1.965915368E+02  2.159223631E+02  2.697398305E-06  0.00000E+00  9.000E+00
#rwgt            1           1 -0.26188941283157707               10      154336           0
</event>
<event>
      5   9999  3.79277E-02  7.04655E+01 -1.00000E+00  1.31075E-01
      21    -1     0     0   511   501  0.000000000E+00  0.000000000E+00  1.764750912E+02  1.764750912E+02  0.000000000E+00  0.00000E+00  9.000E+00
      21    -1     0     0   501   502  0.000000000E+00  0.000000000E+00 -4.934736678E+02  4.934736678E+02  0.000000000E+00  0.00000E+00  9.000E+00
      25     1     1     2     0     0  6.754919965E+00 -6.675704058E+01 -1.812429693E+01  1.430231504E+02  1.250000000E+02  0.00000E+00  9.000E+00
      25     1     1     2     0     0  5.399812824E+01  1.024564408E+02 -3.818013780E+02  4.181033513E+02  1.250000000E+02  0.00000E+00  9.000E+00
      21     1     1     2   511   502 -6.075304821E+01 -3.569940020E+01  8.292709835E+01  1.088222573E+02  1.907348633E-06  0.00000E+00  9.000E+00
#rwgt            1           1   4.5953783716614710E-002          10      154458           0
</event>
<event>
      5   9999  3.79277E-02  2.37336E+01 -1.00000E+00  1.60461E-01
      21    -1     0     0   502   501  0.000000000E+00  0.000000000E+00  3.590336800E+02  3.590336800E+02  0.000000000E+00  0.00000E+00  9.000E+00
      21    -1     0     0   512   502  0.000000000E+00  0.000000000E+00 -2.622109101E+02  2.622109101E+02  0.000000000E+00  0.00000E+00  9.000E+00
      25     1     1     2     0     0 -3.420023421E+01  1.855354446E+02  2.506689029E+02  3.377172725E+02  1.250000000E+02  0.00000E+00  9.000E+00
      25     1     1     2     0     0  4.918743390E+01 -1.671325780E+02 -1.385762606E+02  2.553058603E+02  1.250000000E+02  0.00000E+00  9.000E+00
      21     1     1     2   512   501 -1.498719969E+01 -1.840286660E+01 -1.526987243E+01  2.822145740E+01  2.920019320E-07  0.00000E+00  9.000E+00
#rwgt            1           1   4.4771287060932238E-002          10      154557           0
</event>
<event>
      5   9999  3.79277E-02  9.08357E+01 -1.00000E+00  1.25735E-01
      21    -1     0     0   502   511  0.000000000E+00  0.000000000E+00  3.027543916E+02  3.027543916E+02  0.000000000E+00  0.00000E+00  9.000E+00
      21    -1     0     0   501   502  0.000000000E+00  0.000000000E+00 -1.939530076E+02  1.939530076E+02  0.000000000E+00  0.00000E+00  9.000E+00
      25     1     1     2     0     0  1.351013906E+02  5.860416743E+01 -4.987962831E+01  1.994989010E+02  1.250000000E+02  0.00000E+00  9.000E+00
      25     1     1     2     0     0 -8.889681641E+01  1.960239315E+01  1.298031137E+02  2.018929076E+02  1.250000000E+02  0.00000E+00  9.000E+00
      21     1     1     2   501   511 -4.620457417E+01 -7.820656058E+01  2.887789851E+01  9.531559062E+01  5.840038640E-07  0.00000E+00  9.000E+00
#rwgt            1           1   3.9657805133352222E-002          10      154666           0
</event>
<event>
      5   9999  3.79277E-02  3.30365E+01 -1.00000E+00  1.50187E-01
      21    -1     0     0   502   501  0.000000000E+00  0.000000000E+00  1.204385126E+02  1.204385126E+02  0.000000000E+00  0.00000E+00  9.000E+00
      21    -1     0     0   512   502  0.000000000E+00  0.000000000E+00 -6.005628261E+02  6.005628261E+02  0.000000000E+00  0.00000E+00  9.000E+00
      25     1     1     2     0     0  1.833528287E+02 -1.925335807E+00 -1.863504693E+02  2.897817526E+02  1.250000000E+02  0.00000E+00  9.000E+00
      25     1     1     2     0     0 -1.506304347E+02  6.470378772E+00 -7.460759104E+01  2.095773993E+02  1.250000000E+02  0.00000E+00  9.000E+00
      21     1     1     2   512   501 -3.272239398E+01 -4.545042965E+00 -2.191662530E+02  2.216421868E+02  3.814697266E-06  0.00000E+00  9.000E+00
#rwgt            1           1   4.3417567996599973E-002          10      154784           0
</event>
<event>
      5   9999  3.79277E-02  1.89102E+02 -1.00000E+00  1.12541E-01
      21    -1     0     0   511   501  0.000000000E+00  0.000000000E+00  1.030406600E+03  1.030406600E+03  0.000000000E+00  0.00000E+00  9.000E+00
      21    -1     0     0   501   502  0.000000000E+00  0.000000000E+00 -1.021677961E+02  1.021677961E+02  0.000000000E+00  0.00000E+00  9.000E+00
      25     1     1     2     0     0 -7.950636196E+01 -3.025862681E+01  4.280791848E+01  1.571444048E+02  1.250000000E+02  0.00000E+00  9.000E+00
      25     1     1     2     0     0 -5.676508175E+01  1.613682602E+02  3.694389744E+02  4.258780878E+02  1.250000000E+02  0.00000E+00  9.000E+00
      21     1     1     2   511   502  1.362714437E+02 -1.311096334E+02  5.159919114E+02  5.495519038E+02  7.629394531E-06  0.00000E+00  9.000E+00
#rwgt            1           1   2.9775696330906862E-002          10      154896           0
</event>
<event>
      5   9999  3.79277E-02  9.00378E+01 -1.00000E+00  1.25913E-01
      21    -1     0     0   512   501  0.000000000E+00  0.000000000E+00  1.630165385E+02  1.630165385E+02  0.000000000E+00  0.00000E+00  9.000E+00
      21    -1     0     0   501   502  0.000000000E+00  0.000000000E+00 -3.541821639E+02  3.541821639E+02  0.000000000E+00  0.00000E+00  9.000E+00
      25     1     1     2     0     0 -9.877135407E+01  9.133066831E+01 -1.808944104E+02  2.577690033E+02  1.250000000E+02  0.00000E+00  9.000E+00
      25     1     1     2     0     0  1.060762683E+01 -1.096054733E+02  1.087995018E+01  1.669408723E+02  1.250000000E+02  0.00000E+00  9.000E+00
      21     1     1     2   512   502  8.816372724E+01  1.827480503E+01 -2.115116523E+01  9.248882684E+01  1.215700987E-06  0.00000E+00  9.000E+00
#rwgt            1           1   3.9527683749437999E-002          10      154973           0
</event>
<event>
      5   9999  3.79277E-02  5.57627E+01 -1.00000E+00  1.36425E-01
      21    -1     0     0   511   501  0.000000000E+00  0.000000000E+00  9.809885578E+01  9.809885578E+01  0.000000000E+00  0.00000E+00  9.000E+00
      21    -1     0     0   501   502  0.000000000E+00  0.000000000E+00 -9.448519419E+02  9.448519419E+02  0.000000000E+00  0.00000E+00  9.000E+00
      25     1     1     2     0     0 -1.167836027E+02  1.443342632E+02 -5.312338667E+02  5.764592011E+02  1.250000000E+02  0.00000E+00  9.000E+00
      25     1     1     2     0     0  7.194447734E+01 -1.774843876E+02 -3.365456309E+02  4.068963963E+02  1.250000000E+02  0.00000E+00  9.000E+00
      21     1     1     2   511   502  4.483912537E+01  3.315012445E+01  2.102641147E+01  5.959520026E+01  1.305872339E-06  0.00000E+00  9.000E+00
#rwgt            1           1   3.1284984281519324E-002          10      155104           0
</event>
<event>
      5   9999  3.79277E-02  3.55808E+01 -1.00000E+00  1.48066E-01
      21    -1     0     0   502   512  0.000000000E+00  0.000000000E+00  1.623840211E+02  1.623840211E+02  0.000000000E+00  0.00000E+00  9.000E+00
      21    -1     0     0   501   502  0.000000000E+00  0.000000000E+00 -4.314233641E+02  4.314233641E+02  0.000000000E+00  0.00000E+00  9.000E+00
      25     1     1     2     0     0  1.036282521E+02  2.009642021E+01 -3.211122062E+02  3.603896915E+02  1.250000000E+02  0.00000E+00  9.000E+00
      25     1     1     2     0     0 -1.303359486E+02 -4.360589684E+01  2.247149148E+01  1.871333793E+02  1.250000000E+02  0.00000E+00  9.000E+00
      21     1     1     2   501   512  2.670769650E+01  2.350947662E+01  2.960137179E+01  4.628431435E+01  6.743495762E-07  0.00000E+00  9.000E+00
#rwgt            1           1   4.6006688675199650E-002          10      155200           0
</event>
<event>
      5   9999  3.79277E-02  3.32118E+01 -1.00000E+00  1.50034E-01
      21    -1     0     0   502   501  0.000000000E+00  0.000000000E+00  1.322506436E+02  1.322506436E+02  0.000000000E+00  0.00000E+00  9.000E+00
      21    -1     0     0   511   502  0.000000000E+00  0.000000000E+00 -4.912277329E+02  4.912277329E+02  0.000000000E+00  0.00000E+00  9.000E+00
      25     1     1     2     0     0 -4.205188146E+01  1.148147724E+01 -2.447671263E+02  2.782734827E+02  1.250000000E+02  0.00000E+00  9.000E+00
      25     1     1     2     0     0  2.010696490E+01  1.344730605E+01  7.855298797E+01  1.496017781E+02  1.250000000E+02  0.00000E+00  9.000E+00
      21     1     1     2   511   501  2.194491656E+01 -2.492878328E+01 -1.927629510E+02  1.956031157E+02  2.697398305E-06  0.00000E+00  9.000E+00
#rwgt            1           1   3.4621681489331570E-002          10      155321           0
</event>
<event>
      5   9999  3.79277E-02  9.89193E+01 -1.00000E+00  1.24041E-01
      21    -1     0     0   512   501  0.000000000E+00  0.000000000E+00  5.255903254E+02  5.255903254E+02  0.000000000E+00  0.00000E+00  9.000E+00
      21    -1     0     0   501   502  0.000000000E+00  0.000000000E+00 -1.512447366E+02  1.512447366E+02  0.000000000E+00  0.00000E+00  9.000E+00
      25     1     1     2     0     0 -1.600442496E+02 -1.370194414E+01  3.508906789E+02  4.056490769E+02  1.250000000E+02  0.00000E+00  9.000E+00
      25     1     1     2     0     0  6.645968490E+01 -1.834434764E+01 -4.638125668E+01  1.500987201E+02  1.250000000E+02  0.00000E+00  9.000E+00
      21     1     1     2   512   502  9.358456467E+01  3.204629178E+01  6.983616663E+01  1.210872649E+02  3.015782986E-06  0.00000E+00  9.000E+00
#rwgt            1           1   4.4939076261579752E-002          10      155521           0
</event>
<event>
      5   9999  3.79277E-02  3.74739E+01 -1.00000E+00  1.46619E-01
      21    -1     0     0   502   511  0.000000000E+00  0.000000000E+00  1.039376165E+02  1.039376165E+02  0.000000000E+00  0.00000E+00  9.000E+00
      21    -1     0     0   501   502  0.000000000E+00  0.000000000E+00 -6.877043445E+02  6.877043445E+02  0.000000000E+00  0.00000E+00  9.000E+00
      25     1     1     2     0     0  4.226223282E+01 -1.903097705E+02 -1.108370492E+02  2.567367456E+02  1.250000000E+02  0.00000E+00  9.000E+00
      25     1     1     2     0     0 -5.222086621E+01  1.541832936E+02 -4.378816737E+02  4.835957682E+02  1.250000000E+02  0.00000E+00  9.000E+00
      21     1     1     2   501   511  9.958633389E+00  3.612647682E+01 -3.504800510E+01  5.130944716E+01  8.259061849E-07  0.00000E+00  9.000E+00
#rwgt            1           1   4.0451321819550939E-002          10      155607           0
</event>
<event>
      5   9999  3.79277E-02  1.46858E+01 -1.00000E+00  1.78254E-01
      21    -1     0     0   502   501  0.000000000E+00  0.000000000E+00  3.826366358E+02  3.826366358E+02  0.000000000E+00  0.00000E+00  9.000E+00
      21    -1     0     0   512   502  0.000000000E+00  0.000000000E+00 -5.187557139E+02  5.187557139E+02  0.000000000E+00  0.00000E+00  9.000E+00
      25     1     1     2     0     0 -1.260067830E+02 -5.729473072E+01  2.699669419E+02  3.281273309E+02  1.250000000E+02  0.00000E+00  9.000E+00
      25     1     1     2     0     0  1.238560949E+02  7.182218464E+01 -2.477401615E+01  1.916703168E+02  1.250000000E+02  0.00000E+00  9.000E+00
      21     1     1     2   512   501  2.150688156E+00 -1.452745392E+01 -3.813120039E+02  3.815947021E+02  5.394796609E-06  0.00000E+00  9.000E+00
#rwgt            1           1   3.8290444306318956E-002          10      155839           0
</event>
<event>
      5   9999  3.79277E-02  7.23336E+01 -1.00000E+00  1.30503E-01
      21    -1     0     0   502   511  0.000000000E+00  0.000000000E+00  1.377097045E+02  1.377097045E+02  0.000000000E+00  0.00000E+00  9.000E+00
      21    -1     0     0   501   502  0.000000000E+00  0.000000000E+00 -5.928397045E+02  5.928397045E+02  0.000000000E+00  0.00000E+00  9.000E+00
      25     1     1     2     0     0  1.749555869E+02  5.344211637E+01 -9.658876768E+01  2.417021043E+02  1.250000000E+02  0.00000E+00  9.000E+00
      25     1     1     2     0     0 -1.345088870E+02 -1.134105853E+02 -3.561913239E+02  4.164755224E+02  1.250000000E+02  0.00000E+00  9.000E+00
      21     1     1     2   501   511 -4.044669991E+01  5.996846890E+01 -2.349908367E+00  7.237178224E+01  5.591411304E-07  0.00000E+00  9.000E+00
#rwgt            1           1   4.1997398317456261E-002          10      156177           0
</event>
<event>
      5   9999  3.79277E-02  2.33760E+01 -1.00000E+00  1.60967E-01
      21    -1     0     0   512   501  0.000000000E+00  0.000000000E+00  2.618411467E+02  2.618411467E+02  0.000000000E+00  0.00000E+00  9.000E+00
      21    -1     0     0   501   502  0.000000000E+00  0.000000000E+00 -3.482912635E+02  3.482912635E+02  0.000000000E+00  0.00000E+00  9.000E+00
      25     1     1     2     0     0 -4.546769127E+01  2.212941293E+02 -9.965329235E+01  2.767565379E+02  1.250000000E+02  0.00000E+00  9.000E+00
      25     1     1     2     0     0  4.935588090E+01 -2.443445360E+02 -3.377599014E+01  2.809022477E+02  1.250000000E+02  0.00000E+00  9.000E+00
      21     1     1     2   512   502 -3.888189635E+00  2.305040669E+01  4.697916571E+01  5.247362460E+01  6.743495762E-07  0.00000E+00  9.000E+00
#rwgt            1           1   3.9402264728830856E-002          10      156474           0
</event>
<event>
      5   9999  3.79277E-02  2.76160E+02 -1.00000E+00  1.06774E-01
      21    -1     0     0   502   501  0.000000000E+00  0.000000000E+00  3.682181837E+02  3.682181837E+02  0.000000000E+00  0.00000E+00  9.000E+00
       2    -1     0     0   501     0  0.000000000E+00  0.000000000E+00 -1.697310113E+03  1.697310113E+03  0.000000000E+00  0.00000E+00  9.000E+00
      25     1     1     2     0     0  2.019682780E+02 -1.857677665E+02  8.780901562E+00  3.016669565E+02  1.250000000E+02  0.00000E+00  9.000E+00
      25     1     1     2     0     0 -8.044503192E+01 -6.221740359E+01  1.680498767E+02  2.328264794E+02  1.250000000E+02  0.00000E+00  9.000E+00
       2     1     1     2   502     0 -1.215232461E+02  2.479851701E+02 -1.505922708E+03  1.531034861E+03  0.000000000E+00  0.00000E+00  9.000E+00
#rwgt            1           1   3.9300657292315723E-002          10      156675           0
</event>
<event>
      5   9999  3.79277E-02  2.91031E+01 -1.00000E+00  1.53961E-01
      21    -1     0     0   502   501  0.000000000E+00  0.000000000E+00  8.961385363E+02  8.961385363E+02  0.000000000E+00  0.00000E+00  9.000E+00
      21    -1     0     0   501   511  0.000000000E+00  0.000000000E+00 -1.361396861E+02  1.361396861E+02  0.000000000E+00  0.00000E+00  9.000E+00
      25     1     1     2     0     0  1.109043847E+01  1.847366364E+02 -1.684969698E-01  2.233285719E+02  1.250000000E+02  0.00000E+00  9.000E+00
      25     1     1     2     0     0 -3.863766161E+01 -1.941251193E+02  7.317086130E+02  7.682447040E+02  1.250000000E+02  0.00000E+00  9.000E+00
      21     1     1     2   502   511  2.754722314E+01  9.388482905E+00  2.845873420E+01  4.070494646E+01  4.768371582E-07  0.00000E+00  9.000E+00
#rwgt            1           1   3.5556042051223501E-002          10      156804           0
</event>
<event>
      5   9999 -3.79277E-02  2.11674E+02 -1.00000E+00  1.10758E-01
      21    -1     0     0   502   501  0.000000000E+00  0.000000000E+00  2.709089573E+02  2.709089573E+02  0.000000000E+00  0.00000E+00  9.000E+00
      21    -1     0     0   501   512  0.000000000E+00  0.000000000E+00 -1.693923572E+03  1.693923572E+03  0.000000000E+00  0.00000E+00  9.000E+00
      25     1     1     2     0     0  4.620498623E+02 -1.409649113E+02 -8.674080837E+02  1.000691244E+03  1.250000000E+02  0.00000E+00  9.000E+00
      25     1     1     2     0     0 -2.904401741E+02  2.648835228E+02 -4.936529774E+01  4.154283428E+02  1.250000000E+02  0.00000E+00  9.000E+00
      21     1     1     2   502   512 -1.716096882E+02 -1.239186115E+02 -5.062412331E+02  5.487129427E+02  7.629394531E-06  0.00000E+00  9.000E+00
#rwgt            1           1 -0.31299098449097840               10      156964           0
</event>
<event>
      5   9999  3.79277E-02  1.25818E+02 -1.00000E+00  1.19502E-01
      21    -1     0     0   502   511  0.000000000E+00  0.000000000E+00  1.863727178E+02  1.863727178E+02  0.000000000E+00  0.00000E+00  9.000E+00
      21    -1     0     0   501   502  0.000000000E+00  0.000000000E+00 -5.924821519E+02  5.924821519E+02  0.000000000E+00  0.00000E+00  9.000E+00
      25     1     1     2     0     0 -3.860964599E+01  2.533131346E+01  1.804440512E+01  1.344729741E+02  1.250000000E+02  0.00000E+00  9.000E+00
      25     1     1     2     0     0  1.439520243E+02  4.346743142E+01 -4.711156490E+02  5.100848534E+02  1.250000000E+02  0.00000E+00  9.000E+00
      21     1     1     2   501   511 -1.053423784E+02 -6.879874488E+01  4.696180984E+01  1.342970423E+02  1.784161275E-06  0.00000E+00  9.000E+00
#rwgt            1           1   2.3357167929683217E-002          10      157026           0
</event>
<event>
      5   9999  3.79277E-02  1.55102E+02 -1.00000E+00  1.15821E-01
      21    -1     0     0   502   512  0.000000000E+00  0.000000000E+00  1.458564423E+02  1.458564423E+02  0.000000000E+00  0.00000E+00  9.000E+00
      21    -1     0     0   501   502  0.000000000E+00  0.000000000E+00 -1.019538419E+03  1.019538419E+03  0.000000000E+00  0.00000E+00  9.000E+00
      25     1     1     2     0     0 -1.012327582E+02  3.668926126E+01 -4.133513517E+02  4.450601231E+02  1.250000000E+02  0.00000E+00  9.000E+00
      25     1     1     2     0     0  2.538951681E+02 -6.409033827E+01 -4.831270753E+02  5.635664102E+02  1.250000000E+02  0.00000E+00  9.000E+00
      21     1     1     2   501   512 -1.526624099E+02  2.740107701E+01  2.279645049E+01  1.567683277E+02  2.589888690E-06  0.00000E+00  9.000E+00
#rwgt            1           1  0.14499294421930176               10      157127           0
</event>
<event>
      5   9999  3.79277E-02  7.30559E+01 -1.00000E+00  1.30288E-01
      21    -1     0     0   502   501  0.000000000E+00  0.000000000E+00  1.148234024E+02  1.148234024E+02  0.000000000E+00  0.00000E+00  9.000E+00
      21    -1     0     0   501   511  0.000000000E+00  0.000000000E+00 -5.330496962E+02  5.330496962E+02  0.000000000E+00  0.00000E+00  9.000E+00
      25     1     1     2     0     0  1.934452227E+02 -5.847649208E+01 -2.050045095E+02  3.138349936E+02  1.250000000E+02  0.00000E+00  9.000E+00
      25     1     1     2     0     0 -1.203972128E+02  5.954799600E+01 -1.420436818E+02  2.320406434E+02  1.250000000E+02  0.00000E+00  9.000E+00
      21     1     1     2   502   511 -7.304800995E+01 -1.071503921E+00 -7.117810260E+01  1.019974616E+02  1.348699152E-06  0.00000E+00  9.000E+00
#rwgt            1           1   2.8485659300808406E-002          10      157195           0
</event>
<event>
      5   9999 -3.79277E-02  3.44964E+01 -1.00000E+00  1.48943E-01
      21    -1     0     0   502   501  0.000000000E+00  0.000000000E+00  3.559644208E+02  3.559644208E+02  0.000000000E+00  0.00000E+00  9.000E+00
      21    -1     0     0   501   512  0.000000000E+00  0.000000000E+00 -4.595598694E+02  4.595598694E+02  0.000000000E+00  0.00000E+00  9.000E+00
      25     1     1     2     0     0  2.726054528E+02  2.799039618E+01  7.852554805E+01  3.112691069E+02  1.250000000E+02  0.00000E+00  9.000E+00
      25     1     1     2     0     0 -2.495031750E+02 -5.360851403E+01  3.328049162E+01  2.861088923E+02  1.250000000E+02  0.00000E+00  9.000E+00
      21     1     1     2   502   512 -2.310227784E+01  2.561811785E+01 -2.154014882E+02  2.181462911E+02  4.672030912E-06  0.00000E+00  9.000E+00
#rwgt            1           1 -0.24886412270942040               10      157290           0
</event>
<event>
      5   9999  3.79277E-02  1.75960E+01 -1.00000E+00  1.71093E-01
      21    -1     0     0   502   501  0.000000000E+00  0.000000000E+00  7.901998357E+01  7.901998357E+01  0.000000000E+00  0.00000E+00  9.000E+00
      21    -1     0     0   511   502  0.000000000E+00  0.000000000E+00 -8.503612504E+02  8.503612504E+02  0.000000000E+00  0.00000E+00  9.000E+00
      25     1     1     2     0     0 -4.858072168E+01  1.580636173E+02 -5.916535295E+02  6.269155386E+02  1.250000000E+02  0.00000E+00  9.000E+00
      25     1     1     2     0     0  4.730858352E+01 -1.756135354E+02 -1.464570994E+02  2.648639233E+02  1.250000000E+02  0.00000E+00  9.000E+00
      21     1     1     2   511   501  1.272138158E+00  1.754991815E+01 -3.323063796E+01  3.760177206E+01  8.259061849E-07  0.00000E+00  9.000E+00
#rwgt            1           1   3.4799919332519823E-002          10      157618           0
</event>
<event>
      5   9999  3.79277E-02  2.82146E+01 -1.00000E+00  1.54914E-01
      21    -1     0     0   502   501  0.000000000E+00  0.000000000E+00  3.828133727E+02  3.828133727E+02  0.000000000E+00  0.00000E+00  9.000E+00
       2    -1     0     0   501     0  0.000000000E+00  0.000000000E+00 -1.483161412E+03  1.483161412E+03  0.000000000E+00  0.00000E+00  9.000E+00
      25     1     1     2     0     0 -1.670849418E+02 -1.053342281E+02 -1.053943765E+02  2.564091496E+02  1.250000000E+02  0.00000E+00  9.000E+00
      25     1     1     2     0     0  1.741222696E+02  7.801138836E+01  2.647992750E+02  3.494967776E+02  1.250000000E+02  0.00000E+00  9.000E+00
       2     1     1     2   502     0 -7.037327773E+00  2.732283974E+01 -1.259752938E+03  1.260068858E+03  2.157918644E-05  0.00000E+00  9.000E+00
#rwgt            1           1   4.6438679055572349E-002          10      157823           0
</event>
<event>
      5   9999  3.79277E-02  8.44747E+00 -1.00000E+00  2.04627E-01
      21    -1     0     0   502   501  0.000000000E+00  0.000000000E+00  3.180521666E+02  3.180521666E+02  0.000000000E+00  0.00000E+00  9.000E+00
      21    -1     0     0   511   502  0.000000000E+00  0.000000000E+00 -2.864626194E+02  2.864626194E+02  0.000000000E+00  0.00000E+00  9.000E+00
      25     1     1     2     0     0 -8.632591424E+01 -5.124153172E+01 -1.233491812E+02  2.022816812E+02  1.250000000E+02  0.00000E+00  9.000E+00
      25     1     1     2     0     0  8.089445991E+01  5.771138511E+01  2.555112985E+02  3.013063910E+02  1.250000000E+02  0.00000E+00  9.000E+00
      21     1     1     2   511   501  5.431454334E+00 -6.469853395E+00 -1.005725702E+02  1.009267138E+02  0.000000000E+00  0.00000E+00  9.000E+00
#rwgt            1           1   5.0584190130331365E-002          10      158070           0
</event>
<event>
      5   9999  3.79277E-02  8.15143E+00 -1.00000E+00  2.06611E-01
      21    -1     0     0   512   501  0.000000000E+00  0.000000000E+00  9.071900355E+02  9.071900355E+02  0.000000000E+00  0.00000E+00  9.000E+00
      21    -1     0     0   501   502  0.000000000E+00  0.000000000E+00 -3.218386048E+01  3.218386048E+01  0.000000000E+00  0.00000E+00  9.000E+00
      25     1     1     2     0     0 -1.073637256E+02  1.671747142E+01  4.236181924E+02  4.548448266E+02  1.250000000E+02  0.00000E+00  9.000E+00
      25     1     1     2     0     0  1.029991952E+02 -9.832940683E+00  3.872145642E+02  4.198400168E+02  1.250000000E+02  0.00000E+00  9.000E+00
      21     1     1     2   512   502  4.364530446E+00 -6.884530733E+00  6.417341838E+01  6.468905252E+01  1.348699152E-06  0.00000E+00  9.000E+00
#rwgt            1           1   4.2267172818004808E-002          10      158331           0
</event>
<event>
      5   9999  3.79277E-02  1.14254E+02 -1.00000E+00  1.21280E-01
      21    -1     0     0   502   511  0.000000000E+00  0.000000000E+00  3.022090966E+02  3.022090966E+02  0.000000000E+00  0.00000E+00  9.000E+00
      21    -1     0     0   501   502  0.000000000E+00  0.000000000E+00 -4.787817640E+02  4.787817640E+02  0.000000000E+00  0.00000E+00  9.000E+00
      25     1     1     2     0     0  9.006838631E+01 -1.800763109E+02 -1.572494881E+02  2.844155296E+02  1.250000000E+02  0.00000E+00  9.000E+00
      25     1     1     2     0     0 -1.367888298E+02  7.581169341E+01 -1.998800806E+02  2.829057148E+02  1.250000000E+02  0.00000E+00  9.000E+00
      21     1     1     2   501   511  4.672044353E+01  1.042646175E+02  1.805569014E+02  2.136696163E+02  2.697398305E-06  0.00000E+00  9.000E+00
#rwgt            1           1  0.23051691859211462               10      158800           0
</event>
<event>
      5   9999  3.79277E-02  3.72198E+01 -1.00000E+00  1.46808E-01
      -1    -1     0     0     0   501  0.000000000E+00  0.000000000E+00  1.944467230E+02  1.944467230E+02  0.000000000E+00  0.00000E+00  9.000E+00
      21    -1     0     0   501   502  0.000000000E+00  0.000000000E+00 -1.449835957E+03  1.449835957E+03  0.000000000E+00  0.00000E+00  9.000E+00
      25     1     1     2     0     0  1.105226957E+02 -1.280058421E+02 -2.076065315E+02  2.955101247E+02  1.250000000E+02  0.00000E+00  9.000E+00
      25     1     1     2     0     0 -7.518849886E+01  1.397022823E+02 -1.187309576E+03  1.204366667E+03  1.250000000E+02  0.00000E+00  9.000E+00
      -1     1     1     2     0   502 -3.533419684E+01 -1.169644013E+01  1.395268737E+02  1.444058886E+02  5.722045898E-06  0.00000E+00  9.000E+00
#rwgt            1           1   4.2707125787141524E-002          10      158877           0
</event>
<event>
      5   9999  3.79277E-02  6.95306E+01 -1.00000E+00  1.31369E-01
      21    -1     0     0   502   501  0.000000000E+00  0.000000000E+00  5.013441020E+02  5.013441020E+02  0.000000000E+00  0.00000E+00  9.000E+00
      21    -1     0     0   501   511  0.000000000E+00  0.000000000E+00 -2.044179466E+02  2.044179466E+02  0.000000000E+00  0.00000E+00  9.000E+00
      25     1     1     2     0     0  7.505776136E+01  5.959331476E+01  4.047246646E+02  4.342949284E+02  1.250000000E+02  0.00000E+00  9.000E+00
      25     1     1     2     0     0 -1.179480788E+02 -4.867455053E+00 -4.487458339E+01  1.776912199E+02  1.250000000E+02  0.00000E+00  9.000E+00
      21     1     1     2   502   511  4.289031740E+01 -5.472585970E+01 -6.292392574E+01  9.377590030E+01  6.743495762E-07  0.00000E+00  9.000E+00
#rwgt            1           1   4.1657433637253230E-002          10      159074           0
</event>
<event>
      5   9999  3.79277E-02  8.98360E+01 -1.00000E+00  1.25958E-01
      21    -1     0     0   512   501  0.000000000E+00  0.000000000E+00  8.343345119E+02  8.343345119E+02  0.000000000E+00  0.00000E+00  9.000E+00
      21    -1     0     0   501   502  0.000000000E+00  0.000000000E+00 -9.990560809E+01  9.990560809E+01  0.000000000E+00  0.00000E+00  9.000E+00
      25     1     1     2     0     0 -6.596844620E+01  1.046802976E+01  2.519886765E+02  2.891102015E+02  1.250000000E+02  0.00000E+00  9.000E+00
      25     1     1     2     0     0 -2.366825324E+01 -1.644931793E+01 -2.423747847E+01  1.305496903E+02  1.250000000E+02  0.00000E+00  9.000E+00
      21     1     1     2   512   502  8.963669944E+01  5.981288173E+00  5.066777058E+02  5.145802282E+02  0.000000000E+00  0.00000E+00  9.000E+00
#rwgt            2          11   9.8435764830988120E-004          10      159183           0
</event>
<event>
      5   9999  3.79277E-02  2.58125E+01 -1.00000E+00  1.57717E-01
      21    -1     0     0   502   501  0.000000000E+00  0.000000000E+00  4.968110768E+02  4.968110768E+02  0.000000000E+00  0.00000E+00  9.000E+00
       1    -1     0     0   501     0  0.000000000E+00  0.000000000E+00 -1.682951789E+02  1.682951789E+02  0.000000000E+00  0.00000E+00  9.000E+00
      25     1     1     2     0     0 -1.050959876E+02 -7.795232579E+01  3.620964113E+02  4.047969154E+02  1.250000000E+02  0.00000E+00  9.000E+00
      25     1     1     2     0     0  1.254814442E+02  9.378640336E+01  1.942288484E+01  2.013547386E+02  1.250000000E+02  0.00000E+00  9.000E+00
       1     1     1     2   502     0 -2.038545661E+01 -1.583407757E+01 -5.300339812E+01  5.895460174E+01  6.743495762E-07  0.00000E+00  9.000E+00
#rwgt            1           1   1.8575824646818024E-002          10      159218           0
</event>
<event>
      5   9999  3.79277E-02  1.13344E+01 -1.00000E+00  1.89672E-01
      21    -1     0     0   502   501  0.000000000E+00  0.000000000E+00  5.900658832E+02  5.900658832E+02  0.000000000E+00  0.00000E+00  9.000E+00
      21    -1     0     0   501   511  0.000000000E+00  0.000000000E+00 -1.287621079E+02  1.287621079E+02  0.000000000E+00  0.00000E+00  9.000E+00
      25     1     1     2     0     0 -8.562577842E+01 -1.820664430E+02  1.828385772E+02  2.992238442E+02  1.250000000E+02  0.00000E+00  9.000E+00
      25     1     1     2     0     0  9.618977826E+01  1.779589753E+02  3.073348465E+02  3.885892152E+02  1.250000000E+02  0.00000E+00  9.000E+00
      21     1     1     2   502   511 -1.056399984E+01  4.107467757E+00 -2.886964850E+01  3.101493170E+01  4.768371582E-07  0.00000E+00  9.000E+00
#rwgt            1           1   3.9365485773615642E-002          10      159466           0
</event>
<event>
      5   9999 -3.79277E-02  3.60521E+01 -1.00000E+00  1.47696E-01
      21    -1     0     0   502   501  0.000000000E+00  0.000000000E+00  6.666225799E+02  6.666225799E+02  0.000000000E+00  0.00000E+00  9.000E+00
      21    -1     0     0   512   502  0.000000000E+00  0.000000000E+00 -1.010580107E+02  1.010580107E+02  0.000000000E+00  0.00000E+00  9.000E+00
      25     1     1     2     0     0  1.697101149E+02  5.214382789E+00  3.305506485E+02  3.920681625E+02  1.250000000E+02  0.00000E+00  9.000E+00
      25     1     1     2     0     0 -1.542245206E+02  2.734247159E+01  2.625208515E+02  3.302650617E+02  1.250000000E+02  0.00000E+00  9.000E+00
      21     1     1     2   512   501 -1.548559428E+01 -3.255685437E+01 -2.750693082E+01  4.534736641E+01  8.259061849E-07  0.00000E+00  9.000E+00
#rwgt            1           1 -0.25216620602121370               10      159755           0
</event>
<event>
      5   9999  3.79277E-02  8.82173E+00 -1.00000E+00  2.02269E-01
      21    -1     0     0   511   501  0.000000000E+00  0.000000000E+00  1.278169680E+02  1.278169680E+02  0.000000000E+00  0.00000E+00  9.000E+00
      21    -1     0     0   501   502  0.000000000E+00  0.000000000E+00 -3.394732315E+02  3.394732315E+02  0.000000000E+00  0.00000E+00  9.000E+00
      25     1     1     2     0     0  1.110464039E+02  1.106825065E+02 -1.615175784E+02  2.574778616E+02  1.250000000E+02  0.00000E+00  9.000E+00
      25     1     1     2     0     0 -1.029515358E+02 -1.071759286E+02 -5.145288990E+01  2.008932509E+02  1.250000000E+02  0.00000E+00  9.000E+00
      21     1     1     2   511   502 -8.094868115E+00 -3.506577954E+00  1.314204818E+00  8.919087008E+00  1.982470556E-07  0.00000E+00  9.000E+00
#rwgt            1           1   2.5991303635457062E-002          10      159915           0
</event>
<event>
      5   9999  3.79277E-02  8.63553E+01 -1.00000E+00  1.26763E-01
      21    -1     0     0   502   512  0.000000000E+00  0.000000000E+00  4.888965533E+02  4.888965533E+02  0.000000000E+00  0.00000E+00  9.000E+00
      21    -1     0     0   501   502  0.000000000E+00  0.000000000E+00 -1.762362052E+02  1.762362052E+02  0.000000000E+00  0.00000E+00  9.000E+00
      25     1     1     2     0     0 -3.327502983E+01  5.763687773E+01  3.047385778E+02  3.360354715E+02  1.250000000E+02  0.00000E+00  9.000E+00
      25     1     1     2     0     0 -2.703291004E+01 -1.194445743E+02 -9.144822520E+01  1.974476195E+02  1.250000000E+02  0.00000E+00  9.000E+00
      21     1     1     2   501   512  6.030793987E+01  6.180769658E+01  9.936999543E+01  1.316496675E+02  2.697398305E-06  0.00000E+00  9.000E+00
#rwgt            1           1   4.1302453427589307E-002          10      160204           0
</event>
<event>
      5   9999  3.79277E-02  1.43974E+01 -1.00000E+00  1.79078E-01
      21    -1     0     0   502   511  0.000000000E+00  0.000000000E+00  5.621569088E+02  5.621569088E+02  0.000000000E+00  0.00000E+00  9.000E+00
      21    -1     0     0   501   502  0.000000000E+00  0.000000000E+00 -1.138388809E+02  1.138388809E+02  0.000000000E+00  0.00000E+00  9.000E+00
      25     1     1     2     0     0  5.887578500E+01 -9.089016875E+01 -2.973134269E+01  1.680367031E+02  1.250000000E+02  0.00000E+00  9.000E+00
      25     1     1     2     0     0 -5.565557385E+01  7.685756079E+01  4.465617494E+02  4.733360577E+02  1.250000000E+02  0.00000E+00  9.000E+00
      21     1     1     2   501   511 -3.220211144E+00  1.403260796E+01  3.148762122E+01  3.462302898E+01  3.371747881E-07  0.00000E+00  9.000E+00
#rwgt            1           1   5.0051875161915726E-002          10      160365           0
</event>
<event>
      5   9999  3.79277E-02  4.12660E+01 -1.00000E+00  1.44006E-01
      21    -1     0     0   512   501  0.000000000E+00  0.000000000E+00  1.874094844E+02  1.874094844E+02  0.000000000E+00  0.00000E+00  9.000E+00
      21    -1     0     0   501   502  0.000000000E+00  0.000000000E+00 -3.683076721E+02  3.683076721E+02  0.000000000E+00  0.00000E+00  9.000E+00
      25     1     1     2     0     0 -1.083182467E+02 -1.554051847E+02 -7.967606301E+01  2.405345900E+02  1.250000000E+02  0.00000E+00  9.000E+00
      25     1     1     2     0     0  6.886642791E+01  1.675063570E+02 -1.381304506E+02  2.598191408E+02  1.250000000E+02  0.00000E+00  9.000E+00
      21     1     1     2   512   502  3.945181878E+01 -1.210117232E+01  3.690832593E+01  5.536342565E+01  4.768371582E-07  0.00000E+00  9.000E+00
#rwgt            1           1   3.3604289427608972E-002          10      160584           0
</event>
<event>
      5   9999  3.79277E-02  5.81324E+01 -1.00000E+00  1.35441E-01
      21    -1     0     0   502   501  0.000000000E+00  0.000000000E+00  8.746873163E+02  8.746873163E+02  0.000000000E+00  0.00000E+00  9.000E+00
      21    -1     0     0   511   502  0.000000000E+00  0.000000000E+00 -1.409951995E+02  1.409951995E+02  0.000000000E+00  0.00000E+00  9.000E+00
      25     1     1     2     0     0 -1.571638406E+02  1.176453876E+02  2.062015100E+01  2.336473853E+02  1.250000000E+02  0.00000E+00  9.000E+00
      25     1     1     2     0     0  1.099634734E+02 -1.515790966E+02  6.773838023E+02  7.138221093E+02  1.250000000E+02  0.00000E+00  9.000E+00
      21     1     1     2   511   501  4.720036718E+01  3.393370902E+01  3.568816349E+01  6.821302135E+01  8.259061849E-07  0.00000E+00  9.000E+00
#rwgt            1           1   3.7129943762914404E-002          10      160666           0
</event>
<event>
      5   9999  3.79277E-02  1.16702E+02 -1.00000E+00  1.20884E-01
      21    -1     0     0   502   501  0.000000000E+00  0.000000000E+00  6.643985109E+01  6.643985109E+01  0.000000000E+00  0.00000E+00  9.000E+00
      21    -1     0     0   512   502  0.000000000E+00  0.000000000E+00 -1.842698607E+03  1.842698607E+03  0.000000000E+00  0.00000E+00  9.000E+00
      25     1     1     2     0     0  9.751001595E+01 -5.305569272E+01 -7.021579591E+02  7.217852238E+02  1.250000000E+02  0.00000E+00  9.000E+00
      25     1     1     2     0     0 -1.416138148E+02 -5.499137325E+01 -1.294051508E+02  2.354765736E+02  1.250000000E+02  0.00000E+00  9.000E+00
      21     1     1     2   512   501  4.410379884E+01  1.080470660E+02 -9.446956458E+02  9.518766605E+02  0.000000000E+00  0.00000E+00  9.000E+00
#rwgt            1           1   4.0734063974721992E-002          10      160805           0
</event>
<event>
      5   9999  3.79277E-02  5.62769E+01 -1.00000E+00  1.36207E-01
      21    -1     0     0   511   501  0.000000000E+00  0.000000000E+00  7.240292017E+01  7.240292017E+01  0.000000000E+00  0.00000E+00  9.000E+00
      21    -1     0     0   501   502  0.000000000E+00  0.000000000E+00 -4.448890080E+02  4.448890080E+02  0.000000000E+00  0.00000E+00  9.000E+00
      25     1     1     2     0     0  5.969511891E+00 -1.307883535E+01 -1.597805780E+02  2.033753281E+02  1.250000000E+02  0.00000E+00  9.000E+00
      25     1     1     2     0     0 -5.450316407E+01  4.156695968E+01 -2.145669014E+02  2.576089327E+02  1.250000000E+02  0.00000E+00  9.000E+00
      21     1     1     2   511   502  4.853365218E+01 -2.848812433E+01  1.861391511E+00  5.630766733E+01  3.734220292E-07  0.00000E+00  9.000E+00
#rwgt            1           1   1.2349898859829997E-002          10      160865           0
</event>
<event>
      5   9999  3.79277E-02  4.68242E+01 -1.00000E+00  1.40721E-01
      21    -1     0     0   502   512  0.000000000E+00  0.000000000E+00  4.384793072E+02  4.384793072E+02  0.000000000E+00  0.00000E+00  9.000E+00
      21    -1     0     0   501   502  0.000000000E+00  0.000000000E+00 -2.593348087E+02  2.593348087E+02  0.000000000E+00  0.00000E+00  9.000E+00
      25     1     1     2     0     0 -1.593235583E+01  1.234019547E+02 -1.338514297E+02  2.214115797E+02  1.250000000E+02  0.00000E+00  9.000E+00
      25     1     1     2     0     0 -1.319260446E+01 -8.673802237E+01 -7.117240417E+00  1.528829109E+02  1.250000000E+02  0.00000E+00  9.000E+00
      21     1     1     2   501   512  2.912496029E+01 -3.666393231E+01  3.201131686E+02  3.235196253E+02  0.000000000E+00  0.00000E+00  9.000E+00
#rwgt            1           1   2.5691792258532454E-003          10      160955           0
</event>
<event>
      5   9999 -3.79277E-02  9.29230E+01 -1.00000E+00  1.25279E-01
      21    -1     0     0   502   501  0.000000000E+00  0.000000000E+00  8.964673045E+01  8.964673045E+01  0.000000000E+00  0.00000E+00  9.000E+00
      21    -1     0     0   511   502  0.000000000E+00  0.000000000E+00 -7.994778848E+02  7.994778848E+02  0.000000000E+00  0.00000E+00  9.000E+00
      25     1     1     2     0     0  1.307946545E+02 -4.661598222E+01 -1.815315974E+02  2.604976243E+02  1.250000000E+02  0.00000E+00  9.000E+00
      25     1     1     2     0     0 -2.138439625E+02  4.932640666E+00 -3.809553993E+02  4.544288585E+02  1.250000000E+02  0.00000E+00  9.000E+00
      21     1     1     2   511   501  8.304930795E+01  4.168334156E+01 -1.473441576E+02  1.741981323E+02  0.000000000E+00  0.00000E+00  9.000E+00
#rwgt            1           1  -7.0200588763206964E-002          10      161211           0
</event>
<event>
      5   9999  3.79277E-02  5.75326E+01 -1.00000E+00  1.35685E-01
      21    -1     0     0   512   501  0.000000000E+00  0.000000000E+00  5.672944169E+02  5.672944169E+02  0.000000000E+00  0.00000E+00  9.000E+00
      21    -1     0     0   501   502  0.000000000E+00  0.000000000E+00 -4.816155770E+02  4.816155770E+02  0.000000000E+00  0.00000E+00  9.000E+00
      25     1     1     2     0     0 -6.761618981E+01  2.184312872E+02 -4.874885521E+01  2.651143663E+02  1.250000000E+02  0.00000E+00  9.000E+00
      25     1     1     2     0     0  1.212298593E+02 -1.975608991E+02 -2.689051809E+02  3.763801057E+02  1.250000000E+02  0.00000E+00  9.000E+00
      21     1     1     2   512   502 -5.361366945E+01 -2.087038811E+01  4.033328760E+02  4.074155219E+02  0.000000000E+00  0.00000E+00  9.000E+00
#rwgt            1           1   3.6429762539090881E-002          10      161332           0
</event>
<event>
      5   9999  3.79277E-02  1.34093E+01 -1.00000E+00  1.82096E-01
      21    -1     0     0   502   501  0.000000000E+00  0.000000000E+00  7.485556807E+02  7.485556807E+02  0.000000000E+00  0.00000E+00  9.000E+00
      21    -1     0     0   511   502  0.000000000E+00  0.000000000E+00 -7.009207109E+01  7.009207109E+01  0.000000000E+00  0.00000E+00  9.000E+00
      25     1     1     2     0     0 -1.106074602E+02  4.992442013E+01  1.443129534E+02  2.262248583E+02  1.250000000E+02  0.00000E+00  9.000E+00
      25     1     1     2     0     0  1.190034076E+02 -6.037993957E+01  5.452023349E+02  5.750462017E+02  1.250000000E+02  0.00000E+00  9.000E+00
      21     1     1     2   511   501 -8.395947408E+00  1.045551944E+01 -1.105167862E+01  1.737669186E+01  5.840038640E-07  0.00000E+00  9.000E+00
#rwgt            1           1   4.5556054110471478E-002          10      161491           0
</event>
<event>
      5   9999  3.79277E-02  2.58930E+02 -1.00000E+00  1.07712E-01
      21    -1     0     0   512   501  0.000000000E+00  0.000000000E+00  8.602908049E+01  8.602908049E+01  0.000000000E+00  0.00000E+00  9.000E+00
      21    -1     0     0   501   502  0.000000000E+00  0.000000000E+00 -1.816330124E+03  1.816330124E+03  0.000000000E+00  0.00000E+00  9.000E+00
      25     1     1     2     0     0  8.511892199E+01 -9.743860182E+01 -1.056659789E+03  1.071864927E+03  1.250000000E+02  0.00000E+00  9.000E+00
      25     1     1     2     0     0  1.727350385E+02  7.385823028E+01 -2.853610472E+02  3.637971398E+02  1.250000000E+02  0.00000E+00  9.000E+00
      21     1     1     2   512   502 -2.578539605E+02  2.358037154E+01 -3.882802073E+02  4.666971376E+02  7.629394531E-06  0.00000E+00  9.000E+00
#rwgt            1           1   4.0160754913664623E-002          10      161681           0
</event>
<event>
      5   9999  3.79277E-02  5.13726E+01 -1.00000E+00  1.38408E-01
       2    -1     0     0   502     0  0.000000000E+00  0.000000000E+00  1.309539174E+03  1.309539174E+03  0.000000000E+00  0.00000E+00  9.000E+00
      21    -1     0     0   501   502  0.000000000E+00  0.000000000E+00 -5.346720478E+01  5.346720478E+01  0.000000000E+00  0.00000E+00  9.000E+00
      25     1     1     2     0     0  3.965733291E+01 -1.168854156E+02  3.033738597E+02  3.505646919E+02  1.250000000E+02  0.00000E+00  9.000E+00
      25     1     1     2     0     0 -3.716464913E+01  1.681974842E+02  3.651182324E+02  4.226203124E+02  1.250000000E+02  0.00000E+00  9.000E+00
       2     1     1     2   501     0 -2.492683778E+00 -5.131206861E+01  5.875798770E+02  5.898213744E+02  7.629394531E-06  0.00000E+00  9.000E+00
#rwgt            1           1   2.4428043398017279E-002          10      161899           0
</event>
<event>
      5   9999  3.79277E-02  1.16970E+02 -1.00000E+00  1.20842E-01
      21    -1     0     0   502   501  0.000000000E+00  0.000000000E+00  9.844505253E+02  9.844505253E+02  0.000000000E+00  0.00000E+00  9.000E+00
      21    -1     0     0   511   502  0.000000000E+00  0.000000000E+00 -1.697077572E+02  1.697077572E+02  0.000000000E+00  0.00000E+00  9.000E+00
      25     1     1     2     0     0  1.590633721E+02 -9.127157544E+01  5.881224041E+02  6.286052967E+02  1.250000000E+02  0.00000E+00  9.000E+00
      25     1     1     2     0     0 -2.428364340E+02  9.637468649E+00  2.849708095E+02  3.948363924E+02  1.250000000E+02  0.00000E+00  9.000E+00
      21     1     1     2   511   501  8.377306186E+01  8.163410679E+01 -5.835044557E+01  1.307165934E+02  1.784161275E-06  0.00000E+00  9.000E+00
#rwgt            1           1   1.8472326406786217E-002          10      162057           0
</event>
<event>
      5   9999  3.79277E-02  1.99112E+01 -1.00000E+00  1.66529E-01
      21    -1     0     0   502   501  0.000000000E+00  0.000000000E+00  6.209244667E+02  6.209244667E+02  0.000000000E+00  0.00000E+00  9.000E+00
      21    -1     0     0   501   512  0.000000000E+00  0.000000000E+00 -3.164353429E+02  3.164353429E+02  0.000000000E+00  0.00000E+00  9.000E+00
      25     1     1     2     0     0 -8.675816241E+01  1.348914472E+02  9.978578614E+01  2.265058154E+02  1.250000000E+02  0.00000E+00  9.000E+00
      25     1     1     2     0     0  6.692637573E+01 -1.366678703E+02  4.361518440E+02  4.785506009E+02  1.250000000E+02  0.00000E+00  9.000E+00
      21     1     1     2   502   512  1.983178668E+01  1.776423060E+00 -2.314485064E+02  2.323033933E+02  3.814697266E-06  0.00000E+00  9.000E+00
#rwgt            1           1   4.4116165878989685E-002          10      162103           0
</event>
<event>
      5   9999 -3.79277E-02  4.91335E+01 -1.00000E+00  1.39510E-01
      21    -1     0     0   502   501  0.000000000E+00  0.000000000E+00  3.843563105E+02  3.843563105E+02  0.000000000E+00  0.00000E+00  9.000E+00
      21    -1     0     0   511   502  0.000000000E+00  0.000000000E+00 -2.299678266E+02  2.299678266E+02  0.000000000E+00  0.00000E+00  9.000E+00
      25     1     1     2     0     0  6.687247454E+01 -1.279241022E+02  1.497476784E+02  2.426641114E+02  1.250000000E+02  0.00000E+00  9.000E+00
      25     1     1     2     0     0 -4.471306284E+01  1.717768392E+02  1.187278840E+02  2.474426215E+02  1.250000000E+02  0.00000E+00  9.000E+00
      21     1     1     2   511   501 -2.215941170E+01 -4.385273698E+01 -1.140870784E+02  1.242174043E+02  0.000000000E+00  0.00000E+00  9.000E+00
#rwgt            1           1 -0.22981252558631202               10      162289           0
</event>
<event>
      5   9999  3.79277E-02  5.07718E+01 -1.00000E+00  1.38697E-01
      21    -1     0     0   502   501  0.000000000E+00  0.000000000E+00  1.077043183E+03  1.077043183E+03  0.000000000E+00  0.00000E+00  9.000E+00
       3    -1     0     0   501     0  0.000000000E+00  0.000000000E+00 -1.036359762E+02  1.036359762E+02  0.000000000E+00  0.00000E+00  9.000E+00
      25     1     1     2     0     0 -4.826285271E+01  5.245944387E+01  9.117161903E+02  9.230020086E+02  1.250000000E+02  0.00000E+00  9.000E+00
      25     1     1     2     0     0  1.923494364E+01 -9.411463191E+01  1.062628424E+02  1.901166449E+02  1.250000000E+02  0.00000E+00  9.000E+00
       3     1     1     2   502     0  2.902790907E+01  4.165518803E+01 -4.457182616E+01  6.756050534E+01  1.430511475E-06  0.00000E+00  9.000E+00
#rwgt            1           1   4.1339072580124807E-002          10      162379           0
</event>
<event>
      5   9999  3.79277E-02  4.07377E+01 -1.00000E+00  1.44350E-01
      21    -1     0     0   502   501  0.000000000E+00  0.000000000E+00  7.569413343E+02  7.569413343E+02  0.000000000E+00  0.00000E+00  9.000E+00
      21    -1     0     0   501   511  0.000000000E+00  0.000000000E+00 -9.253733590E+02  9.253733590E+02  0.000000000E+00  0.00000E+00  9.000E+00
      25     1     1     2     0     0 -6.680362199E+01  3.592426836E+00 -6.480561621E+00  1.419247234E+02  1.250000000E+02  0.00000E+00  9.000E+00
      25     1     1     2     0     0  5.057548972E+01  3.377340519E+01  6.817135600E+02  6.957419787E+02  1.250000000E+02  0.00000E+00  9.000E+00
      21     1     1     2   502   511  1.622813227E+01 -3.736583203E+01 -8.436650231E+02  8.446479911E+02  1.078959322E-05  0.00000E+00  9.000E+00
#rwgt            1           1   3.6138342732811232E-002          10      162457           0
</event>
<event>
      5   9999  3.79277E-02  1.31355E+02 -1.00000E+00  1.18725E-01
      21    -1     0     0   502   512  0.000000000E+00  0.000000000E+00  5.742917690E+02  5.742917690E+02  0.000000000E+00  0.00000E+00  9.000E+00
      21    -1     0     0   501   502  0.000000000E+00  0.000000000E+00 -1.875410380E+02  1.875410380E+02  0.000000000E+00  0.00000E+00  9.000E+00
      25     1     1     2     0     0  8.606202595E+01 -7.164176916E+01 -1.043844280E+02  1.976368493E+02  1.250000000E+02  0.00000E+00  9.000E+00
      25     1     1     2     0     0  2.790114936E+01  6.323035489E+00  3.431289279E+02  3.663071335E+02  1.250000000E+02  0.00000E+00  9.000E+00
      21     1     1     2   501   512 -1.139631753E+02  6.531873367E+01  1.480062311E+02  1.978888242E+02  2.697398305E-06  0.00000E+00  9.000E+00
#rwgt            1           1   3.7597270284671212E-002          10      162535           0
</event>
<event>
      5   9999  3.79277E-02  8.65711E+01 -1.00000E+00  1.26712E-01
      21    -1     0     0   502   511  0.000000000E+00  0.000000000E+00  9.919375771E+01  9.919375771E+01  0.000000000E+00  0.00000E+00  9.000E+00
      21    -1     0     0   501   502  0.000000000E+00  0.000000000E+00 -1.311168438E+03  1.311168438E+03  0.000000000E+00  0.00000E+00  9.000E+00
      25     1     1     2     0     0  6.636401040E+01  1.046160873E+02 -9.979109606E+02  1.013311400E+03  1.250000000E+02  0.00000E+00  9.000E+00
      25     1     1     2     0     0 -1.527991220E+02 -9.976637344E+01 -7.560663075E+01  2.337568471E+02  1.250000000E+02  0.00000E+00  9.000E+00
      21     1     1     2   501   511  8.643511157E+01 -4.849713887E+00 -1.384570886E+02  1.632939485E+02  0.000000000E+00  0.00000E+00  9.000E+00
#rwgt            1           1   4.7435476408505255E-002          10      162678           0
</event>
<event>
      5   9999  3.79277E-02  5.31555E+01 -1.00000E+00  1.37576E-01
      21    -1     0     0   502   501  0.000000000E+00  0.000000000E+00  9.919944782E+02  9.919944782E+02  0.000000000E+00  0.00000E+00  9.000E+00
      21    -1     0     0   512   502  0.000000000E+00  0.000000000E+00 -1.086943395E+02  1.086943395E+02  0.000000000E+00  0.00000E+00  9.000E+00
      25     1     1     2     0     0 -1.027672075E+02  6.371135148E+01  6.621928682E+01  1.860919912E+02  1.250000000E+02  0.00000E+00  9.000E+00
      25     1     1     2     0     0  5.343296532E+01 -8.350135643E+01  8.412215960E+02  8.562162880E+02  1.250000000E+02  0.00000E+00  9.000E+00
      21     1     1     2   512   501  4.933424221E+01  1.979000495E+01 -2.414074404E+01  5.838053848E+01  8.920806376E-07  0.00000E+00  9.000E+00
#rwgt            1           1   5.0742825613123932E-002          10      162792           0
</event>
<event>
      5   9999  3.79277E-02  6.57423E+01 -1.00000E+00  1.32616E-01
      21    -1     0     0   502   501  0.000000000E+00  0.000000000E+00  3.131159835E+02  3.131159835E+02  0.000000000E+00  0.00000E+00  9.000E+00
      21    -1     0     0   511   502  0.000000000E+00  0.000000000E+00 -5.556535043E+02  5.556535043E+02  0.000000000E+00  0.00000E+00  9.000E+00
      25     1     1     2     0     0  2.549065179E+02 -1.308897667E+02  1.409316136E+02  3.429229995E+02  1.250000000E+02  0.00000E+00  9.000E+00
      25     1     1     2     0     0 -1.949180876E+02  1.039930432E+02 -1.777641794E+02  3.098914606E+02  1.250000000E+02  0.00000E+00  9.000E+00
      21     1     1     2   511   501 -5.998843031E+01  2.689672343E+01 -2.057049549E+02  2.159550277E+02  2.697398305E-06  0.00000E+00  9.000E+00
#rwgt            1           1   2.2045799261438990E-002          10      162967           0
</event>
<event>
      5   9999  3.79277E-02  2.13707E+01 -1.00000E+00  1.64028E-01
      21    -1     0     0   502   512  0.000000000E+00  0.000000000E+00  1.170787398E+02  1.170787398E+02  0.000000000E+00  0.00000E+00  9.000E+00
      21    -1     0     0   501   502  0.000000000E+00  0.000000000E+00 -4.399702591E+02  4.399702591E+02  0.000000000E+00  0.00000E+00  9.000E+00
      25     1     1     2     0     0 -1.613833519E+02 -7.348495824E+01 -1.857676328E+02  2.856207954E+02  1.250000000E+02  0.00000E+00  9.000E+00
      25     1     1     2     0     0  1.468862634E+02  8.918654159E+01 -1.288623560E+02  2.485162376E+02  1.250000000E+02  0.00000E+00  9.000E+00
      21     1     1     2   501   512  1.449708851E+01 -1.570158335E+01 -8.261530526E+00  2.291196591E+01  2.384185791E-07  0.00000E+00  9.000E+00
#rwgt            1           1   3.7652832453762011E-002          10      163095           0
</event>
<event>
      5   9999  3.79277E-02  9.03322E+00 -1.00000E+00  2.01004E-01
      21    -1     0     0   502   501  0.000000000E+00  0.000000000E+00  2.334545898E+02  2.334545898E+02  0.000000000E+00  0.00000E+00  9.000E+00
      21    -1     0     0   501   511  0.000000000E+00  0.000000000E+00 -3.567818215E+02  3.567818215E+02  0.000000000E+00  0.00000E+00  9.000E+00
      25     1     1     2     0     0 -1.067349769E+02  2.068503146E+02 -3.518915544E+01  2.665383361E+02  1.250000000E+02  0.00000E+00  9.000E+00
      25     1     1     2     0     0  1.043126033E+02 -2.155526762E+02 -3.804124994E+01  2.727933506E+02  1.250000000E+02  0.00000E+00  9.000E+00
      21     1     1     2   502   511  2.422373620E+00  8.702361547E+00 -5.009682627E+01  5.090472466E+01  1.168007728E-06  0.00000E+00  9.000E+00
#rwgt            1           1   3.5457401182459776E-002          10      163398           0
</event>
<event>
      5   9999  3.79277E-02  1.19250E+02 -1.00000E+00  1.20484E-01
      21    -1     0     0   502   501  0.000000000E+00  0.000000000E+00  1.262643071E+03  1.262643071E+03  0.000000000E+00  0.00000E+00  9.000E+00
      21    -1     0     0   512   502  0.000000000E+00  0.000000000E+00 -9.531199365E+01  9.531199365E+01  0.000000000E+00  0.00000E+00  9.000E+00
      25     1     1     2     0     0  9.340427389E+01 -6.200795843E+01  1.023533358E+03  1.037214964E+03  1.250000000E+02  0.00000E+00  9.000E+00
      25     1     1     2     0     0 -3.780242423E+01 -4.348617863E+01  1.470879885E+02  2.014446509E+02  1.250000000E+02  0.00000E+00  9.000E+00
      21     1     1     2   512   501 -5.560184966E+01  1.054941371E+02 -3.290269057E+00  1.192954505E+02  3.504023184E-06  0.00000E+00  9.000E+00
#rwgt            1           1   3.9219848986862489E-002          10      163652           0
</event>
<event>
      5   9999  3.79277E-02  8.65540E+01 -1.00000E+00  1.26716E-01
      21    -1     0     0   502   501  0.000000000E+00  0.000000000E+00  1.879710834E+02  1.879710834E+02  0.000000000E+00  0.00000E+00  9.000E+00
      21    -1     0     0   511   502  0.000000000E+00  0.000000000E+00 -1.131199959E+03  1.131199959E+03  0.000000000E+00  0.00000E+00  9.000E+00
      25     1     1     2     0     0 -1.507568307E+02  1.028009533E+01 -1.357742262E+00  1.961125846E+02  1.250000000E+02  0.00000E+00  9.000E+00
      25     1     1     2     0     0  1.002739007E+02  6.002686025E+01  6.015111246E+00  1.712286795E+02  1.250000000E+02  0.00000E+00  9.000E+00
      21     1     1     2   511   501  5.048292999E+01 -7.030695558E+01 -9.478862449E+02  9.518297787E+02  1.078959322E-05  0.00000E+00  9.000E+00
#rwgt            1           1   4.5023414495661773E-002          10      163767           0
</event>
<event>
      5   9999  3.79277E-02  2.78544E+02 -1.00000E+00  1.06650E-01
      21    -1     0     0   502   501  0.000000000E+00  0.000000000E+00  3.492079948E+02  3.492079948E+02  0.000000000E+00  0.00000E+00  9.000E+00
      21    -1     0     0   501   512  0.000000000E+00  0.000000000E+00 -1.336439427E+03  1.336439427E+03  0.000000000E+00  0.00000E+00  9.000E+00
      25     1     1     2     0     0 -5.282101352E+01 -3.258519293E+02  8.938516588E+01  3.641211984E+02  1.250000000E+02  0.00000E+00  9.000E+00
      25     1     1     2     0     0  2.114330353E+02  9.687810884E+01 -6.452553864E+01  2.718047857E+02  1.250000000E+02  0.00000E+00  9.000E+00
      21     1     1     2   502   512 -1.586120218E+02  2.289738204E+02 -1.012091059E+03  1.049721438E+03  1.078959322E-05  0.00000E+00  9.000E+00
#rwgt            1           1   3.2407022924881429E-002          10      163984           0
</event>
<event>
      5   9999  3.79277E-02  9.90642E+01 -1.00000E+00  1.24012E-01
      21    -1     0     0   502   501  0.000000000E+00  0.000000000E+00  3.799101249E+02  3.799101249E+02  0.000000000E+00  0.00000E+00  9.000E+00
      21    -1     0     0   511   502  0.000000000E+00  0.000000000E+00 -5.958760621E+02  5.958760621E+02  0.000000000E+00  0.00000E+00  9.000E+00
      25     1     1     2     0     0 -3.366101953E+02 -5.493311355E+01 -7.566672882E+00  3.633267470E+02  1.250000000E+02  0.00000E+00  9.000E+00
      25     1     1     2     0     0  4.199953292E+02  1.084180525E+02 -9.394428041E+01  4.610868448E+02  1.250000000E+02  0.00000E+00  9.000E+00
      21     1     1     2   511   501 -8.338513386E+01 -5.348493892E+01 -1.144549838E+02  1.513725952E+02  1.907348633E-06  0.00000E+00  9.000E+00
#rwgt            1           1   2.9377741318584467E-002          10      164024           0
</event>
<event>
      5   9999 -3.79277E-02  1.34291E+01 -1.00000E+00  1.82033E-01
      21    -1     0     0   512   501  0.000000000E+00  0.000000000E+00  3.594229646E+02  3.594229646E+02  0.000000000E+00  0.00000E+00  9.000E+00
      21    -1     0     0   501   502  0.000000000E+00  0.000000000E+00 -2.235397451E+02  2.235397451E+02  0.000000000E+00  0.00000E+00  9.000E+00
      25     1     1     2     0     0 -1.958249602E+02 -1.495019697E+02  1.075463910E+01  2.764758873E+02  1.250000000E+02  0.00000E+00  9.000E+00
      25     1     1     2     0     0  1.889098181E+02  1.379901279E+02  1.127096427E+02  2.881955210E+02  1.250000000E+02  0.00000E+00  9.000E+00
      21     1     1     2   512   502  6.915142100E+00  1.151184183E+01  1.241893778E+01  1.829130144E+01  5.057621821E-07  0.00000E+00  9.000E+00
#rwgt            1           1 -0.15352371811128618               10      164088           0
</event>
<event>
      5   9999  3.79277E-02  1.81939E+02 -1.00000E+00  1.13165E-01
      21    -1     0     0   511   501  0.000000000E+00  0.000000000E+00  2.555424408E+02  2.555424408E+02  0.000000000E+00  0.00000E+00  9.000E+00
      21    -1     0     0   501   502  0.000000000E+00  0.000000000E+00 -6.106691666E+02  6.106691666E+02  0.000000000E+00  0.00000E+00  9.000E+00
      25     1     1     2     0     0  1.359251596E+02 -1.677751437E+02 -2.155946590E+02  3.297426343E+02  1.250000000E+02  0.00000E+00  9.000E+00
      25     1     1     2     0     0 -2.061104119E+01  3.085035022E+02 -6.459138118E+01  3.397002685E+02  1.250000000E+02  0.00000E+00  9.000E+00
      21     1     1     2   511   502 -1.153141184E+02 -1.407283585E+02 -7.494068556E+01  1.967687047E+02  1.651812370E-06  0.00000E+00  9.000E+00
#rwgt            1           1   3.1135057993820735E-002          10      164264           0
</event>
<event>
      5   9999  3.79277E-02  6.95377E+01 -1.00000E+00  1.31367E-01
      21    -1     0     0   512   501  0.000000000E+00  0.000000000E+00  2.853820230E+02  2.853820230E+02  0.000000000E+00  0.00000E+00  9.000E+00
      21    -1     0     0   501   502  0.000000000E+00  0.000000000E+00 -4.786597093E+02  4.786597093E+02  0.000000000E+00  0.00000E+00  9.000E+00
      25     1     1     2     0     0  9.812829047E+01 -9.926544341E+01 -9.581519889E+01  2.104479555E+02  1.250000000E+02  0.00000E+00  9.000E+00
      25     1     1     2     0     0 -2.890819987E+01  9.262710668E+01 -3.001504064E+02  3.393091973E+02  1.250000000E+02  0.00000E+00  9.000E+00
      21     1     1     2   512   502 -6.922009060E+01  6.638336736E+00  2.026879190E+02  2.142845794E+02  0.000000000E+00  0.00000E+00  9.000E+00
#rwgt            1           1   4.7482578482863559E-002          10      164377           0
</event>
<event>
      5   9999  3.79277E-02  7.58685E+01 -1.00000E+00  1.29474E-01
      21    -1     0     0   502   511  0.000000000E+00  0.000000000E+00  2.187244605E+02  2.187244605E+02  0.000000000E+00  0.00000E+00  9.000E+00
      21    -1     0     0   501   502  0.000000000E+00  0.000000000E+00 -3.624194700E+02  3.624194700E+02  0.000000000E+00  0.00000E+00  9.000E+00
      25     1     1     2     0     0 -1.362720490E+02  6.365025925E+01 -2.612269618E+02  3.263218540E+02  1.250000000E+02  0.00000E+00  9.000E+00
      25     1     1     2     0     0  8.051858332E+01 -1.219561796E+01  6.617528944E+01  1.632058341E+02  1.250000000E+02  0.00000E+00  9.000E+00
      21     1     1     2   501   511  5.575346567E+01 -5.145464129E+01  5.135666285E+01  9.161624236E+01  1.651812370E-06  0.00000E+00  9.000E+00
#rwgt            1           1   3.9527215719652453E-002          10      164498           0
</event>
<event>
      5   9999  3.79277E-02  3.20181E+01 -1.00000E+00  1.51102E-01
      21    -1     0     0   502   501  0.000000000E+00  0.000000000E+00  1.548279053E+02  1.548279053E+02  0.000000000E+00  0.00000E+00  9.000E+00
      21    -1     0     0   512   502  0.000000000E+00  0.000000000E+00 -4.403643708E+02  4.403643708E+02  0.000000000E+00  0.00000E+00  9.000E+00
      25     1     1     2     0     0 -2.062561259E+02  2.797847607E+01 -2.093541684E+02  3.205909425E+02  1.250000000E+02  0.00000E+00  9.000E+00
      25     1     1     2     0     0  1.813372571E+02 -7.873608623E+00 -3.613673710E+01  2.233294837E+02  1.250000000E+02  0.00000E+00  9.000E+00
      21     1     1     2   512   501  2.491886884E+01 -2.010486744E+01 -4.004556000E+01  5.127184992E+01  9.536743164E-07  0.00000E+00  9.000E+00
#rwgt            1           1   4.1216815854429510E-002          10      164763           0
</event>
<event>
      5   9999  3.79277E-02  2.33641E+01 -1.00000E+00  1.60984E-01
      21    -1     0     0   502   501  0.000000000E+00  0.000000000E+00  9.155177316E+01  9.155177316E+01  0.000000000E+00  0.00000E+00  9.000E+00
      21    -1     0     0   501   511  0.000000000E+00  0.000000000E+00 -1.028470970E+03  1.028470970E+03  0.000000000E+00  0.00000E+00  9.000E+00
      25     1     1     2     0     0 -4.821705022E+01 -1.437480265E+01  7.983905833E+00  1.349824494E+02  1.250000000E+02  0.00000E+00  9.000E+00
      25     1     1     2     0     0  7.156285993E+01  1.344991977E+01 -2.433720847E+02  2.831203187E+02  1.250000000E+02  0.00000E+00  9.000E+00
      21     1     1     2   502   511 -2.334580970E+01  9.248828805E-01 -7.015310180E+02  7.019199751E+02  1.078959322E-05  0.00000E+00  9.000E+00
#rwgt            1           1   4.4504871826229607E-002          10      164893           0
</event>
<event>
      5   9999  3.79277E-02  1.50917E+02 -1.00000E+00  1.16289E-01
      21    -1     0     0   502   512  0.000000000E+00  0.000000000E+00  5.912892021E+02  5.912892021E+02  0.000000000E+00  0.00000E+00  9.000E+00
      21    -1     0     0   501   502  0.000000000E+00  0.000000000E+00 -5.503158937E+02  5.503158937E+02  0.000000000E+00  0.00000E+00  9.000E+00
      25     1     1     2     0     0 -4.642742189E+01 -1.364454690E+02  8.586350599E+01  2.092137978E+02  1.250000000E+02  0.00000E+00  9.000E+00
      25     1     1     2     0     0 -9.470881311E+01  1.898903440E+02 -4.428791194E+02  5.067494611E+02  1.250000000E+02  0.00000E+00  9.000E+00
      21     1     1     2   501   512  1.411362350E+02 -5.344487491E+01  3.979889217E+02  4.256418369E+02  0.000000000E+00  0.00000E+00  9.000E+00
#rwgt            1           1   5.3025643849634839E-002          10      165070           0
</event>
<event>
      5   9999  3.79277E-02  1.83602E+02 -1.00000E+00  1.13017E-01
       1    -1     0     0   502     0  0.000000000E+00  0.000000000E+00  2.617035484E+02  2.617035484E+02  0.000000000E+00  0.00000E+00  9.000E+00
      21    -1     0     0   501   502  0.000000000E+00  0.000000000E+00 -3.911565128E+02  3.911565128E+02  0.000000000E+00  0.00000E+00  9.000E+00
      25     1     1     2     0     0 -4.577645794E+01  1.427506714E+02  4.135965837E+00  1.952315151E+02  1.250000000E+02  0.00000E+00  9.000E+00
      25     1     1     2     0     0 -1.241578118E+02 -7.323810001E+01 -1.862406957E+02  2.666262895E+02  1.250000000E+02  0.00000E+00  9.000E+00
       1     1     1     2   501     0  1.699342698E+02 -6.951257135E+01  5.265176552E+01  1.910022566E+02  1.651812370E-06  0.00000E+00  9.000E+00
#rwgt            2          17   6.4652791507893926E-005          10      165151           0
</event>
<event>
      5   9999  3.79277E-02  2.86503E+01 -1.00000E+00  1.54441E-01
      21    -1     0     0   511   501  0.000000000E+00  0.000000000E+00  1.242953561E+02  1.242953561E+02  0.000000000E+00  0.00000E+00  9.000E+00
      21    -1     0     0   501   502  0.000000000E+00  0.000000000E+00 -4.921247628E+02  4.921247628E+02  0.000000000E+00  0.00000E+00  9.000E+00
      25     1     1     2     0     0  1.490679356E+02 -1.004581248E+02 -2.112472146E+02  3.042424526E+02  1.250000000E+02  0.00000E+00  9.000E+00
      25     1     1     2     0     0 -1.571630100E+02  7.297522517E+01 -1.766247815E+02  2.772127498E+02  1.250000000E+02  0.00000E+00  9.000E+00
      21     1     1     2   511   502  8.095074387E+00  2.748289960E+01  2.004258938E+01  3.496491654E+01  4.768371582E-07  0.00000E+00  9.000E+00
#rwgt            1           1   1.9596101034314254E-002          10      165305           0
</event>
<event>
      5   9999  3.79277E-02  1.47820E+01 -1.00000E+00  1.77985E-01
      21    -1     0     0   512   501  0.000000000E+00  0.000000000E+00  1.482570031E+03  1.482570031E+03  0.000000000E+00  0.00000E+00  9.000E+00
      21    -1     0     0   501   502  0.000000000E+00  0.000000000E+00 -6.428223600E+01  6.428223600E+01  0.000000000E+00  0.00000E+00  9.000E+00
      25     1     1     2     0     0  3.303460189E+01  2.111333555E+02  2.535501852E+02  3.543744843E+02  1.250000000E+02  0.00000E+00  9.000E+00
      25     1     1     2     0     0 -3.971175560E+01 -1.979453715E+02  1.130773828E+03  1.155436646E+03  1.250000000E+02  0.00000E+00  9.000E+00
      21     1     1     2   512   502  6.677153708E+00 -1.318798402E+01  3.396378173E+01  3.704113623E+01  0.000000000E+00  0.00000E+00  9.000E+00
#rwgt            1           1   3.6598517959723860E-002          10      165456           0
</event>
<event>
      5   9999  3.79277E-02  2.91348E+01 -1.00000E+00  1.53928E-01
      21    -1     0     0   511   501  0.000000000E+00  0.000000000E+00  6.044978216E+02  6.044978216E+02  0.000000000E+00  0.00000E+00  9.000E+00
      21    -1     0     0   501   502  0.000000000E+00  0.000000000E+00 -9.932285717E+01  9.932285717E+01  0.000000000E+00  0.00000E+00  9.000E+00
      25     1     1     2     0     0  1.082806723E+02 -6.515481519E+01  3.333415413E+01  1.808480571E+02  1.250000000E+02  0.00000E+00  9.000E+00
      25     1     1     2     0     0 -1.373188015E+02  6.278343430E+01  4.204386920E+02  4.638878168E+02  1.250000000E+02  0.00000E+00  9.000E+00
      21     1     1     2   511   502  2.903812925E+01  2.371380890E+00  5.140211832E+01  5.908480486E+01  0.000000000E+00  0.00000E+00  9.000E+00
#rwgt            1           1   3.1163477190181799E-002          10      165789           0
</event>
<event>
      5   9999  3.79277E-02  3.74844E+01 -1.00000E+00  1.46612E-01
      21    -1     0     0   502   501  0.000000000E+00  0.000000000E+00  2.065483668E+02  2.065483668E+02  0.000000000E+00  0.00000E+00  9.000E+00
      21    -1     0     0   501   512  0.000000000E+00  0.000000000E+00 -2.899953816E+02  2.899953816E+02  0.000000000E+00  0.00000E+00  9.000E+00
      25     1     1     2     0     0  8.374679956E+01  7.818288100E+01 -7.343794456E+01  1.847815495E+02  1.250000000E+02  0.00000E+00  9.000E+00
      25     1     1     2     0     0 -1.071623035E+02 -1.074538736E+02  8.153188017E+01  2.128439375E+02  1.250000000E+02  0.00000E+00  9.000E+00
      21     1     1     2   502   512  2.341550390E+01  2.927099264E+01 -9.154095049E+01  9.891826146E+01  1.348699152E-06  0.00000E+00  9.000E+00
#rwgt            1           1  0.32361488418578732               10      166077           0
</event>
<event>
      5   9999  3.79277E-02  1.64139E+02 -1.00000E+00  1.14864E-01
      21    -1     0     0   502   501  0.000000000E+00  0.000000000E+00  1.018752394E+02  1.018752394E+02  0.000000000E+00  0.00000E+00  9.000E+00
       2    -1     0     0   501     0  0.000000000E+00  0.000000000E+00 -1.914230568E+03  1.914230568E+03  0.000000000E+00  0.00000E+00  9.000E+00
      25     1     1     2     0     0 -3.027678481E+01 -2.424486471E+02 -4.491191484E+02  5.263373819E+02  1.250000000E+02  0.00000E+00  9.000E+00
      25     1     1     2     0     0  5.725545893E+01  8.054215819E+01 -5.099885952E+01  1.673054407E+02  1.250000000E+02  0.00000E+00  9.000E+00
       2     1     1     2   502     0 -2.697867412E+01  1.619064889E+02 -1.312237320E+03  1.322462984E+03  1.525878906E-05  0.00000E+00  9.000E+00
#rwgt            1           1   3.7009247145679144E-002          10      166169           0
</event>
<event>
      5   9999 -3.79277E-02  4.71148E+02 -1.00000E+00  9.95909E-02
      21    -1     0     0   502   501  0.000000000E+00  0.000000000E+00  5.481215820E+02  5.481215820E+02  0.000000000E+00  0.00000E+00  9.000E+00
      21    -1     0     0   501   511  0.000000000E+00  0.000000000E+00 -7.348131336E+02  7.348131336E+02  0.000000000E+00  0.00000E+00  9.000E+00
      25     1     1     2     0     0  4.231690929E+01  5.826280418E+01  2.034393006E+02  2.493949162E+02  1.250000000E+02  0.00000E+00  9.000E+00
      25     1     1     2     0     0  3.985927035E+02 -2.243333298E+02 -2.764769486E+02  5.488771167E+02  1.250000000E+02  0.00000E+00  9.000E+00
      21     1     1     2   502   511 -4.409096128E+02  1.660705256E+02 -1.136539036E+02  4.846626826E+02  8.740569487E-06  0.00000E+00  9.000E+00
#rwgt            1           1 -0.29154323912032393               10      166286           0
</event>
<event>
      5   9999  3.79277E-02  2.43523E+01 -1.00000E+00  1.59610E-01
      21    -1     0     0   502   501  0.000000000E+00  0.000000000E+00  1.500583149E+02  1.500583149E+02  0.000000000E+00  0.00000E+00  9.000E+00
       2    -1     0     0   501     0  0.000000000E+00  0.000000000E+00 -5.591504060E+02  5.591504060E+02  0.000000000E+00  0.00000E+00  9.000E+00
      25     1     1     2     0     0 -1.458858158E+01 -5.735491101E+01 -3.265284497E+02  3.546099843E+02  1.250000000E+02  0.00000E+00  9.000E+00
      25     1     1     2     0     0  3.585622750E+01  6.921743522E+01  9.505386593E+01  1.753195934E+02  1.250000000E+02  0.00000E+00  9.000E+00
       2     1     1     2   502     0 -2.126764592E+01 -1.186252421E+01 -1.776175074E+02  1.792791432E+02  1.907348633E-06  0.00000E+00  9.000E+00
#rwgt            1           1   4.4359382204211276E-002          10      166348           0
</event>
<event>
      5   9999  3.79277E-02  4.94544E+02 -1.00000E+00  9.89876E-02
      21    -1     0     0   502   501  0.000000000E+00  0.000000000E+00  1.236374744E+03  1.236374744E+03  0.000000000E+00  0.00000E+00  9.000E+00
      21    -1     0     0   511   502  0.000000000E+00  0.000000000E+00 -3.029151511E+02  3.029151511E+02  0.000000000E+00  0.00000E+00  9.000E+00
      25     1     1     2     0     0  3.478492778E+02  6.408843838E+01  5.258475151E+02  6.459466364E+02  1.250000000E+02  0.00000E+00  9.000E+00
      25     1     1     2     0     0  1.112030069E+02 -2.480587180E+02  1.773842140E+02  3.478352996E+02  1.250000000E+02  0.00000E+00  9.000E+00
      21     1     1     2   511   501 -4.590522847E+02  1.839702796E+02  2.302278635E+02  5.455079587E+02  1.293626782E-05  0.00000E+00  9.000E+00
#rwgt            2          11   3.5224420403277487E-004          10      166619           0
</event>
<event>
      5   9999  3.79277E-02  3.52799E+01 -1.00000E+00  1.48305E-01
      21    -1     0     0   502   501  0.000000000E+00  0.000000000E+00  4.108334529E+02  4.108334529E+02  0.000000000E+00  0.00000E+00  9.000E+00
      21    -1     0     0   501   512  0.000000000E+00  0.000000000E+00 -2.222353435E+02  2.222353435E+02  0.000000000E+00  0.00000E+00  9.000E+00
      25     1     1     2     0     0  1.631516120E+02  1.223110550E+01  2.036739313E+02  2.896137405E+02  1.250000000E+02  0.00000E+00  9.000E+00
      25     1     1     2     0     0 -1.440696680E+02  1.744295388E+01  1.049143869E+02  2.183857927E+02  1.250000000E+02  0.00000E+00  9.000E+00
      21     1     1     2   502   512 -1.908194396E+01 -2.967405939E+01 -1.199902087E+02  1.250692631E+02  1.907348633E-06  0.00000E+00  9.000E+00
#rwgt            1           1   5.0339110336444934E-002          10      166654           0
</event>
<event>
      5   9999  3.79277E-02  8.40697E+01 -1.00000E+00  1.27315E-01
      21    -1     0     0   502   501  0.000000000E+00  0.000000000E+00  2.638464835E+02  2.638464835E+02  0.000000000E+00  0.00000E+00  9.000E+00
      21    -1     0     0   501   511  0.000000000E+00  0.000000000E+00 -2.722275916E+02  2.722275916E+02  0.000000000E+00  0.00000E+00  9.000E+00
      25     1     1     2     0     0 -2.730731061E+01 -4.900020836E+01  1.749513170E+02  2.222153752E+02  1.250000000E+02  0.00000E+00  9.000E+00
      25     1     1     2     0     0 -4.777957103E+01  8.681133520E+01 -1.615134298E+02  2.270037078E+02  1.250000000E+02  0.00000E+00  9.000E+00
      21     1     1     2   502   511  7.508688164E+01 -3.781112683E+01 -2.181899537E+01  8.685499217E+01  1.238859277E-06  0.00000E+00  9.000E+00
#rwgt            1           1   4.1705843143440627E-002          10      166794           0
</event>
<event>
      5   9999  3.79277E-02  1.19336E+01 -1.00000E+00  1.87282E-01
      21    -1     0     0   502   501  0.000000000E+00  0.000000000E+00  2.728957920E+02  2.728957920E+02  0.000000000E+00  0.00000E+00  9.000E+00
      21    -1     0     0   512   502  0.000000000E+00  0.000000000E+00 -4.400135379E+02  4.400135379E+02  0.000000000E+00  0.00000E+00  9.000E+00
      25     1     1     2     0     0  1.066653519E+02 -1.875798564E+02 -7.429607909E+01  2.602087762E+02  1.250000000E+02  0.00000E+00  9.000E+00
      25     1     1     2     0     0 -9.709285255E+01  1.804539643E+02  9.962363872E+01  2.598855991E+02  1.250000000E+02  0.00000E+00  9.000E+00
      21     1     1     2   512   501 -9.572499371E+00  7.125892083E+00 -1.924453055E+02  1.928149545E+02  0.000000000E+00  0.00000E+00  9.000E+00
#rwgt            1           1   4.3933507726330145E-002          10      166881           0
</event>
<event>
      5   9999  3.79277E-02  2.23498E+01 -1.00000E+00  1.62485E-01
      21    -1     0     0   502   511  0.000000000E+00  0.000000000E+00  1.807429386E+03  1.807429386E+03  0.000000000E+00  0.00000E+00  9.000E+00
      21    -1     0     0   501   502  0.000000000E+00  0.000000000E+00 -2.656043032E+02  2.656043032E+02  0.000000000E+00  0.00000E+00  9.000E+00
      25     1     1     2     0     0 -1.123829323E+02 -2.917075178E+02  7.191150700E+01  3.442665599E+02  1.250000000E+02  0.00000E+00  9.000E+00
      25     1     1     2     0     0  1.056555578E+02  2.703942528E+02  6.376298848E+01  3.224389361E+02  1.250000000E+02  0.00000E+00  9.000E+00
      21     1     1     2   501   511  6.727374576E+00  2.131326495E+01  1.406150587E+03  1.406328193E+03  1.525878906E-05  0.00000E+00  9.000E+00
#rwgt            1           1   2.9649452976708110E-002          10      167077           0
</event>
<event>
      5   9999  3.79277E-02  1.16869E+01 -1.00000E+00  1.88243E-01
      21    -1     0     0   512   501  0.000000000E+00  0.000000000E+00  7.212504686E+01  7.212504686E+01  0.000000000E+00  0.00000E+00  9.000E+00
      21    -1     0     0   501   502  0.000000000E+00  0.000000000E+00 -9.247739135E+02  9.247739135E+02  0.000000000E+00  0.00000E+00  9.000E+00
      25     1     1     2     0     0 -1.851929374E+02 -9.106450450E+01 -3.547856295E+02  4.290536224E+02  1.250000000E+02  0.00000E+00  9.000E+00
      25     1     1     2     0     0  1.942118268E+02  9.849706637E+01 -4.961060539E+02  5.560270879E+02  1.250000000E+02  0.00000E+00  9.000E+00
      21     1     1     2   512   502 -9.018889368E+00 -7.432561872E+00 -1.757183310E+00  1.181825007E+01  2.657257691E-07  0.00000E+00  9.000E+00
#rwgt            1           1   2.8716233578514622E-002          10      167722           0
</event>
<event>
      5   9999  3.79277E-02  1.73599E+01 -1.00000E+00  1.71607E-01
      21    -1     0     0   502   501  0.000000000E+00  0.000000000E+00  5.034633413E+02  5.034633413E+02  0.000000000E+00  0.00000E+00  9.000E+00
      21    -1     0     0   501   511  0.000000000E+00  0.000000000E+00 -1.248188199E+02  1.248188199E+02  0.000000000E+00  0.00000E+00  9.000E+00
      25     1     1     2     0     0  1.274425967E+02 -1.782450001E+00  3.620384394E+02  4.036602831E+02  1.250000000E+02  0.00000E+00  9.000E+00
      25     1     1     2     0     0 -1.283279161E+02  1.911979952E+01  5.001119853E+01  1.869752410E+02  1.250000000E+02  0.00000E+00  9.000E+00
      21     1     1     2   502   511  8.853193242E-01 -1.733734952E+01 -3.340511642E+01  3.764663706E+01  4.768371582E-07  0.00000E+00  9.000E+00
#rwgt            1           1   3.4028212434838896E-002          10      168023           0
</event>
<event>
      5   9999  3.79277E-02  1.16926E+01 -1.00000E+00  1.88221E-01
      21    -1     0     0   502   512  0.000000000E+00  0.000000000E+00  1.963111827E+02  1.963111827E+02  0.000000000E+00  0.00000E+00  9.000E+00
      21    -1     0     0   501   502  0.000000000E+00  0.000000000E+00 -3.994026554E+02  3.994026554E+02  0.000000000E+00  0.00000E+00  9.000E+00
      25     1     1     2     0     0  1.077121269E+02  1.712138937E+02 -2.498490447E+02  3.449139673E+02  1.250000000E+02  0.00000E+00  9.000E+00
      25     1     1     2     0     0 -9.611294218E+01 -1.697388854E+02  3.515672006E+01  2.343287900E+02  1.250000000E+02  0.00000E+00  9.000E+00
      21     1     1     2   501   512 -1.159918475E+01 -1.475008264E+00  1.160085189E+01  1.647108075E+01  3.371747881E-07  0.00000E+00  9.000E+00
#rwgt            1           1   5.1706442435325219E-002          10      168343           0
</event>
<event>
      5   9999  3.79277E-02  6.50561E+01 -1.00000E+00  1.32852E-01
      21    -1     0     0   511   501  0.000000000E+00  0.000000000E+00  1.729622647E+03  1.729622647E+03  0.000000000E+00  0.00000E+00  9.000E+00
      21    -1     0     0   501   502  0.000000000E+00  0.000000000E+00 -1.565358583E+02  1.565358583E+02  0.000000000E+00  0.00000E+00  9.000E+00
      25     1     1     2     0     0 -3.372595401E+01 -1.387588520E+02 -1.700469139E+01  1.905403330E+02  1.250000000E+02  0.00000E+00  9.000E+00
      25     1     1     2     0     0  9.877382726E+01  1.377270122E+02  1.611023773E+02  2.651489672E+02  1.250000000E+02  0.00000E+00  9.000E+00
      21     1     1     2   511   502 -6.504787325E+01  1.031839750E+00  1.428989103E+03  1.430469205E+03  2.157918644E-05  0.00000E+00  9.000E+00
#rwgt            1           1   2.8119247302076877E-002          10      168724           0
</event>
<event>
      5   9999  3.79277E-02  3.97630E+01 -1.00000E+00  1.45000E-01
      21    -1     0     0   502   501  0.000000000E+00  0.000000000E+00  1.805602340E+02  1.805602340E+02  0.000000000E+00  0.00000E+00  9.000E+00
      21    -1     0     0   501   512  0.000000000E+00  0.000000000E+00 -2.839274889E+02  2.839274889E+02  0.000000000E+00  0.00000E+00  9.000E+00
      25     1     1     2     0     0  5.339427284E+01 -1.390915594E+02  1.039456186E+01  1.947574317E+02  1.250000000E+02  0.00000E+00  9.000E+00
      25     1     1     2     0     0 -9.180069043E+01  1.287936878E+02 -7.769842744E+01  2.160491296E+02  1.250000000E+02  0.00000E+00  9.000E+00
      21     1     1     2   502   512  3.840641759E+01  1.029787165E+01 -3.606338928E+01  5.368116168E+01  0.000000000E+00  0.00000E+00  9.000E+00
#rwgt            1           1   3.7746252006437886E-002          10      168974           0
</event>
<event>
      5   9999  3.79277E-02  4.21514E+01 -1.00000E+00  1.43443E-01
      21    -1     0     0   502   501  0.000000000E+00  0.000000000E+00  6.655325837E+02  6.655325837E+02  0.000000000E+00  0.00000E+00  9.000E+00
      21    -1     0     0   501   511  0.000000000E+00  0.000000000E+00 -1.037910158E+02  1.037910158E+02  0.000000000E+00  0.00000E+00  9.000E+00
      25     1     1     2     0     0  7.598895167E+01 -1.105549894E+02  4.492468536E+02  4.852261967E+02  1.250000000E+02  0.00000E+00  9.000E+00
      25     1     1     2     0     0 -1.001792348E+02  1.450741728E+02  1.083050919E+02  2.417382627E+02  1.250000000E+02  0.00000E+00  9.000E+00
      21     1     1     2   502   511  2.419028309E+01 -3.451918345E+01  4.189622389E+00  4.235914019E+01  7.586432732E-07  0.00000E+00  9.000E+00
#rwgt            1           1   2.3189713918468274E-002          10      169058           0
</event>
<event>
      5   9999  3.79277E-02  2.71642E+01 -1.00000E+00  1.56097E-01
      21    -1     0     0   502   501  0.000000000E+00  0.000000000E+00  3.193149806E+02  3.193149806E+02  0.000000000E+00  0.00000E+00  9.000E+00
      21    -1     0     0   501   512  0.000000000E+00  0.000000000E+00 -1.767428378E+02  1.767428378E+02  0.000000000E+00  0.00000E+00  9.000E+00
      25     1     1     2     0     0  1.573681059E+02 -2.675689602E+01  1.447994442E+02  2.491435957E+02  1.250000000E+02  0.00000E+00  9.000E+00
      25     1     1     2     0     0 -1.768193929E+02  7.795383295E+00  1.045880022E+01  2.169337507E+02  1.250000000E+02  0.00000E+00  9.000E+00
      21     1     1     2   502   512  1.945128702E+01  1.896151272E+01 -1.268610162E+01  2.998047207E+01  0.000000000E+00  0.00000E+00  9.000E+00
#rwgt            1           1   3.8053241868088158E-002          10      169206           0
</event>
<event>
      5   9999  3.79277E-02  2.28127E+01 -1.00000E+00  1.61788E-01
       1    -1     0     0   502     0  0.000000000E+00  0.000000000E+00  5.861272286E+02  5.861272286E+02  0.000000000E+00  0.00000E+00  9.000E+00
      21    -1     0     0   501   502  0.000000000E+00  0.000000000E+00 -2.642780532E+02  2.642780532E+02  0.000000000E+00  0.00000E+00  9.000E+00
      25     1     1     2     0     0  5.612788355E+01 -1.109545896E+01 -2.052473505E+02  2.470322315E+02  1.250000000E+02  0.00000E+00  9.000E+00
      25     1     1     2     0     0 -6.975748184E+01 -7.198018989E+00  9.790361842E+01  1.735742961E+02  1.250000000E+02  0.00000E+00  9.000E+00
       1     1     1     2   501     0  1.362959829E+01  1.829347795E+01  4.291929075E+02  4.297987543E+02  0.000000000E+00  0.00000E+00  9.000E+00
#rwgt            1           1   4.2458111458172423E-002          10      169383           0
</event>
<event>
      5   9999  3.79277E-02  9.13987E+00 -1.00000E+00  2.00384E-01
      21    -1     0     0   502   501  0.000000000E+00  0.000000000E+00  2.728550876E+02  2.728550876E+02  0.000000000E+00  0.00000E+00  9.000E+00
      21    -1     0     0   501   511  0.000000000E+00  0.000000000E+00 -1.955918016E+02  1.955918016E+02  0.000000000E+00  0.00000E+00  9.000E+00
      25     1     1     2     0     0  1.647285925E+01 -1.770948272E+02  6.661854622E+01  2.273696629E+02  1.250000000E+02  0.00000E+00  9.000E+00
      25     1     1     2     0     0 -2.076141096E+01  1.851661050E+02  2.317790980E+01  2.255653744E+02  1.250000000E+02  0.00000E+00  9.000E+00
      21     1     1     2   502   511  4.288551702E+00 -8.071277741E+00 -1.253316997E+01  1.551185191E+01  2.920019320E-07  0.00000E+00  9.000E+00
#rwgt            1           1   2.9055721205417905E-002          10      169617           0
</event>
<event>
      5   9999  3.79277E-02  7.44508E+01 -1.00000E+00  1.29879E-01
      21    -1     0     0   502   501  0.000000000E+00  0.000000000E+00  1.708182763E+02  1.708182763E+02  0.000000000E+00  0.00000E+00  9.000E+00
      21    -1     0     0   512   502  0.000000000E+00  0.000000000E+00 -1.139754052E+03  1.139754052E+03  0.000000000E+00  0.00000E+00  9.000E+00
      25     1     1     2     0     0 -1.066618339E+02 -4.637481643E+01  1.067703284E+02  2.013759505E+02  1.250000000E+02  0.00000E+00  9.000E+00
      25     1     1     2     0     0  3.229541312E+01  4.991805588E+01 -3.054416334E+02  3.353422095E+02  1.250000000E+02  0.00000E+00  9.000E+00
      21     1     1     2   512   501  7.436642078E+01 -3.543239454E+00 -7.702644705E+02  7.738541681E+02  1.525878906E-05  0.00000E+00  9.000E+00
#rwgt            1           1   3.3124977723157943E-002          10      170169           0
</event>
<event>
      5   9999  3.79277E-02  6.54986E+01 -1.00000E+00  1.32699E-01
      21    -1     0     0   502   501  0.000000000E+00  0.000000000E+00  4.667510334E+02  4.667510334E+02  0.000000000E+00  0.00000E+00  9.000E+00
      21    -1     0     0   511   502  0.000000000E+00  0.000000000E+00 -1.506084329E+02  1.506084329E+02  0.000000000E+00  0.00000E+00  9.000E+00
      25     1     1     2     0     0 -1.432902916E+02 -9.500724097E+01  3.182885894E+02  3.827415703E+02  1.250000000E+02  0.00000E+00  9.000E+00
      25     1     1     2     0     0  8.132697188E+01  7.377951074E+01 -1.763570971E+01  1.673126140E+02  1.250000000E+02  0.00000E+00  9.000E+00
      21     1     1     2   511   501  6.196331975E+01  2.122773023E+01  1.548972089E+01  6.730528195E+01  1.025477084E-06  0.00000E+00  9.000E+00
#rwgt            1           1   3.0515586709948524E-002          10      170243           0
</event>
<event>
      5   9999  3.79277E-02  6.30248E+01 -1.00000E+00  1.33572E-01
      21    -1     0     0   502   501  0.000000000E+00  0.000000000E+00  5.547648570E+02  5.547648570E+02  0.000000000E+00  0.00000E+00  9.000E+00
      21    -1     0     0   512   502  0.000000000E+00  0.000000000E+00 -7.389220925E+01  7.389220925E+01  0.000000000E+00  0.00000E+00  9.000E+00
      25     1     1     2     0     0 -4.009205064E+00 -8.110211671E+01  1.190506335E+02  1.907660357E+02  1.250000000E+02  0.00000E+00  9.000E+00
      25     1     1     2     0     0  6.669002219E+01  7.452667818E+01  3.311176469E+02  3.677848296E+02  1.250000000E+02  0.00000E+00  9.000E+00
      21     1     1     2   512   501 -6.268081713E+01  6.575438529E+00  3.070436742E+01  7.010620091E+01  5.840038640E-07  0.00000E+00  9.000E+00
#rwgt            1           1   3.9894288535367584E-002          10      170351           0
</event>
<event>
      5   9999  3.79277E-02  2.60887E+01 -1.00000E+00  1.57377E-01
      21    -1     0     0   502   511  0.000000000E+00  0.000000000E+00  1.113293409E+03  1.113293409E+03  0.000000000E+00  0.00000E+00  9.000E+00
      21    -1     0     0   501   502  0.000000000E+00  0.000000000E+00 -1.277205803E+02  1.277205803E+02  0.000000000E+00  0.00000E+00  9.000E+00
      25     1     1     2     0     0 -1.889306333E+02 -1.021621895E+02  2.501833010E+02  3.526309420E+02  1.250000000E+02  0.00000E+00  9.000E+00
      25     1     1     2     0     0  1.767604067E+02  1.252382278E+02  1.289689873E+02  2.814015898E+02  1.250000000E+02  0.00000E+00  9.000E+00
      21     1     1     2   501   511  1.217022651E+01 -2.307603827E+01  6.064205408E+02  6.069814579E+02  7.629394531E-06  0.00000E+00  9.000E+00
#rwgt            1           1   3.7358908681295717E-002          10      170558           0
</event>
<event>
      5   9999  3.79277E-02  5.50075E+01 -1.00000E+00  1.36751E-01
      21    -1     0     0   512   501  0.000000000E+00  0.000000000E+00  1.198117814E+02  1.198117814E+02  0.000000000E+00  0.00000E+00  9.000E+00
      21    -1     0     0   501   502  0.000000000E+00  0.000000000E+00 -1.716354997E+03  1.716354997E+03  0.000000000E+00  0.00000E+00  9.000E+00
      25     1     1     2     0     0  1.318177212E+02 -1.982517436E+02 -4.689156835E+02  5.405428602E+02  1.250000000E+02  0.00000E+00  9.000E+00
      25     1     1     2     0     0 -1.006880884E+02  2.436033754E+02 -1.182483896E+03  1.217938364E+03  1.250000000E+02  0.00000E+00  9.000E+00
      21     1     1     2   512   502 -3.112963275E+01 -4.535163180E+01  5.485636404E+01  7.768555347E+01  1.907348633E-06  0.00000E+00  9.000E+00
#rwgt            1           1   3.6946067791732068E-002          10      170823           0
</event>
<event>
      5   9999  3.79277E-02  2.65640E+01 -1.00000E+00  1.56802E-01
      21    -1     0     0   502   501  0.000000000E+00  0.000000000E+00  3.119108899E+02  3.119108899E+02  0.000000000E+00  0.00000E+00  9.000E+00
      21    -1     0     0   501   511  0.000000000E+00  0.000000000E+00 -3.308319251E+02  3.308319251E+02  0.000000000E+00  0.00000E+00  9.000E+00
      25     1     1     2     0     0  1.731306782E+01  1.513803902E+02 -1.680402291E+02  2.589947556E+02  1.250000000E+02  0.00000E+00  9.000E+00
      25     1     1     2     0     0 -2.378914414E+01 -1.256178672E+02  2.341792560E+02  2.946365488E+02  1.250000000E+02  0.00000E+00  9.000E+00
      21     1     1     2   502   511  6.476076327E+00 -2.576252303E+01 -8.506006207E+01  8.911151057E+01  9.536743164E-07  0.00000E+00  9.000E+00
#rwgt            1           1   3.8120931890169338E-002          10      171023           0
</event>
<event>
      5   9999  3.79277E-02  5.48246E+01 -1.00000E+00  1.36831E-01
       2    -1     0     0   502     0  0.000000000E+00  0.000000000E+00  3.881470424E+03  3.881470424E+03  0.000000000E+00  0.00000E+00  9.000E+00
      21    -1     0     0   501   502  0.000000000E+00  0.000000000E+00 -4.721447303E+01  4.721447303E+01  0.000000000E+00  0.00000E+00  9.000E+00
      25     1     1     2     0     0 -2.291052298E+01  3.443237142E+02  1.500211542E+03  1.544455691E+03  1.250000000E+02  0.00000E+00  9.000E+00
      25     1     1     2     0     0  5.386115880E+01 -2.990711123E+02  1.077474868E+03  1.126464223E+03  1.250000000E+02  0.00000E+00  9.000E+00
       2     1     1     2   501     0 -3.095063582E+01 -4.525260183E+01  1.256569542E+03  1.257764984E+03  1.525878906E-05  0.00000E+00  9.000E+00
#rwgt            1           1   5.8314352636861258E-002          10      171143           0
</event>
<event>
      5   9999  3.79277E-02  5.25815E+01 -1.00000E+00  1.37839E-01
      21    -1     0     0   502   501  0.000000000E+00  0.000000000E+00  3.974307318E+01  3.974307318E+01  0.000000000E+00  0.00000E+00  9.000E+00
      21    -1     0     0   511   502  0.000000000E+00  0.000000000E+00 -1.423622057E+03  1.423622057E+03  0.000000000E+00  0.00000E+00  9.000E+00
      25     1     1     2     0     0 -1.480350361E+02 -7.322232418E+01 -8.712876615E+02  8.955685734E+02  1.250000000E+02  0.00000E+00  9.000E+00
      25     1     1     2     0     0  1.084556727E+02  3.860596541E+01 -2.659050404E+02  3.155686043E+02  1.250000000E+02  0.00000E+00  9.000E+00
      21     1     1     2   511   501  3.957936347E+01  3.461635876E+01 -2.466862816E+02  2.522279521E+02  2.697398305E-06  0.00000E+00  9.000E+00
#rwgt            1           1   5.2554299227797453E-002          10      171421           0
</event>
<event>
      5   9999  3.79277E-02  4.91072E+01 -1.00000E+00  1.39523E-01
      21    -1     0     0   502   501  0.000000000E+00  0.000000000E+00  9.834895714E+02  9.834895714E+02  0.000000000E+00  0.00000E+00  9.000E+00
      21    -1     0     0   512   502  0.000000000E+00  0.000000000E+00 -7.094436935E+01  7.094436935E+01  0.000000000E+00  0.00000E+00  9.000E+00
      25     1     1     2     0     0  6.036924468E+01  5.728867995E+01  8.436000992E+02  8.568620460E+02  1.250000000E+02  0.00000E+00  9.000E+00
      25     1     1     2     0     0 -4.358068151E+01 -1.114046899E+01  3.349121484E+01  1.370038223E+02  1.250000000E+02  0.00000E+00  9.000E+00
      21     1     1     2   512   501 -1.678856317E+01 -4.614821095E+01  3.545388809E+01  6.056807251E+01  6.743495762E-07  0.00000E+00  9.000E+00
#rwgt            1           1   4.6113629386116441E-002          10      171518           0
</event>
<event>
      5   9999  3.79277E-02  8.96774E+01 -1.00000E+00  1.25994E-01
      21    -1     0     0   502   511  0.000000000E+00  0.000000000E+00  1.969379661E+02  1.969379661E+02  0.000000000E+00  0.00000E+00  9.000E+00
      21    -1     0     0   501   502  0.000000000E+00  0.000000000E+00 -3.572524818E+02  3.572524818E+02  0.000000000E+00  0.00000E+00  9.000E+00
      25     1     1     2     0     0 -1.316835271E+02 -5.948996707E+01 -1.555675846E+01  1.916940798E+02  1.250000000E+02  0.00000E+00  9.000E+00
      25     1     1     2     0     0  1.983708842E+02 -4.669304584E-01 -1.391324131E+02  2.726427224E+02  1.250000000E+02  0.00000E+00  9.000E+00
      21     1     1     2   501   511 -6.668735701E+01  5.995689753E+01 -5.625344172E+00  8.985364569E+01  8.344650269E-07  0.00000E+00  9.000E+00
#rwgt            1           1   3.1398937378693689E-002          10      171680           0
</event>
<event>
      5   9999  3.79277E-02  2.06588E+01 -1.00000E+00  1.65216E-01
      21    -1     0     0   502   501  0.000000000E+00  0.000000000E+00  5.237804971E+01  5.237804971E+01  0.000000000E+00  0.00000E+00  9.000E+00
      21    -1     0     0   512   502  0.000000000E+00  0.000000000E+00 -7.279971108E+02  7.279971108E+02  0.000000000E+00  0.00000E+00  9.000E+00
      25     1     1     2     0     0  6.440253559E+01  5.584132144E+01 -4.697598506E+02  4.935233095E+02  1.250000000E+02  0.00000E+00  9.000E+00
      25     1     1     2     0     0 -7.385703457E+01 -3.747294200E+01 -1.029432824E+02  1.818829358E+02  1.250000000E+02  0.00000E+00  9.000E+00
      21     1     1     2   512   501  9.454498979E+00 -1.836837944E+01 -1.029159281E+02  1.049689153E+02  1.348699152E-06  0.00000E+00  9.000E+00
#rwgt            1           1   4.3536944483903134E-002          10      171890           0
</event>
<event>
      5   9999  3.79277E-02  1.20066E+01 -1.00000E+00  1.87003E-01
      21    -1     0     0   502   511  0.000000000E+00  0.000000000E+00  3.161317342E+01  3.161317342E+01  0.000000000E+00  0.00000E+00  9.000E+00
      21    -1     0     0   501   502  0.000000000E+00  0.000000000E+00 -1.531626088E+03  1.531626088E+03  0.000000000E+00  0.00000E+00  9.000E+00
      25     1     1     2     0     0 -1.135944149E+02 -2.985617749E+01 -3.701744610E+02  4.079818795E+02  1.250000000E+02  0.00000E+00  9.000E+00
      25     1     1     2     0     0  1.250533070E+02  3.344121139E+01 -1.128967947E+03  1.143219257E+03  1.250000000E+02  0.00000E+00  9.000E+00
      21     1     1     2   501   511 -1.145889205E+01 -3.585033900E+00 -8.705068121E-01  1.203812515E+01  2.671840947E-07  0.00000E+00  9.000E+00
#rwgt            1           1   5.1117283735119354E-002          10      172061           0
</event>
<event>
      5   9999  3.79277E-02  2.87346E+01 -1.00000E+00  1.54351E-01
       3    -1     0     0   502     0  0.000000000E+00  0.000000000E+00  5.066608522E+03  5.066608522E+03  0.000000000E+00  0.00000E+00  9.000E+00
      21    -1     0     0   501   502  0.000000000E+00  0.000000000E+00 -6.011203612E+01  6.011203612E+01  0.000000000E+00  0.00000E+00  9.000E+00
      25     1     1     2     0     0  1.607748581E+02 -1.024284148E+02  6.417354845E+02  6.810209741E+02  1.250000000E+02  0.00000E+00  9.000E+00
      25     1     1     2     0     0 -1.327035957E+02  9.628995579E+01  2.224922690E+02  3.033311881E+02  1.250000000E+02  0.00000E+00  9.000E+00
       3     1     1     2   501     0 -2.807126242E+01  6.138458995E+00  4.142268732E+03  4.142368396E+03  0.000000000E+00  0.00000E+00  9.000E+00
#rwgt            1           1   2.8854293136767298E-002          10      172421           0
</event>
<event>
      5   9999  3.79277E-02  4.11996E+01 -1.00000E+00  1.44049E-01
      21    -1     0     0   511   501  0.000000000E+00  0.000000000E+00  3.377074508E+02  3.377074508E+02  0.000000000E+00  0.00000E+00  9.000E+00
      21    -1     0     0   501   502  0.000000000E+00  0.000000000E+00 -1.726360188E+02  1.726360188E+02  0.000000000E+00  0.00000E+00  9.000E+00
      25     1     1     2     0     0 -8.068087958E+01  5.097675197E+01  2.316882729E+02  2.800223015E+02  1.250000000E+02  0.00000E+00  9.000E+00
      25     1     1     2     0     0  4.879926755E+01 -2.488136453E+01 -1.063989644E+02  1.730496762E+02  1.250000000E+02  0.00000E+00  9.000E+00
      21     1     1     2   511   502  3.188161203E+01 -2.609538745E+01  3.978212350E+01  5.727149188E+01  6.743495762E-07  0.00000E+00  9.000E+00
#rwgt            1           1   4.1485408936901093E-002          10      172558           0
</event>
<event>
      5   9999  3.79277E-02  9.12506E+00 -1.00000E+00  2.00469E-01
      21    -1     0     0   502   501  0.000000000E+00  0.000000000E+00  9.351934156E+02  9.351934156E+02  0.000000000E+00  0.00000E+00  9.000E+00
      21    -1     0     0   501   512  0.000000000E+00  0.000000000E+00 -4.301942529E+01  4.301942529E+01  0.000000000E+00  0.00000E+00  9.000E+00
      25     1     1     2     0     0 -1.040509769E+02  9.778455917E+01  5.410633323E+02  5.733785446E+02  1.250000000E+02  0.00000E+00  9.000E+00
      25     1     1     2     0     0  1.001474149E+02 -1.060325258E+02  3.394163712E+02  3.900011209E+02  1.250000000E+02  0.00000E+00  9.000E+00
      21     1     1     2   502   512  3.903561981E+00  8.247966666E+00  1.169428684E+01  1.483317549E+01  0.000000000E+00  0.00000E+00  9.000E+00
#rwgt            1           1   3.4375292929881958E-002          10      172656           0
</event>
<event>
      5   9999  3.79277E-02  1.24254E+01 -1.00000E+00  1.85451E-01
      21    -1     0     0   502   511  0.000000000E+00  0.000000000E+00  3.755745481E+01  3.755745481E+01  0.000000000E+00  0.00000E+00  9.000E+00
      21    -1     0     0   501   502  0.000000000E+00  0.000000000E+00 -1.525705435E+03  1.525705435E+03  0.000000000E+00  0.00000E+00  9.000E+00
      25     1     1     2     0     0  1.837731201E+02  4.426876806E+01 -6.861970666E+02  7.226504672E+02  1.250000000E+02  0.00000E+00  9.000E+00
      25     1     1     2     0     0 -1.938466782E+02 -3.699450876E+01 -7.881575412E+02  8.220477104E+02  1.250000000E+02  0.00000E+00  9.000E+00
      21     1     1     2   501   511  1.007355816E+01 -7.274259303E+00 -1.379337260E+01  1.856471249E+01  6.078504936E-07  0.00000E+00  9.000E+00
#rwgt            1           1   7.9956271892354810E-002          10      172920           0
</event>
<event>
      5   9999  3.79277E-02  2.04942E+01 -1.00000E+00  1.65499E-01
      21    -1     0     0   502   501  0.000000000E+00  0.000000000E+00  1.217497889E+02  1.217497889E+02  0.000000000E+00  0.00000E+00  9.000E+00
      21    -1     0     0   512   502  0.000000000E+00  0.000000000E+00 -4.404126280E+02  4.404126280E+02  0.000000000E+00  0.00000E+00  9.000E+00
      25     1     1     2     0     0 -8.348275439E+01  1.183632254E+02 -4.233473745E+01  1.959501299E+02  1.250000000E+02  0.00000E+00  9.000E+00
      25     1     1     2     0     0  8.924611032E+01 -9.869608329E+01 -1.445870165E+02  2.328866471E+02  1.250000000E+02  0.00000E+00  9.000E+00
      21     1     1     2   512   501 -5.763355936E+00 -1.966714207E+01 -1.317410851E+02  1.333256399E+02  2.697398305E-06  0.00000E+00  9.000E+00
#rwgt            1           1   6.9135883077839216E-002          10      173094           0
</event>
<event>
      5   9999  3.79277E-02  7.67031E+01 -1.00000E+00  1.29240E-01
      21    -1     0     0   502   501  0.000000000E+00  0.000000000E+00  1.236678066E+02  1.236678066E+02  0.000000000E+00  0.00000E+00  9.000E+00
       3    -1     0     0   501     0  0.000000000E+00  0.000000000E+00 -6.829993585E+02  6.829993585E+02  0.000000000E+00  0.00000E+00  9.000E+00
      25     1     1     2     0     0 -9.599448796E+01  2.514032214E+01 -4.597638175E+02  4.866772498E+02  1.250000000E+02  0.00000E+00  9.000E+00
      25     1     1     2     0     0  1.294158583E+02 -9.417928700E+01 -1.258403035E+02  2.389120852E+02  1.250000000E+02  0.00000E+00  9.000E+00
       3     1     1     2   502     0 -3.342137031E+01  6.903896485E+01  2.627256909E+01  8.107783019E+01  1.545128989E-06  0.00000E+00  9.000E+00
#rwgt            1           1   3.1493703954901461E-002          10      173422           0
</event>
<event>
      5   9999  3.79277E-02  4.75334E+01 -1.00000E+00  1.40341E-01
       2    -1     0     0   502     0  0.000000000E+00  0.000000000E+00  1.004011456E+03  1.004011456E+03  0.000000000E+00  0.00000E+00  9.000E+00
      21    -1     0     0   501   502  0.000000000E+00  0.000000000E+00 -1.099449470E+02  1.099449470E+02  0.000000000E+00  0.00000E+00  9.000E+00
      25     1     1     2     0     0 -9.654971825E+01 -1.739087598E+02  2.283300691E+02  3.276060520E+02  1.250000000E+02  0.00000E+00  9.000E+00
      25     1     1     2     0     0  7.928976379E+01  2.181977477E+02  2.355987893E+02  3.535942778E+02  1.250000000E+02  0.00000E+00  9.000E+00
       2     1     1     2   501     0  1.725995446E+01 -4.428898789E+01  4.301376502E+02  4.327560729E+02  0.000000000E+00  0.00000E+00  9.000E+00
#rwgt            1           1   8.6541489702712387E-002          10      173483           0
</event>
<event>
      5   9999  3.79277E-02  1.94395E+01 -1.00000E+00  1.67394E-01
      21    -1     0     0   511   501  0.000000000E+00  0.000000000E+00  7.057425627E+02  7.057425627E+02  0.000000000E+00  0.00000E+00  9.000E+00
      21    -1     0     0   501   502  0.000000000E+00  0.000000000E+00 -1.525316262E+02  1.525316262E+02  0.000000000E+00  0.00000E+00  9.000E+00
      25     1     1     2     0     0  5.382582958E+01  2.039952312E+02  1.075354286E+01  2.454626508E+02  1.250000000E+02  0.00000E+00  9.000E+00
      25     1     1     2     0     0 -3.612727841E+01 -1.959543235E+02  3.645746289E+02  4.338697237E+02  1.250000000E+02  0.00000E+00  9.000E+00
      21     1     1     2   511   502 -1.769855117E+01 -8.040907682E+00  1.778827648E+02  1.789418143E+02  3.303624740E-06  0.00000E+00  9.000E+00
#rwgt            1           1   2.5722772171999312E-002          10      173599           0
</event>
<event>
      5   9999  3.79277E-02  4.70153E+01 -1.00000E+00  1.40618E-01
      21    -1     0     0   502   501  0.000000000E+00  0.000000000E+00  4.577487648E+02  4.577487648E+02  0.000000000E+00  0.00000E+00  9.000E+00
      21    -1     0     0   501   512  0.000000000E+00  0.000000000E+00 -2.569595107E+02  2.569595107E+02  0.000000000E+00  0.00000E+00  9.000E+00
      25     1     1     2     0     0 -5.215540687E+01 -1.244709771E+02  3.660443825E+02  4.096665725E+02  1.250000000E+02  0.00000E+00  9.000E+00
      25     1     1     2     0     0  9.842485343E+00  1.449661766E+02 -1.720201258E+02  2.575422112E+02  1.250000000E+02  0.00000E+00  9.000E+00
      21     1     1     2   502   512  4.231292153E+01 -2.049519953E+01  6.764997386E+00  4.749949180E+01  5.960464478E-07  0.00000E+00  9.000E+00
#rwgt            1           1   2.7692009199696034E-002          10      173788           0
</event>
<event>
      5   9999  3.79277E-02  2.63651E+02 -1.00000E+00  1.07447E-01
      21    -1     0     0   511   501  0.000000000E+00  0.000000000E+00  3.558271349E+02  3.558271349E+02  0.000000000E+00  0.00000E+00  9.000E+00
      21    -1     0     0   501   502  0.000000000E+00  0.000000000E+00 -2.847153357E+03  2.847153357E+03  0.000000000E+00  0.00000E+00  9.000E+00
      25     1     1     2     0     0 -5.025865802E+02 -3.973038150E+01 -2.283836400E+03  2.342158295E+03  1.250000000E+02  0.00000E+00  9.000E+00
      25     1     1     2     0     0  5.043066529E+02 -2.239149429E+02 -9.287432502E+01  5.733356278E+02  1.250000000E+02  0.00000E+00  9.000E+00
      21     1     1     2   511   502 -1.720072770E+00  2.636453244E+02 -1.146154972E+02  2.874865700E+02  3.814697266E-06  0.00000E+00  9.000E+00
#rwgt            1           1   5.1347817404370924E-003          10      173974           0
</event>
<event>
      5   9999  3.79277E-02  4.47951E+01 -1.00000E+00  1.41855E-01
      21    -1     0     0   502   512  0.000000000E+00  0.000000000E+00  3.365029617E+02  3.365029617E+02  0.000000000E+00  0.00000E+00  9.000E+00
      21    -1     0     0   501   502  0.000000000E+00  0.000000000E+00 -2.876841930E+02  2.876841930E+02  0.000000000E+00  0.00000E+00  9.000E+00
      25     1     1     2     0     0  1.122888454E+02 -1.458868674E+02  9.637432587E+01  2.424969558E+02  1.250000000E+02  0.00000E+00  9.000E+00
      25     1     1     2     0     0 -1.180015270E+02  1.903161732E+02 -1.302546217E+02  2.876384408E+02  1.250000000E+02  0.00000E+00  9.000E+00
      21     1     1     2   501   512  5.712681579E+00 -4.442930574E+01  8.269906450E+01  9.405175814E+01  9.536743164E-07  0.00000E+00  9.000E+00
#rwgt            2          11   1.3512604823607594E-003          10      174087           0
</event>
<event>
      5   9999 -3.79277E-02  3.49249E+01 -1.00000E+00  1.48592E-01
      21    -1     0     0   511   501  0.000000000E+00  0.000000000E+00  1.536763340E+02  1.536763340E+02  0.000000000E+00  0.00000E+00  9.000E+00
      21    -1     0     0   501   502  0.000000000E+00  0.000000000E+00 -3.548010071E+02  3.548010071E+02  0.000000000E+00  0.00000E+00  9.000E+00
      25     1     1     2     0     0  3.020125923E+01  8.587029831E+01 -2.525194838E+00  1.546518697E+02  1.250000000E+02  0.00000E+00  9.000E+00
      25     1     1     2     0     0 -6.253367434E+01 -7.266568314E+01 -2.477131914E+02  2.935601933E+02  1.250000000E+02  0.00000E+00  9.000E+00
      21     1     1     2   511   502  3.233241511E+01 -1.320461517E+01  4.911371305E+01  6.026527804E+01  0.000000000E+00  0.00000E+00  9.000E+00
#rwgt            1           1 -0.13190753203364849               10      174137           0
</event>
<event>
      5   9999  3.79277E-02  7.18332E+01 -1.00000E+00  1.30655E-01
      21    -1     0     0   502   501  0.000000000E+00  0.000000000E+00  1.135310613E+02  1.135310613E+02  0.000000000E+00  0.00000E+00  9.000E+00
      21    -1     0     0   512   502  0.000000000E+00  0.000000000E+00 -6.349275538E+02  6.349275538E+02  0.000000000E+00  0.00000E+00  9.000E+00
      25     1     1     2     0     0 -5.603278190E+01 -8.945659446E+01 -1.040614825E+02  1.938967433E+02  1.250000000E+02  0.00000E+00  9.000E+00
      25     1     1     2     0     0  4.064329688E+01  1.596219573E+02 -1.009077989E+02  2.300835299E+02  1.250000000E+02  0.00000E+00  9.000E+00
      21     1     1     2   512   501  1.538948503E+01 -7.016536288E+01 -3.164272111E+02  3.244783419E+02  3.814697266E-06  0.00000E+00  9.000E+00
#rwgt            1           1   4.0279415326346359E-002          10      174366           0
</event>
<event>
      5   9999  3.79277E-02  1.59128E+01 -1.00000E+00  1.75000E-01
      21    -1     0     0   502   501  0.000000000E+00  0.000000000E+00  2.054317041E+02  2.054317041E+02  0.000000000E+00  0.00000E+00  9.000E+00
      21    -1     0     0   501   511  0.000000000E+00  0.000000000E+00 -1.833131411E+02  1.833131411E+02  0.000000000E+00  0.00000E+00  9.000E+00
      25     1     1     2     0     0 -5.689854708E+01 -1.033625673E+02  8.574428033E+01  1.920894234E+02  1.250000000E+02  0.00000E+00  9.000E+00
      25     1     1     2     0     0  4.144890021E+01  1.071740142E+02 -5.456659053E+01  1.783445919E+02  1.250000000E+02  0.00000E+00  9.000E+00
      21     1     1     2   502   511  1.544964687E+01 -3.811446895E+00 -9.059126811E+00  1.831082998E+01  2.064765462E-07  0.00000E+00  9.000E+00
#rwgt            1           1   2.9811002632452434E-002          10      174638           0
</event>
<event>
      5   9999  3.79277E-02  1.38083E+01 -1.00000E+00  1.80839E-01
      21    -1     0     0   512   501  0.000000000E+00  0.000000000E+00  2.112411976E+02  2.112411976E+02  0.000000000E+00  0.00000E+00  9.000E+00
      21    -1     0     0   501   502  0.000000000E+00  0.000000000E+00 -1.156778763E+03  1.156778763E+03  0.000000000E+00  0.00000E+00  9.000E+00
      25     1     1     2     0     0 -8.458864635E+01 -8.388735090E+01 -4.610815365E+02  4.923550650E+02  1.250000000E+02  0.00000E+00  9.000E+00
      25     1     1     2     0     0  9.617339606E+01  7.637320005E+01 -6.685091409E+02  6.910945371E+02  1.250000000E+02  0.00000E+00  9.000E+00
      21     1     1     2   512   502 -1.158474972E+01  7.514150856E+00  1.840531124E+02  1.845703580E+02  4.672030912E-06  0.00000E+00  9.000E+00
#rwgt            1           1   3.8184960144552436E-002          10      174815           0
</event>
<event>
      5   9999 -3.79277E-02  3.32220E+01 -1.00000E+00  1.50025E-01
      21    -1     0     0   502   501  0.000000000E+00  0.000000000E+00  9.490934527E+01  9.490934527E+01  0.000000000E+00  0.00000E+00  9.000E+00
      21    -1     0     0   511   502  0.000000000E+00  0.000000000E+00 -5.651299618E+02  5.651299618E+02  0.000000000E+00  0.00000E+00  9.000E+00
      25     1     1     2     0     0 -9.555986780E+01  1.083018771E+02 -1.008137002E+02  2.159846917E+02  1.250000000E+02  0.00000E+00  9.000E+00
      25     1     1     2     0     0  6.559250147E+01 -1.226426138E+02 -2.098655391E+02  2.810909666E+02  1.250000000E+02  0.00000E+00  9.000E+00
      21     1     1     2   511   501  2.996736633E+01  1.434073677E+01 -1.595413772E+02  1.629636488E+02  1.907348633E-06  0.00000E+00  9.000E+00
#rwgt            1           1  -5.5309570309583542E-002          10      175110           0
</event>
<event>
      5   9999  3.79277E-02  1.42067E+01 -1.00000E+00  1.79636E-01
      21    -1     0     0   502   512  0.000000000E+00  0.000000000E+00  5.367272436E+02  5.367272436E+02  0.000000000E+00  0.00000E+00  9.000E+00
      21    -1     0     0   501   502  0.000000000E+00  0.000000000E+00 -4.143034827E+02  4.143034827E+02  0.000000000E+00  0.00000E+00  9.000E+00
      25     1     1     2     0     0 -1.510993426E+02 -1.398715868E+02  2.636748826E+01  2.423124359E+02  1.250000000E+02  0.00000E+00  9.000E+00
      25     1     1     2     0     0  1.529471137E+02  1.257855816E+02 -2.614139180E+02  3.509659081E+02  1.250000000E+02  0.00000E+00  9.000E+00
      21     1     1     2   501   512 -1.847771100E+00  1.408600526E+01  3.574701906E+02  3.577523822E+02  0.000000000E+00  0.00000E+00  9.000E+00
#rwgt            1           1   3.3566086994745274E-002          10      175263           0
</event>
<event>
      5   9999  3.79277E-02  1.45059E+02 -1.00000E+00  1.16973E-01
      21    -1     0     0   511   501  0.000000000E+00  0.000000000E+00  1.086359311E+02  1.086359311E+02  0.000000000E+00  0.00000E+00  9.000E+00
      21    -1     0     0   501   502  0.000000000E+00  0.000000000E+00 -8.423142709E+02  8.423142709E+02  0.000000000E+00  0.00000E+00  9.000E+00
      25     1     1     2     0     0  9.426742807E+01 -1.705674641E+02 -3.681779909E+02  4.349248679E+02  1.250000000E+02  0.00000E+00  9.000E+00
      25     1     1     2     0     0 -1.716829159E+02  4.789330154E+01 -2.420287806E+02  3.255329823E+02  1.250000000E+02  0.00000E+00  9.000E+00
      21     1     1     2   511   502  7.741548781E+01  1.226741625E+02 -1.234715682E+02  1.904923517E+02  0.000000000E+00  0.00000E+00  9.000E+00
#rwgt            2          11   2.4334218749936412E-003          10      175516           0
</event>
<event>
      5   9999  3.79277E-02  5.14024E+01 -1.00000E+00  1.38394E-01
      21    -1     0     0   502   501  0.000000000E+00  0.000000000E+00  5.277016056E+01  5.277016056E+01  0.000000000E+00  0.00000E+00  9.000E+00
      21    -1     0     0   512   502  0.000000000E+00  0.000000000E+00 -1.133874075E+03  1.133874075E+03  0.000000000E+00  0.00000E+00  9.000E+00
      25     1     1     2     0     0  6.436020417E+01  3.551272878E+01 -1.101730077E+02  1.821166698E+02  1.250000000E+02  0.00000E+00  9.000E+00
      25     1     1     2     0     0 -1.157269979E+02 -3.742681128E+01 -4.762103223E+02  5.071437423E+02  1.250000000E+02  0.00000E+00  9.000E+00
      21     1     1     2   512   501  5.136679377E+01  1.914082495E+00 -4.947205847E+02  4.973838238E+02  0.000000000E+00  0.00000E+00  9.000E+00
#rwgt            1           1   5.6806652075671649E-002          10      175551           0
</event>
<event>
      5   9999  3.79277E-02  4.24034E+01 -1.00000E+00  1.43286E-01
      21    -1     0     0   502   511  0.000000000E+00  0.000000000E+00  7.252277236E+02  7.252277236E+02  0.000000000E+00  0.00000E+00  9.000E+00
      21    -1     0     0   501   502  0.000000000E+00  0.000000000E+00 -1.641211857E+02  1.641211857E+02  0.000000000E+00  0.00000E+00  9.000E+00
      25     1     1     2     0     0 -2.845077968E+02 -1.016267686E+02  2.617554450E+02  4.188240675E+02  1.250000000E+02  0.00000E+00  9.000E+00
      25     1     1     2     0     0  2.484726980E+02  1.239766390E+02  2.050339525E+02  3.671141653E+02  1.250000000E+02  0.00000E+00  9.000E+00
      21     1     1     2   501   511  3.603509876E+01 -2.234987039E+01  9.431714051E+01  1.034106766E+02  1.348699152E-06  0.00000E+00  9.000E+00
#rwgt            1           1   3.2550375333187657E-002          10      175662           0
</event>
<event>
      5   9999  3.79277E-02  2.03700E+01 -1.00000E+00  1.65715E-01
      21    -1     0     0   502   512  0.000000000E+00  0.000000000E+00  4.126252666E+02  4.126252666E+02  0.000000000E+00  0.00000E+00  9.000E+00
      21    -1     0     0   501   502  0.000000000E+00  0.000000000E+00 -2.437709401E+02  2.437709401E+02  0.000000000E+00  0.00000E+00  9.000E+00
      25     1     1     2     0     0 -1.605529321E+02  1.101197375E+02 -4.066522431E+01  2.349090485E+02  1.250000000E+02  0.00000E+00  9.000E+00
      25     1     1     2     0     0  1.481228730E+02 -1.262576428E+02  2.143801854E+01  2.323057608E+02  1.250000000E+02  0.00000E+00  9.000E+00
      21     1     1     2   501   512  1.243005915E+01  1.613790529E+01  1.880815322E+02  1.891813974E+02  0.000000000E+00  0.00000E+00  9.000E+00
#rwgt            1           1   3.7745145295774919E-002          10      175955           0
</event>
<event>
      5   9999  3.79277E-02  1.32202E+02 -1.00000E+00  1.18610E-01
      21    -1     0     0   502   501  0.000000000E+00  0.000000000E+00  3.735598349E+02  3.735598349E+02  0.000000000E+00  0.00000E+00  9.000E+00
      21    -1     0     0   501   511  0.000000000E+00  0.000000000E+00 -2.947929867E+02  2.947929867E+02  0.000000000E+00  0.00000E+00  9.000E+00
      25     1     1     2     0     0 -9.254930587E+01 -2.076861938E+00  2.048081029E+02  2.571790163E+02  1.250000000E+02  0.00000E+00  9.000E+00
      25     1     1     2     0     0  2.180110605E+02  4.375188137E+01 -5.444790687E+01  2.608306427E+02  1.250000000E+02  0.00000E+00  9.000E+00
      21     1     1     2   502   511 -1.254617546E+02 -4.167501943E+01 -7.159334787E+01  1.503431627E+02  1.348699152E-06  0.00000E+00  9.000E+00
#rwgt            1           1   3.8204728614818023E-002          10      176217           0
</event>
<event>
      5   9999  3.79277E-02  2.82820E+01 -1.00000E+00  1.54840E-01
       1    -1     0     0   502     0  0.000000000E+00  0.000000000E+00  2.675211271E+02  2.675211271E+02  0.000000000E+00  0.00000E+00  9.000E+00
      21    -1     0     0   501   502  0.000000000E+00  0.000000000E+00 -3.969467474E+02  3.969467474E+02  0.000000000E+00  0.00000E+00  9.000E+00
      25     1     1     2     0     0 -1.942601355E+02 -4.576092824E+01 -2.877015072E+02  3.717905594E+02  1.250000000E+02  0.00000E+00  9.000E+00
      25     1     1     2     0     0  1.684608159E+02  3.417361048E+01  1.169154318E+02  2.425718457E+02  1.250000000E+02  0.00000E+00  9.000E+00
       1     1     1     2   501     0  2.579931960E+01  1.158731775E+01  4.136045506E+01  5.010546944E+01  6.743495762E-07  0.00000E+00  9.000E+00
#rwgt            1           1   3.6001275189157411E-002          10      176261           0
</event>
<event>
      5   9999  3.79277E-02  6.67259E+01 -1.00000E+00  1.32283E-01
      21    -1     0     0   502   501  0.000000000E+00  0.000000000E+00  7.424843334E+02  7.424843334E+02  0.000000000E+00  0.00000E+00  9.000E+00
      21    -1     0     0   501   511  0.000000000E+00  0.000000000E+00 -2.063578485E+02  2.063578485E+02  0.000000000E+00  0.00000E+00  9.000E+00
      25     1     1     2     0     0  1.257686169E+02  9.094329935E+01  2.845524972E+02  3.473953833E+02  1.250000000E+02  0.00000E+00  9.000E+00
      25     1     1     2     0     0 -1.912581923E+02 -1.037283776E+02  3.807826339E+02  4.560259715E+02  1.250000000E+02  0.00000E+00  9.000E+00
      21     1     1     2   502   511  6.548957540E+01  1.278507824E+01 -1.292086461E+02  1.454208270E+02  3.303624740E-06  0.00000E+00  9.000E+00
#rwgt            1           1   3.4465601122542017E-002          10      176398           0
</event>
<event>
      5   9999 -3.79277E-02  4.16613E+00 -1.00000E+00  2.59374E-01
      21    -1     0     0   502   501  0.000000000E+00  0.000000000E+00  1.517270347E+03  1.517270347E+03  0.000000000E+00  0.00000E+00  9.000E+00
      21    -1     0     0   501   512  0.000000000E+00  0.000000000E+00 -4.908804686E+01  4.908804686E+01  0.000000000E+00  0.00000E+00  9.000E+00
      25     1     1     2     0     0  1.722523690E+02 -1.325754072E+02  7.633415739E+02  8.034690259E+02  1.250000000E+02  0.00000E+00  9.000E+00
      25     1     1     2     0     0 -1.736158967E+02  1.286387282E+02  7.120626501E+02  7.545519330E+02  1.250000000E+02  0.00000E+00  9.000E+00
      21     1     1     2   502   512  1.363527717E+00  3.936678990E+00 -7.221923422E+00  8.337435290E+00  4.298152060E-07  0.00000E+00  9.000E+00
#rwgt            1           1  -3.5954857980920593E-003          10      176535           0
</event>
<event>
      5   9999  3.79277E-02  6.80801E+01 -1.00000E+00  1.31835E-01
      21    -1     0     0   502   511  0.000000000E+00  0.000000000E+00  2.069549038E+02  2.069549038E+02  0.000000000E+00  0.00000E+00  9.000E+00
      21    -1     0     0   501   502  0.000000000E+00  0.000000000E+00 -3.430032221E+02  3.430032221E+02  0.000000000E+00  0.00000E+00  9.000E+00
      25     1     1     2     0     0  1.032137394E+02  8.340190433E+01  9.800284653E+01  2.069746641E+02  1.250000000E+02  0.00000E+00  9.000E+00
      25     1     1     2     0     0 -9.240972792E+01 -1.618451323E+01 -2.255033255E+02  2.743688140E+02  1.250000000E+02  0.00000E+00  9.000E+00
      21     1     1     2   501   511 -1.080401152E+01 -6.721739110E+01 -8.547839273E+00  6.861464776E+01  8.760057960E-07  0.00000E+00  9.000E+00
#rwgt            1           1   5.4057585687207012E-002          10      177075           0
</event>
<event>
      5   9999  3.79277E-02  4.11130E+01 -1.00000E+00  1.44105E-01
      21    -1     0     0   512   501  0.000000000E+00  0.000000000E+00  5.716059879E+01  5.716059879E+01  0.000000000E+00  0.00000E+00  9.000E+00
      21    -1     0     0   501   502  0.000000000E+00  0.000000000E+00 -5.748038189E+02  5.748038189E+02  0.000000000E+00  0.00000E+00  9.000E+00
      25     1     1     2     0     0  6.271039461E+01 -8.565883016E+01 -2.462801490E+02  2.958867022E+02  1.250000000E+02  0.00000E+00  9.000E+00
      25     1     1     2     0     0 -7.326011944E+01  4.592240104E+01 -2.411726316E+02  2.850704304E+02  1.250000000E+02  0.00000E+00  9.000E+00
      21     1     1     2   512   502  1.054972482E+01  3.973642912E+01 -3.019043944E+01  5.100728504E+01  1.066240300E-06  0.00000E+00  9.000E+00
#rwgt            1           1   3.7994099214586394E-002          10      177133           0
</event>
<event>
      5   9999  3.79277E-02  2.25409E+01 -1.00000E+00  1.62194E-01
      21    -1     0     0   511   501  0.000000000E+00  0.000000000E+00  2.574519656E+03  2.574519656E+03  0.000000000E+00  0.00000E+00  9.000E+00
      21    -1     0     0   501   502  0.000000000E+00  0.000000000E+00 -4.179578051E+01  4.179578051E+01  0.000000000E+00  0.00000E+00  9.000E+00
      25     1     1     2     0     0  2.002307538E+02 -1.618725543E+02  1.005997939E+03  1.045921571E+03  1.250000000E+02  0.00000E+00  9.000E+00
      25     1     1     2     0     0 -1.827326979E+02  1.760821001E+02  9.032429895E+02  9.465035885E+02  1.250000000E+02  0.00000E+00  9.000E+00
      21     1     1     2   511   502 -1.749805590E+01 -1.420954581E+01  6.234829468E+02  6.238902773E+02  7.629394531E-06  0.00000E+00  9.000E+00
#rwgt            1           1   2.6393052455578783E-002          10      177275           0
</event>
<event>
      5   9999  3.79277E-02  2.27748E+01 -1.00000E+00  1.61844E-01
      21    -1     0     0   502   501  0.000000000E+00  0.000000000E+00  9.717580133E+02  9.717580133E+02  0.000000000E+00  0.00000E+00  9.000E+00
      21    -1     0     0   501   512  0.000000000E+00  0.000000000E+00 -1.670281029E+02  1.670281029E+02  0.000000000E+00  0.00000E+00  9.000E+00
      25     1     1     2     0     0 -2.508005417E+02 -8.236195120E+01  2.698068011E+02  3.976243361E+02  1.250000000E+02  0.00000E+00  9.000E+00
      25     1     1     2     0     0  2.305400806E+02  9.276408185E+01  6.058553100E+02  6.666630035E+02  1.250000000E+02  0.00000E+00  9.000E+00
      21     1     1     2   502   512  2.026046115E+01 -1.040213065E+01 -7.093220076E+01  7.449877658E+01  2.132480600E-06  0.00000E+00  9.000E+00
#rwgt            1           1   2.9948811937934791E-002          10      177521           0
</event>
<event>
      5   9999  3.79277E-02  1.12868E+02 -1.00000E+00  1.21509E-01
       2    -1     0     0   502     0  0.000000000E+00  0.000000000E+00  1.362745162E+03  1.362745162E+03  0.000000000E+00  0.00000E+00  9.000E+00
      21    -1     0     0   501   502  0.000000000E+00  0.000000000E+00 -3.175146100E+02  3.175146100E+02  0.000000000E+00  0.00000E+00  9.000E+00
      25     1     1     2     0     0  5.210389628E+01  4.626911550E+01  1.989543258E+02  2.450784993E+02  1.250000000E+02  0.00000E+00  9.000E+00
      25     1     1     2     0     0 -7.981953232E+01  6.314287402E+01 -2.693290267E+02  3.138810363E+02  1.250000000E+02  0.00000E+00  9.000E+00
       2     1     1     2   501     0  2.771563603E+01 -1.094119895E+02  1.115605253E+03  1.121300237E+03  1.525878906E-05  0.00000E+00  9.000E+00
#rwgt            2          18   1.6749161201725991E-003          10      177821           0
</event>
<event>
      5   9999 -3.79277E-02  6.59606E+01 -1.00000E+00  1.32541E-01
      21    -1     0     0   511   501  0.000000000E+00  0.000000000E+00  3.033833759E+02  3.033833759E+02  0.000000000E+00  0.00000E+00  9.000E+00
      21    -1     0     0   501   502  0.000000000E+00  0.000000000E+00 -3.486928391E+02  3.486928391E+02  0.000000000E+00  0.00000E+00  9.000E+00
      25     1     1     2     0     0  9.858893922E+01 -9.200275145E+01  1.736047621E+01  1.846907452E+02  1.250000000E+02  0.00000E+00  9.000E+00
      25     1     1     2     0     0 -1.298437218E+02  3.391718625E+01 -2.261103805E+02  2.911368609E+02  1.250000000E+02  0.00000E+00  9.000E+00
      21     1     1     2   511   502  3.125478255E+01  5.808556520E+01  1.634404411E+02  1.762486088E+02  0.000000000E+00  0.00000E+00  9.000E+00
#rwgt            1           1  -9.4582743534276405E-003          10      177855           0
</event>
<event>
      5   9999  3.79277E-02  2.05108E+02 -1.00000E+00  1.11251E-01
      21    -1     0     0   502   501  0.000000000E+00  0.000000000E+00  2.187753983E+02  2.187753983E+02  0.000000000E+00  0.00000E+00  9.000E+00
       2    -1     0     0   501     0  0.000000000E+00  0.000000000E+00 -9.034066279E+02  9.034066279E+02  0.000000000E+00  0.00000E+00  9.000E+00
      25     1     1     2     0     0 -7.752581437E+01 -1.844138296E+02  1.065659802E+02  2.588436219E+02  1.250000000E+02  0.00000E+00  9.000E+00
      25     1     1     2     0     0 -5.667270071E+01  2.930059238E+01 -3.276696100E+02  3.564585433E+02  1.250000000E+02  0.00000E+00  9.000E+00
       2     1     1     2   502     0  1.341985151E+02  1.551132373E+02 -4.635275997E+02  5.068798610E+02  7.629394531E-06  0.00000E+00  9.000E+00
#rwgt            1           1   2.1047199479314150E-002          10      177949           0
</event>
<event>
      5   9999  3.79277E-02  4.12093E+01 -1.00000E+00  1.44042E-01
      21    -1     0     0   502   511  0.000000000E+00  0.000000000E+00  4.977074426E+01  4.977074426E+01  0.000000000E+00  0.00000E+00  9.000E+00
      21    -1     0     0   501   502  0.000000000E+00  0.000000000E+00 -1.005424534E+03  1.005424534E+03  0.000000000E+00  0.00000E+00  9.000E+00
      25     1     1     2     0     0 -1.038448696E+01  1.730571068E+01 -8.248020689E+02  8.344643660E+02  1.250000000E+02  0.00000E+00  9.000E+00
      25     1     1     2     0     0  5.102643450E+01 -1.049129861E+01 -1.104328699E+02  1.747403305E+02  1.250000000E+02  0.00000E+00  9.000E+00
      21     1     1     2   501   511 -4.064194754E+01 -6.814412072E+00 -2.041885048E+01  4.599058128E+01  7.907449699E-07  0.00000E+00  9.000E+00
#rwgt            1           1   6.2570736024541065E-002          10      178111           0
</event>
<event>
      5   9999  3.79277E-02  3.55232E+01 -1.00000E+00  1.48111E-01
      21    -1     0     0   502   501  0.000000000E+00  0.000000000E+00  1.660899792E+03  1.660899792E+03  0.000000000E+00  0.00000E+00  9.000E+00
      21    -1     0     0   512   502  0.000000000E+00  0.000000000E+00 -3.933917316E+01  3.933917316E+01  0.000000000E+00  0.00000E+00  9.000E+00
      25     1     1     2     0     0  8.720496629E+01  7.503854898E+01  1.069015491E+03  1.082429956E+03  1.250000000E+02  0.00000E+00  9.000E+00
      25     1     1     2     0     0 -5.902948283E+01 -9.667275694E+01  5.570228030E+02  5.820047292E+02  1.250000000E+02  0.00000E+00  9.000E+00
      21     1     1     2   512   501 -2.817548346E+01  2.163420797E+01 -4.477675827E+00  3.580427912E+01  9.592459762E-07  0.00000E+00  9.000E+00
#rwgt            1           1   2.8302386670352432E-002          10      178313           0
</event>
<event>
      5   9999  3.79277E-02  5.42843E+01 -1.00000E+00  1.37069E-01
      21    -1     0     0   502   511  0.000000000E+00  0.000000000E+00  4.377663950E+02  4.377663950E+02  0.000000000E+00  0.00000E+00  9.000E+00
      21    -1     0     0   501   502  0.000000000E+00  0.000000000E+00 -9.415298434E+01  9.415298434E+01  0.000000000E+00  0.00000E+00  9.000E+00
      25     1     1     2     0     0  1.153048256E+01 -1.270851649E+01  2.033968003E+02  2.393527038E+02  1.250000000E+02  0.00000E+00  9.000E+00
      25     1     1     2     0     0 -1.831347006E+01 -4.115038538E+01 -9.604819581E+00  1.332140757E+02  1.250000000E+02  0.00000E+00  9.000E+00
      21     1     1     2   501   511  6.782987500E+00  5.385890187E+01  1.498214299E+02  1.593525999E+02  1.907348633E-06  0.00000E+00  9.000E+00
#rwgt            1           1   2.8966453180979689E-002          10      178431           0
</event>
<event>
      5   9999  3.79277E-02  2.36607E+01 -1.00000E+00  1.60563E-01
      21    -1     0     0   502   501  0.000000000E+00  0.000000000E+00  2.218526266E+02  2.218526266E+02  0.000000000E+00  0.00000E+00  9.000E+00
      21    -1     0     0   512   502  0.000000000E+00  0.000000000E+00 -2.515469210E+02  2.515469210E+02  0.000000000E+00  0.00000E+00  9.000E+00
      25     1     1     2     0     0  2.521618973E+01  8.734627298E+01  1.314722650E+02  2.029166925E+02  1.250000000E+02  0.00000E+00  9.000E+00
      25     1     1     2     0     0 -1.281017653E+01 -1.074937628E+02 -7.581394280E+01  1.819114169E+02  1.250000000E+02  0.00000E+00  9.000E+00
      21     1     1     2   512   501 -1.240601319E+01  2.014748985E+01 -8.535261655E+01  8.857143819E+01  9.536743164E-07  0.00000E+00  9.000E+00
#rwgt            1           1   2.6310832813420570E-002          10      178481           0
</event>
<event>
      5   9999  3.79277E-02  1.38386E+02 -1.00000E+00  1.17798E-01
       2    -1     0     0   502     0  0.000000000E+00  0.000000000E+00  2.060904917E+03  2.060904917E+03  0.000000000E+00  0.00000E+00  9.000E+00
      21    -1     0     0   501   502  0.000000000E+00  0.000000000E+00 -8.812446761E+02  8.812446761E+02  0.000000000E+00  0.00000E+00  9.000E+00
      25     1     1     2     0     0 -2.209646898E+02  2.248199051E+02 -6.058519629E+02  6.942989160E+02  1.250000000E+02  0.00000E+00  9.000E+00
      25     1     1     2     0     0  3.568867845E+02 -1.988231993E+02 -2.886647091E+01  4.282021891E+02  1.250000000E+02  0.00000E+00  9.000E+00
       2     1     1     2   501     0 -1.359220947E+02 -2.599670579E+01  1.814378675E+03  1.819648488E+03  3.051757812E-05  0.00000E+00  9.000E+00
#rwgt            1           1  0.65983662309516722               10      178672           0
</event>
<event>
      5   9999  3.79277E-02  1.21584E+01 -1.00000E+00  1.86431E-01
      21    -1     0     0   502   511  0.000000000E+00  0.000000000E+00  4.243746978E+02  4.243746978E+02  0.000000000E+00  0.00000E+00  9.000E+00
      21    -1     0     0   501   502  0.000000000E+00  0.000000000E+00 -1.080733616E+02  1.080733616E+02  0.000000000E+00  0.00000E+00  9.000E+00
      25     1     1     2     0     0 -1.869712659E+01 -3.363565673E+01  3.443859640E+02  3.683851682E+02  1.250000000E+02  0.00000E+00  9.000E+00
      25     1     1     2     0     0  2.600189261E+01  4.335511860E+01 -4.595187218E+01  1.424511821E+02  1.250000000E+02  0.00000E+00  9.000E+00
      21     1     1     2   501   511 -7.304766018E+00 -9.719461872E+00  1.786724439E+01  2.161170904E+01  2.384185791E-07  0.00000E+00  9.000E+00
#rwgt            1           1   4.0818043009158263E-002          10      178756           0
</event>
<event>
      5   9999  3.79277E-02  5.00260E+01 -1.00000E+00  1.39063E-01
      21    -1     0     0   502   501  0.000000000E+00  0.000000000E+00  3.267258819E+01  3.267258819E+01  0.000000000E+00  0.00000E+00  9.000E+00
      21    -1     0     0   501   512  0.000000000E+00  0.000000000E+00 -2.338013018E+03  2.338013018E+03  0.000000000E+00  0.00000E+00  9.000E+00
      25     1     1     2     0     0 -1.982860949E+02  3.021530362E+01 -6.980150402E+02  7.369398458E+02  1.250000000E+02  0.00000E+00  9.000E+00
      25     1     1     2     0     0  1.580376832E+02 -5.055746560E-01 -8.040270748E+02  8.288912486E+02  1.250000000E+02  0.00000E+00  9.000E+00
      21     1     1     2   502   512  4.024841172E+01 -2.970972896E+01 -8.032983146E+02  8.048545116E+02  1.525878906E-05  0.00000E+00  9.000E+00
#rwgt            1           1   4.3036364818091546E-002          10      179003           0
</event>
<event>
      5   9999  3.79277E-02  4.44660E+01 -1.00000E+00  1.42046E-01
      21    -1     0     0   502   501  0.000000000E+00  0.000000000E+00  8.979613991E+02  8.979613991E+02  0.000000000E+00  0.00000E+00  9.000E+00
      21    -1     0     0   511   502  0.000000000E+00  0.000000000E+00 -1.050798769E+02  1.050798769E+02  0.000000000E+00  0.00000E+00  9.000E+00
      25     1     1     2     0     0 -9.879493658E+01  8.222856716E+01  5.422012997E+01  1.873147064E+02  1.250000000E+02  0.00000E+00  9.000E+00
      25     1     1     2     0     0  7.493993080E+01 -4.470306461E+01  7.535645582E+02  7.688295653E+02  1.250000000E+02  0.00000E+00  9.000E+00
      21     1     1     2   511   501  2.385500578E+01 -3.752550255E+01 -1.490316594E+01  4.689700414E+01  1.052827938E-06  0.00000E+00  9.000E+00
#rwgt            1           1   4.0922884658243709E-002          10      179101           0
</event>
<event>
      5   9999  3.79277E-02  4.45784E+01 -1.00000E+00  1.41980E-01
      21    -1     0     0   502   501  0.000000000E+00  0.000000000E+00  2.858777867E+02  2.858777867E+02  0.000000000E+00  0.00000E+00  9.000E+00
      21    -1     0     0   512   502  0.000000000E+00  0.000000000E+00 -2.453695165E+02  2.453695165E+02  0.000000000E+00  0.00000E+00  9.000E+00
      25     1     1     2     0     0 -1.006418614E+02  8.980908817E+00 -1.490537056E+02  2.192064053E+02  1.250000000E+02  0.00000E+00  9.000E+00
      25     1     1     2     0     0  1.371531379E+02 -3.455746967E+01  1.894886628E+02  2.674624372E+02  1.250000000E+02  0.00000E+00  9.000E+00
      21     1     1     2   512   501 -3.651127654E+01  2.557656085E+01  7.331296653E-02  4.457846065E+01  7.810343417E-07  0.00000E+00  9.000E+00
#rwgt            1           1   2.6062599427298345E-002          10      179405           0
</event>
<event>
      5   9999  3.79277E-02  7.06912E+00 -1.00000E+00  2.14952E-01
      21    -1     0     0   502   501  0.000000000E+00  0.000000000E+00  5.679089728E+02  5.679089728E+02  0.000000000E+00  0.00000E+00  9.000E+00
      21    -1     0     0   511   502  0.000000000E+00  0.000000000E+00 -3.143528653E+02  3.143528653E+02  0.000000000E+00  0.00000E+00  9.000E+00
      25     1     1     2     0     0 -8.132656210E+01 -1.887997443E+02  1.727261192E+02  2.961733705E+02  1.250000000E+02  0.00000E+00  9.000E+00
      25     1     1     2     0     0  7.445319088E+01  1.904517816E+02  2.903280565E+02  3.764711664E+02  1.250000000E+02  0.00000E+00  9.000E+00
      21     1     1     2   511   501  6.873371217E+00 -1.652037307E+00 -2.094980681E+02  2.096173013E+02  2.697398305E-06  0.00000E+00  9.000E+00
#rwgt            1           1   3.5355655776422350E-002          10      179587           0
</event>
<event>
      5   9999  3.79277E-02  2.23125E+01 -1.00000E+00  1.62542E-01
      21    -1     0     0   502   501  0.000000000E+00  0.000000000E+00  9.551255291E+02  9.551255291E+02  0.000000000E+00  0.00000E+00  9.000E+00
       4    -1     0     0   501     0  0.000000000E+00  0.000000000E+00 -8.046990699E+01  8.046990699E+01  0.000000000E+00  0.00000E+00  9.000E+00
      25     1     1     2     0     0 -7.021042491E+01  9.613910825E+01  4.686002021E+02  4.993830006E+02  1.250000000E+02  0.00000E+00  9.000E+00
      25     1     1     2     0     0  8.417655137E+01 -1.135401052E+02  4.494321934E+02  4.874334250E+02  1.250000000E+02  0.00000E+00  9.000E+00
       4     1     1     2   502     0 -1.396612646E+01  1.740099696E+01 -4.337677347E+01  4.877901045E+01  2.023048729E-06  0.00000E+00  9.000E+00
#rwgt            1           1   3.0946869952246565E-002          10      179881           0
</event>
<event>
      5   9999  3.79277E-02  4.60043E+01 -1.00000E+00  1.41171E-01
      21    -1     0     0   502   501  0.000000000E+00  0.000000000E+00  2.867689986E+02  2.867689986E+02  0.000000000E+00  0.00000E+00  9.000E+00
      21    -1     0     0   511   502  0.000000000E+00  0.000000000E+00 -1.707424754E+02  1.707424754E+02  0.000000000E+00  0.00000E+00  9.000E+00
      25     1     1     2     0     0 -1.207435147E+02 -7.292115035E+01  1.580947796E+02  2.459988818E+02  1.250000000E+02  0.00000E+00  9.000E+00
      25     1     1     2     0     0  9.418884963E+01  3.535464936E+01 -4.046292709E+01  1.654803284E+02  1.250000000E+02  0.00000E+00  9.000E+00
      21     1     1     2   511   501  2.655466506E+01  3.756650099E+01 -1.605329261E+00  4.603226385E+01  7.164964247E-07  0.00000E+00  9.000E+00
#rwgt            1           1   4.2646481662034372E-002          10      180087           0
</event>
<event>
      5   9999  3.79277E-02  4.86004E+01 -1.00000E+00  1.39783E-01
      21    -1     0     0   502   512  0.000000000E+00  0.000000000E+00  6.188294723E+01  6.188294723E+01  0.000000000E+00  0.00000E+00  9.000E+00
      21    -1     0     0   501   502  0.000000000E+00  0.000000000E+00 -2.777142989E+03  2.777142989E+03  0.000000000E+00  0.00000E+00  9.000E+00
      25     1     1     2     0     0  3.270196259E+02  1.687186904E+02 -1.685652342E+03  1.729871860E+03  1.250000000E+02  0.00000E+00  9.000E+00
      25     1     1     2     0     0 -2.824016003E+02 -1.879861448E+02 -9.414864033E+02  1.008519262E+03  1.250000000E+02  0.00000E+00  9.000E+00
      21     1     1     2   501   512 -4.461802562E+01  1.926745443E+01 -8.812129607E+01  1.006348142E+02  9.536743164E-07  0.00000E+00  9.000E+00
#rwgt            1           1   8.4707216524891618E-002          10      180181           0
</event>
<event>
      5   9999  3.79277E-02  9.35009E+01 -1.00000E+00  1.25155E-01
      21    -1     0     0   511   501  0.000000000E+00  0.000000000E+00  4.251132752E+02  4.251132752E+02  0.000000000E+00  0.00000E+00  9.000E+00
      21    -1     0     0   501   502  0.000000000E+00  0.000000000E+00 -5.625225755E+02  5.625225755E+02  0.000000000E+00  0.00000E+00  9.000E+00
      25     1     1     2     0     0  1.955641724E+02  7.232590421E+01 -8.434393504E+01  2.573233011E+02  1.250000000E+02  0.00000E+00  9.000E+00
      25     1     1     2     0     0 -1.601964127E+02  1.422777734E+01 -3.577117054E+02  4.116406011E+02  1.250000000E+02  0.00000E+00  9.000E+00
      21     1     1     2   511   502 -3.536775969E+01 -8.655368155E+01  3.046463402E+02  3.186719485E+02  3.814697266E-06  0.00000E+00  9.000E+00
#rwgt            1           1   3.7183158571525245E-002          10      180283           0
</event>
<event>
      5   9999  3.79277E-02  2.05892E+01 -1.00000E+00  1.65335E-01
      21    -1     0     0   502   501  0.000000000E+00  0.000000000E+00  2.722294065E+02  2.722294065E+02  0.000000000E+00  0.00000E+00  9.000E+00
      21    -1     0     0   501   512  0.000000000E+00  0.000000000E+00 -3.097533010E+02  3.097533010E+02  0.000000000E+00  0.00000E+00  9.000E+00
      25     1     1     2     0     0  2.364090399E+02 -1.339817018E+01  3.925316765E+01  2.706188395E+02  1.250000000E+02  0.00000E+00  9.000E+00
      25     1     1     2     0     0 -2.517885992E+02 -2.906695963E-01 -7.008625647E+01  2.897148020E+02  1.250000000E+02  0.00000E+00  9.000E+00
      21     1     1     2   502   512  1.537955930E+01  1.368883977E+01 -6.690805618E+00  2.164906600E+01  3.576278687E-07  0.00000E+00  9.000E+00
#rwgt            1           1   3.5154373991499177E-002          10      180620           0
</event>
<event>
      5   9999  3.79277E-02  5.09526E+01 -1.00000E+00  1.38609E-01
      21    -1     0     0   502   501  0.000000000E+00  0.000000000E+00  6.617185905E+01  6.617185905E+01  0.000000000E+00  0.00000E+00  9.000E+00
      21    -1     0     0   511   502  0.000000000E+00  0.000000000E+00 -1.140766661E+03  1.140766661E+03  0.000000000E+00  0.00000E+00  9.000E+00
      25     1     1     2     0     0  3.813768296E+01 -1.247156466E+02 -4.170044301E+02  4.544515047E+02  1.250000000E+02  0.00000E+00  9.000E+00
      25     1     1     2     0     0  1.169668319E+01  1.353316325E+02 -1.381878483E+02  2.305912934E+02  1.250000000E+02  0.00000E+00  9.000E+00
      21     1     1     2   511   501 -4.983436616E+01 -1.061598588E+01 -5.194025235E+02  5.218957220E+02  7.629394531E-06  0.00000E+00  9.000E+00
#rwgt            1           1   4.1055756773408739E-002          10      180805           0
</event>
<event>
      5   9999  3.79277E-02  5.11671E+01 -1.00000E+00  1.38506E-01
      21    -1     0     0   502   501  0.000000000E+00  0.000000000E+00  3.583444372E+02  3.583444372E+02  0.000000000E+00  0.00000E+00  9.000E+00
      21    -1     0     0   501   512  0.000000000E+00  0.000000000E+00 -2.155317761E+02  2.155317761E+02  0.000000000E+00  0.00000E+00  9.000E+00
      25     1     1     2     0     0 -2.045530816E+02 -3.790246621E+01  1.018256378E+02  2.631957839E+02  1.250000000E+02  0.00000E+00  9.000E+00
      25     1     1     2     0     0  2.202624342E+02 -1.079338715E+01  5.093209196E+01  2.585558259E+02  1.250000000E+02  0.00000E+00  9.000E+00
      21     1     1     2   502   512 -1.570935253E+01  4.869585336E+01 -9.945068711E+00  5.212460343E+01  8.172577143E-07  0.00000E+00  9.000E+00
#rwgt            1           1   4.2859115529527106E-002          10      180900           0
</event>
<event>
      5   9999  3.79277E-02  1.06607E+02 -1.00000E+00  1.22591E-01
      21    -1     0     0   502   501  0.000000000E+00  0.000000000E+00  1.086614333E+03  1.086614333E+03  0.000000000E+00  0.00000E+00  9.000E+00
      21    -1     0     0   511   502  0.000000000E+00  0.000000000E+00 -3.954610270E+02  3.954610270E+02  0.000000000E+00  0.00000E+00  9.000E+00
      25     1     1     2     0     0  6.270787990E+01 -1.497535662E+01  4.638634527E+02  4.847172807E+02  1.250000000E+02  0.00000E+00  9.000E+00
      25     1     1     2     0     0 -1.644557688E+02  4.679308808E+01  5.860207750E+02  6.231216909E+02  1.250000000E+02  0.00000E+00  9.000E+00
      21     1     1     2   511   501  1.017478889E+02 -3.181773146E+01 -3.587309212E+02  3.742363889E+02  3.814697266E-06  0.00000E+00  9.000E+00
#rwgt            1           1   2.4611452123874965E-002          10      181092           0
</event>
<event>
      5   9999  3.79277E-02  1.49750E+02 -1.00000E+00  1.16422E-01
      21    -1     0     0   502   501  0.000000000E+00  0.000000000E+00  1.479300277E+02  1.479300277E+02  0.000000000E+00  0.00000E+00  9.000E+00
      21    -1     0     0   512   502  0.000000000E+00  0.000000000E+00 -7.509460100E+02  7.509460100E+02  0.000000000E+00  0.00000E+00  9.000E+00
      25     1     1     2     0     0  1.195450648E+01  1.628094460E+02  1.229030832E+01  2.059754296E+02  1.250000000E+02  0.00000E+00  9.000E+00
      25     1     1     2     0     0 -9.677276403E+01 -3.939539387E+01 -3.866494321E+02  4.195709097E+02  1.250000000E+02  0.00000E+00  9.000E+00
      21     1     1     2   512   501  8.481825754E+01 -1.234140521E+02 -2.286568585E+02  2.733296984E+02  5.394796609E-06  0.00000E+00  9.000E+00
#rwgt            1           1   4.5372874711086218E-002          10      181249           0
</event>
<event>
      5   9999  3.79277E-02  2.17061E+01 -1.00000E+00  1.63488E-01
      21    -1     0     0   502   501  0.000000000E+00  0.000000000E+00  4.984076017E+01  4.984076017E+01  0.000000000E+00  0.00000E+00  9.000E+00
      21    -1     0     0   511   502  0.000000000E+00  0.000000000E+00 -1.061041339E+03  1.061041339E+03  0.000000000E+00  0.00000E+00  9.000E+00
      25     1     1     2     0     0 -7.954795055E+01  3.707251592E+01 -7.903016704E+02  8.049248276E+02  1.250000000E+02  0.00000E+00  9.000E+00
      25     1     1     2     0     0  8.969690087E+01 -5.625986755E+01 -1.208198015E+02  2.035512986E+02  1.250000000E+02  0.00000E+00  9.000E+00
      21     1     1     2   511   501 -1.014895033E+01  1.918735163E+01 -1.000791070E+02  1.024059731E+02  1.348699152E-06  0.00000E+00  9.000E+00
#rwgt            1           1   3.7675713923749327E-002          10      181433           0
</event>
<event>
      5   9999  3.79277E-02  1.62267E+01 -1.00000E+00  1.74227E-01
      21    -1     0     0   502   501  0.000000000E+00  0.000000000E+00  6.292950657E+02  6.292950657E+02  0.000000000E+00  0.00000E+00  9.000E+00
      21    -1     0     0   501   512  0.000000000E+00  0.000000000E+00 -3.411618127E+02  3.411618127E+02  0.000000000E+00  0.00000E+00  9.000E+00
      25     1     1     2     0     0  3.881449337E+01  6.127640951E+01  5.350369582E+02  5.542119720E+02  1.250000000E+02  0.00000E+00  9.000E+00
      25     1     1     2     0     0 -4.568861412E+01 -4.657765085E+01  2.555762793E+01  1.433008003E+02  1.250000000E+02  0.00000E+00  9.000E+00
      21     1     1     2   502   512  6.874120749E+00 -1.469875867E+01 -2.724613331E+02  2.729441061E+02  0.000000000E+00  0.00000E+00  9.000E+00
#rwgt            1           1   5.1131753482870981E-002          10      181746           0
</event>
<event>
      5   9999  3.79277E-02  1.36376E+02 -1.00000E+00  1.18056E-01
       1    -1     0     0   502     0  0.000000000E+00  0.000000000E+00  3.675743415E+03  3.675743415E+03  0.000000000E+00  0.00000E+00  9.000E+00
      21    -1     0     0   501   502  0.000000000E+00  0.000000000E+00 -1.186694775E+02  1.186694775E+02  0.000000000E+00  0.00000E+00  9.000E+00
      25     1     1     2     0     0 -2.837629441E+02  1.275266644E+02  2.753371483E+02  4.338432941E+02  1.250000000E+02  0.00000E+00  9.000E+00
      25     1     1     2     0     0  2.288939277E+02 -2.675221129E+00  4.121365759E+02  4.877306061E+02  1.250000000E+02  0.00000E+00  9.000E+00
       1     1     1     2   501     0  5.486901639E+01 -1.248514433E+02  2.869600213E+03  2.872838992E+03  3.051757812E-05  0.00000E+00  9.000E+00
#rwgt            1           1   4.0146250360991398E-002          10      181982           0
</event>
<event>
      5   9999  3.79277E-02  7.72462E+01 -1.00000E+00  1.29090E-01
      21    -1     0     0   502   501  0.000000000E+00  0.000000000E+00  1.331863756E+03  1.331863756E+03  0.000000000E+00  0.00000E+00  9.000E+00
      21    -1     0     0   511   502  0.000000000E+00  0.000000000E+00 -1.450060896E+02  1.450060896E+02  0.000000000E+00  0.00000E+00  9.000E+00
      25     1     1     2     0     0  1.058081194E+02  3.885986932E+02  5.321565623E+02  6.789844692E+02  1.250000000E+02  0.00000E+00  9.000E+00
      25     1     1     2     0     0 -3.682267672E+01 -3.538426092E+02  5.679433656E+02  6.817222074E+02  1.250000000E+02  0.00000E+00  9.000E+00
      21     1     1     2   511   501 -6.898544268E+01 -3.475608407E+01  8.675773885E+01  1.161631694E+02  2.336015456E-06  0.00000E+00  9.000E+00
#rwgt            1           1   5.0838112706635137E-002          10      182057           0
</event>
<event>
      5   9999  3.79277E-02  9.98013E+01 -1.00000E+00  1.23867E-01
      21    -1     0     0   502   501  0.000000000E+00  0.000000000E+00  5.070401147E+02  5.070401147E+02  0.000000000E+00  0.00000E+00  9.000E+00
      21    -1     0     0   501   512  0.000000000E+00  0.000000000E+00 -2.191882912E+02  2.191882912E+02  0.000000000E+00  0.00000E+00  9.000E+00
      25     1     1     2     0     0 -1.556660512E+02 -9.823543880E+01  2.349957052E+02  3.236203059E+02  1.250000000E+02  0.00000E+00  9.000E+00
      25     1     1     2     0     0  1.362262037E+02  3.457828908E-01  1.682931662E+02  2.500105756E+02  1.250000000E+02  0.00000E+00  9.000E+00
      21     1     1     2   502   512  1.943984747E+01  9.788965591E+01 -1.154370479E+02  1.525975243E+02  1.907348633E-06  0.00000E+00  9.000E+00
#rwgt            1           1   4.1278872090688930E-002          10      182186           0
</event>
<event>
      5   9999  3.79277E-02  2.16969E+01 -1.00000E+00  1.63503E-01
      21    -1     0     0   502   511  0.000000000E+00  0.000000000E+00  1.749505741E+03  1.749505741E+03  0.000000000E+00  0.00000E+00  9.000E+00
      21    -1     0     0   501   502  0.000000000E+00  0.000000000E+00 -4.809492297E+01  4.809492297E+01  0.000000000E+00  0.00000E+00  9.000E+00
      25     1     1     2     0     0  1.398417125E+01 -1.065360188E+02  1.399207320E+02  2.162135324E+02  1.250000000E+02  0.00000E+00  9.000E+00
      25     1     1     2     0     0  3.932358761E+00  1.187733605E+02  7.487734917E+02  7.683809709E+02  1.250000000E+02  0.00000E+00  9.000E+00
      21     1     1     2   501   511 -1.791653001E+01 -1.223734174E+01  8.127165940E+02  8.130061603E+02  0.000000000E+00  0.00000E+00  9.000E+00
#rwgt            1           1   4.3393565842083245E-002          10      182242           0
</event>
<event>
      5   9999  3.79277E-02  8.92979E+01 -1.00000E+00  1.26080E-01
      21    -1     0     0   502   512  0.000000000E+00  0.000000000E+00  5.338567917E+02  5.338567917E+02  0.000000000E+00  0.00000E+00  9.000E+00
      21    -1     0     0   501   502  0.000000000E+00  0.000000000E+00 -4.088857481E+02  4.088857481E+02  0.000000000E+00  0.00000E+00  9.000E+00
      25     1     1     2     0     0 -1.744043168E+01 -2.455261101E+02 -1.496088976E+02  3.139985058E+02  1.250000000E+02  0.00000E+00  9.000E+00
      25     1     1     2     0     0 -8.720874520E+00  3.309058600E+02  1.491116223E+01  3.541498053E+02  1.250000000E+02  0.00000E+00  9.000E+00
      21     1     1     2   501   512  2.616130620E+01 -8.537974984E+01  2.596687790E+02  2.745942287E+02  0.000000000E+00  0.00000E+00  9.000E+00
#rwgt            1           1   4.1308535757225567E-002          10      182406           0
</event>
<event>
      5   9999  3.79277E-02  9.95740E+01 -1.00000E+00  1.23911E-01
      21    -1     0     0   511   501  0.000000000E+00  0.000000000E+00  1.172677840E+02  1.172677840E+02  0.000000000E+00  0.00000E+00  9.000E+00
      21    -1     0     0   501   502  0.000000000E+00  0.000000000E+00 -5.468258575E+02  5.468258575E+02  0.000000000E+00  0.00000E+00  9.000E+00
      25     1     1     2     0     0 -3.946607543E+01  8.316998732E+01 -5.504245874E+01  1.647103220E+02  1.250000000E+02  0.00000E+00  9.000E+00
      25     1     1     2     0     0  2.987220669E+01 -1.822807700E+02 -3.054110251E+02  3.781792195E+02  1.250000000E+02  0.00000E+00  9.000E+00
      21     1     1     2   511   502  9.593868740E+00  9.911078265E+01 -6.910458974E+01  1.212041001E+02  2.336015456E-06  0.00000E+00  9.000E+00
#rwgt            1           1   3.9482716999520662E-002          10      182480           0
</event>
<event>
      5   9999  3.79277E-02  3.92826E+01 -1.00000E+00  1.45329E-01
      21    -1     0     0   502   501  0.000000000E+00  0.000000000E+00  2.884127865E+02  2.884127865E+02  0.000000000E+00  0.00000E+00  9.000E+00
      21    -1     0     0   512   502  0.000000000E+00  0.000000000E+00 -3.135789330E+02  3.135789330E+02  0.000000000E+00  0.00000E+00  9.000E+00
      25     1     1     2     0     0  2.148706921E+02 -3.143555795E+01 -2.145879977E+01  2.514817861E+02  1.250000000E+02  0.00000E+00  9.000E+00
      25     1     1     2     0     0 -2.238443586E+02  6.967945547E+01  6.304296283E+01  2.730584892E+02  1.250000000E+02  0.00000E+00  9.000E+00
      21     1     1     2   512   501  8.973666447E+00 -3.824389752E+01 -6.675030948E+01  7.745144416E+01  9.536743164E-07  0.00000E+00  9.000E+00
#rwgt            1           1   9.4047186114865344E-003          10      182636           0
</event>
<event>
      5   9999  3.79277E-02  1.23755E+02 -1.00000E+00  1.19803E-01
       2    -1     0     0   502     0  0.000000000E+00  0.000000000E+00  5.769283775E+02  5.769283775E+02  0.000000000E+00  0.00000E+00  9.000E+00
      21    -1     0     0   501   502  0.000000000E+00  0.000000000E+00 -1.885479214E+02  1.885479214E+02  0.000000000E+00  0.00000E+00  9.000E+00
      25     1     1     2     0     0  2.806779252E+01 -1.476917697E+01  2.476213651E+02  2.791903831E+02  1.250000000E+02  0.00000E+00  9.000E+00
      25     1     1     2     0     0 -8.715482857E+01  1.235075800E+02 -9.656592365E+01  2.186322576E+02  1.250000000E+02  0.00000E+00  9.000E+00
       2     1     1     2   501     0  5.908703605E+01 -1.087384031E+02  2.373250147E+02  2.676536582E+02  2.697398305E-06  0.00000E+00  9.000E+00
#rwgt            1           1   3.7679415239567693E-002          10      182726           0
</event>
<event>
      5   9999  3.79277E-02  6.75695E+01 -1.00000E+00  1.32003E-01
      21    -1     0     0   502   511  0.000000000E+00  0.000000000E+00  1.611469963E+02  1.611469963E+02  0.000000000E+00  0.00000E+00  9.000E+00
      21    -1     0     0   501   502  0.000000000E+00  0.000000000E+00 -3.401282121E+02  3.401282121E+02  0.000000000E+00  0.00000E+00  9.000E+00
      25     1     1     2     0     0 -2.631839324E+01 -1.872468137E+01  2.586735758E+00  1.291315713E+02  1.250000000E+02  0.00000E+00  9.000E+00
      25     1     1     2     0     0  7.953983835E+01 -2.290601130E+01 -2.398905408E+02  2.828846811E+02  1.250000000E+02  0.00000E+00  9.000E+00
      21     1     1     2   501   511 -5.322144511E+01  4.163069267E+01  5.832258926E+01  8.925895591E+01  1.168007728E-06  0.00000E+00  9.000E+00
#rwgt            1           1   4.0875355396439231E-002          10      182785           0
</event>
<event>
      5   9999  3.79277E-02  3.71857E+01 -1.00000E+00  1.46833E-01
      21    -1     0     0   502   501  0.000000000E+00  0.000000000E+00  1.278622721E+03  1.278622721E+03  0.000000000E+00  0.00000E+00  9.000E+00
      21    -1     0     0   501   512  0.000000000E+00  0.000000000E+00 -1.202560828E+02  1.202560828E+02  0.000000000E+00  0.00000E+00  9.000E+00
      25     1     1     2     0     0 -1.290656199E+02 -2.931711658E+01  1.419827983E+02  2.308712684E+02  1.250000000E+02  0.00000E+00  9.000E+00
      25     1     1     2     0     0  1.204515540E+02 -6.857080076E+00  1.080236169E+03  1.094116437E+03  1.250000000E+02  0.00000E+00  9.000E+00
      21     1     1     2   502   512  8.614065931E+00  3.617419666E+01 -6.385232865E+01  7.389109899E+01  1.651812370E-06  0.00000E+00  9.000E+00
#rwgt            1           1   3.5972792523418319E-002          10      182940           0
</event>
<event>
      5   9999  3.79277E-02  6.48101E+01 -1.00000E+00  1.32938E-01
      21    -1     0     0   502   501  0.000000000E+00  0.000000000E+00  7.155073580E+02  7.155073580E+02  0.000000000E+00  0.00000E+00  9.000E+00
      21    -1     0     0   501   511  0.000000000E+00  0.000000000E+00 -4.368720457E+02  4.368720457E+02  0.000000000E+00  0.00000E+00  9.000E+00
      25     1     1     2     0     0 -1.674822420E+02 -4.882757283E+01  2.643216617E+02  3.404781551E+02  1.250000000E+02  0.00000E+00  9.000E+00
      25     1     1     2     0     0  1.034067221E+02  5.855799807E+01  3.922259442E+02  4.284719135E+02  1.250000000E+02  0.00000E+00  9.000E+00
      21     1     1     2   502   511  6.407551998E+01 -9.730425235E+00 -3.779122936E+02  3.834293351E+02  0.000000000E+00  0.00000E+00  9.000E+00
#rwgt            1           1   2.0539377612103112E-002          10      183120           0
</event>
<event>
      5   9999  3.79277E-02  1.78697E+01 -1.00000E+00  1.70509E-01
      21    -1     0     0   512   501  0.000000000E+00  0.000000000E+00  6.278745660E+01  6.278745660E+01  0.000000000E+00  0.00000E+00  9.000E+00
      21    -1     0     0   501   502  0.000000000E+00  0.000000000E+00 -8.241854979E+02  8.241854979E+02  0.000000000E+00  0.00000E+00  9.000E+00
      25     1     1     2     0     0 -1.725176384E+02 -6.016031582E+01 -3.430362903E+02  4.082652271E+02  1.250000000E+02  0.00000E+00  9.000E+00
      25     1     1     2     0     0  1.547595373E+02  5.816666577E+01 -4.090351810E+02  4.585506021E+02  1.250000000E+02  0.00000E+00  9.000E+00
      21     1     1     2   512   502  1.775810107E+01  1.993650047E+00 -9.326569972E+00  2.015712533E+01  4.129530925E-07  0.00000E+00  9.000E+00
#rwgt            1           1   4.4351865142410865E-002          10      183435           0
</event>
<event>
      5   9999  3.79277E-02  2.98632E+01 -1.00000E+00  1.53178E-01
      21    -1     0     0   511   501  0.000000000E+00  0.000000000E+00  7.720350222E+02  7.720350222E+02  0.000000000E+00  0.00000E+00  9.000E+00
      21    -1     0     0   501   502  0.000000000E+00  0.000000000E+00 -1.055588327E+02  1.055588327E+02  0.000000000E+00  0.00000E+00  9.000E+00
      25     1     1     2     0     0 -2.456260785E+01 -1.822918270E+02  1.316199856E+02  2.584230108E+02  1.250000000E+02  0.00000E+00  9.000E+00
      25     1     1     2     0     0  2.462487781E+00  2.023765096E+02  3.021398756E+02  3.845462520E+02  1.250000000E+02  0.00000E+00  9.000E+00
      21     1     1     2   511   502  2.210012007E+01 -2.008468261E+01  2.327163283E+02  2.346245922E+02  0.000000000E+00  0.00000E+00  9.000E+00
#rwgt            1           1   4.0953568149508256E-002          10      183737           0
</event>
<event>
      5   9999  3.79277E-02  1.74135E+02 -1.00000E+00  1.13882E-01
      21    -1     0     0   502   501  0.000000000E+00  0.000000000E+00  1.746239159E+02  1.746239159E+02  0.000000000E+00  0.00000E+00  9.000E+00
      21    -1     0     0   501   512  0.000000000E+00  0.000000000E+00 -1.828719597E+03  1.828719597E+03  0.000000000E+00  0.00000E+00  9.000E+00
      25     1     1     2     0     0  6.329355931E+01  7.883012686E+01  1.132333635E+02  1.966394115E+02  1.250000000E+02  0.00000E+00  9.000E+00
      25     1     1     2     0     0  3.607759861E+01  6.416810755E+01 -3.522599714E+02  3.809609253E+02  1.250000000E+02  0.00000E+00  9.000E+00
      21     1     1     2   502   512 -9.937115792E+01 -1.429982344E+02 -1.415069073E+03  1.425743176E+03  2.157918644E-05  0.00000E+00  9.000E+00
#rwgt            1           1   4.0553301121094190E-002          10      183903           0
</event>
<event>
      5   9999  3.79277E-02  1.26349E+01 -1.00000E+00  1.84704E-01
      21    -1     0     0   511   501  0.000000000E+00  0.000000000E+00  1.522904888E+02  1.522904888E+02  0.000000000E+00  0.00000E+00  9.000E+00
      21    -1     0     0   501   502  0.000000000E+00  0.000000000E+00 -5.156706452E+02  5.156706452E+02  0.000000000E+00  0.00000E+00  9.000E+00
      25     1     1     2     0     0 -1.605033462E+02  1.213023802E+02 -6.236298855E+01  2.449280178E+02  1.250000000E+02  0.00000E+00  9.000E+00
      25     1     1     2     0     0  1.595189031E+02 -1.338989167E+02 -3.190650014E+02  4.010020891E+02  1.250000000E+02  0.00000E+00  9.000E+00
      21     1     1     2   511   502  9.844431240E-01  1.259653654E+01  1.804783351E+01  2.203102710E+01  4.129530925E-07  0.00000E+00  9.000E+00
#rwgt            1           1   3.7227781529623812E-002          10      183937           0
</event>
<event>
      5   9999  3.79277E-02  1.63190E+01 -1.00000E+00  1.74003E-01
      21    -1     0     0   502   501  0.000000000E+00  0.000000000E+00  3.265651185E+02  3.265651185E+02  0.000000000E+00  0.00000E+00  9.000E+00
      21    -1     0     0   512   502  0.000000000E+00  0.000000000E+00 -2.305241377E+02  2.305241377E+02  0.000000000E+00  0.00000E+00  9.000E+00
      25     1     1     2     0     0  1.889124894E+02 -9.955583315E+01  3.122787657E+01  2.493982214E+02  1.250000000E+02  0.00000E+00  9.000E+00
      25     1     1     2     0     0 -1.768970993E+02  8.851311110E+01  1.107965414E+02  2.588977175E+02  1.250000000E+02  0.00000E+00  9.000E+00
      21     1     1     2   512   501 -1.201539015E+01  1.104272205E+01 -4.598343717E+01  4.879331721E+01  9.536743164E-07  0.00000E+00  9.000E+00
#rwgt            1           1   2.5348165540037309E-002          10      184121           0
</event>
<event>
      5   9999  3.79277E-02  2.78830E+01 -1.00000E+00  1.55280E-01
      21    -1     0     0   502   511  0.000000000E+00  0.000000000E+00  5.264117572E+02  5.264117572E+02  0.000000000E+00  0.00000E+00  9.000E+00
      21    -1     0     0   501   502  0.000000000E+00  0.000000000E+00 -1.054759557E+02  1.054759557E+02  0.000000000E+00  0.00000E+00  9.000E+00
      25     1     1     2     0     0  2.421312351E+01  1.653585980E+02  1.538577591E+02  2.592816062E+02  1.250000000E+02  0.00000E+00  9.000E+00
      25     1     1     2     0     0 -2.429877631E+01 -1.932415161E+02  2.307122171E+02  3.267810294E+02  1.250000000E+02  0.00000E+00  9.000E+00
      21     1     1     2   501   511  8.565279472E-02  2.788291816E+01  3.636582529E+01  4.582507731E+01  4.768371582E-07  0.00000E+00  9.000E+00
#rwgt            1           1   3.4945486000425761E-002          10      184319           0
</event>
<event>
      5   9999  3.79277E-02  5.81588E+01 -1.00000E+00  1.35431E-01
      21    -1     0     0   512   501  0.000000000E+00  0.000000000E+00  1.336673575E+03  1.336673575E+03  0.000000000E+00  0.00000E+00  9.000E+00
      21    -1     0     0   501   502  0.000000000E+00  0.000000000E+00 -4.950527771E+02  4.950527771E+02  0.000000000E+00  0.00000E+00  9.000E+00
      25     1     1     2     0     0 -4.949940989E+01 -1.160062991E+02 -3.299047820E+01  1.806129139E+02  1.250000000E+02  0.00000E+00  9.000E+00
      25     1     1     2     0     0  8.457734553E+01  6.961685146E+01 -3.697527325E+02  4.053910662E+02  1.250000000E+02  0.00000E+00  9.000E+00
      21     1     1     2   512   502 -3.507793564E+01  4.638944762E+01  1.244364009E+03  1.245722372E+03  3.051757812E-05  0.00000E+00  9.000E+00
#rwgt            1           1   3.7359249318450846E-002          10      184501           0
</event>
<event>
      5   9999  3.79277E-02  7.75669E+01 -1.00000E+00  1.29002E-01
      21    -1     0     0   502   501  0.000000000E+00  0.000000000E+00  2.492562015E+03  2.492562015E+03  0.000000000E+00  0.00000E+00  9.000E+00
      21    -1     0     0   511   502  0.000000000E+00  0.000000000E+00 -2.365691193E+02  2.365691193E+02  0.000000000E+00  0.00000E+00  9.000E+00
      25     1     1     2     0     0 -6.498538427E+02  3.075790691E+02  7.707444349E+02  1.061407973E+03  1.250000000E+02  0.00000E+00  9.000E+00
      25     1     1     2     0     0  5.725655595E+02 -3.141478689E+02  1.413368632E+03  1.561971861E+03  1.250000000E+02  0.00000E+00  9.000E+00
      21     1     1     2   511   501  7.728828317E+01  6.568799709E+00  7.187982845E+01  1.057513006E+02  9.536743164E-07  0.00000E+00  9.000E+00
#rwgt            1           1   1.4480558600036560E-002          10      184636           0
</event>
<event>
      5   9999 -3.79277E-02  1.47790E+02 -1.00000E+00  1.16650E-01
      21    -1     0     0   502   512  0.000000000E+00  0.000000000E+00  1.082839888E+03  1.082839888E+03  0.000000000E+00  0.00000E+00  9.000E+00
      21    -1     0     0   501   502  0.000000000E+00  0.000000000E+00 -3.925694518E+02  3.925694518E+02  0.000000000E+00  0.00000E+00  9.000E+00
      25     1     1     2     0     0 -7.367354692E+01  1.657169228E+02 -1.791245085E+01  2.209881126E+02  1.250000000E+02  0.00000E+00  9.000E+00
      25     1     1     2     0     0  4.171035598E+01 -2.142473772E+01 -2.507982369E+02  2.841188638E+02  1.250000000E+02  0.00000E+00  9.000E+00
      21     1     1     2   501   512  3.196319094E+01 -1.442921851E+02  9.589811243E+02  9.703023637E+02  1.078959322E-05  0.00000E+00  9.000E+00
#rwgt            1           1  -4.3786430278227567E-002          10      184870           0
</event>
<event>
      5   9999  3.79277E-02  1.28817E+02 -1.00000E+00  1.19076E-01
       2    -1     0     0   502     0  0.000000000E+00  0.000000000E+00  4.383569745E+02  4.383569745E+02  0.000000000E+00  0.00000E+00  9.000E+00
      21    -1     0     0   501   502  0.000000000E+00  0.000000000E+00 -6.169349373E+02  6.169349373E+02  0.000000000E+00  0.00000E+00  9.000E+00
      25     1     1     2     0     0 -1.085555473E+02 -1.700947949E+02 -2.529847125E+02  3.469046135E+02  1.250000000E+02  0.00000E+00  9.000E+00
      25     1     1     2     0     0 -2.025607892E+01  1.689651626E+02 -2.687922009E+02  3.418095700E+02  1.250000000E+02  0.00000E+00  9.000E+00
       2     1     1     2   501     0  1.288116262E+02  1.129632234E+00  3.431989506E+02  3.665777282E+02  5.394796609E-06  0.00000E+00  9.000E+00
#rwgt            1           1   4.7945915770313215E-002          10      184982           0
</event>
<event>
      5   9999  3.79277E-02  7.51635E+01 -1.00000E+00  1.29674E-01
      21    -1     0     0   502   501  0.000000000E+00  0.000000000E+00  2.435320126E+02  2.435320126E+02  0.000000000E+00  0.00000E+00  9.000E+00
      21    -1     0     0   511   502  0.000000000E+00  0.000000000E+00 -8.960000190E+02  8.960000190E+02  0.000000000E+00  0.00000E+00  9.000E+00
      25     1     1     2     0     0  2.054908329E+02  9.005903258E+01  3.380101677E+01  2.590455954E+02  1.250000000E+02  0.00000E+00  9.000E+00
      25     1     1     2     0     0 -1.421533617E+02 -1.305301785E+02 -4.434063988E+01  2.341725819E+02  1.250000000E+02  0.00000E+00  9.000E+00
      21     1     1     2   511   501 -6.333747117E+01  4.047114592E+01 -6.419283834E+02  6.463138543E+02  7.629394531E-06  0.00000E+00  9.000E+00
#rwgt            1           1   3.9607919019820720E-002          10      185057           0
</event>
<event>
      5   9999  3.79277E-02  4.17757E+01 -1.00000E+00  1.43680E-01
      21    -1     0     0   502   501  0.000000000E+00  0.000000000E+00  1.859714071E+03  1.859714071E+03  0.000000000E+00  0.00000E+00  9.000E+00
      21    -1     0     0   501   512  0.000000000E+00  0.000000000E+00 -4.279904933E+01  4.279904933E+01  0.000000000E+00  0.00000E+00  9.000E+00
      25     1     1     2     0     0 -1.277208533E+02 -2.398480227E+01  1.518728611E+03  1.529395136E+03  1.250000000E+02  0.00000E+00  9.000E+00
      25     1     1     2     0     0  1.148345409E+02  6.372337143E+01  2.262839610E+02  2.899604642E+02  1.250000000E+02  0.00000E+00  9.000E+00
      21     1     1     2   502   512  1.288631243E+01 -3.973856916E+01  7.190244964E+01  8.315752035E+01  9.536743164E-07  0.00000E+00  9.000E+00
#rwgt            1           1   4.9405186017838269E-002          10      185261           0
</event>
<event>
      5   9999  3.79277E-02  1.32601E+02 -1.00000E+00  1.18556E-01
      21    -1     0     0   502   511  0.000000000E+00  0.000000000E+00  3.619538860E+02  3.619538860E+02  0.000000000E+00  0.00000E+00  9.000E+00
      21    -1     0     0   501   502  0.000000000E+00  0.000000000E+00 -3.422707479E+02  3.422707479E+02  0.000000000E+00  0.00000E+00  9.000E+00
      25     1     1     2     0     0  4.694810128E+01 -1.416542481E+02 -1.789771661E+02  2.644387948E+02  1.250000000E+02  0.00000E+00  9.000E+00
      25     1     1     2     0     0  7.590158798E+01  1.915636441E+02  6.090449985E+01  2.485800452E+02  1.250000000E+02  0.00000E+00  9.000E+00
      21     1     1     2   501   511 -1.228496893E+02 -4.990939600E+01  1.377558043E+02  1.912057938E+02  2.697398305E-06  0.00000E+00  9.000E+00
#rwgt            1           1   4.2404294835086453E-002          10      185359           0
</event>
<event>
      5   9999  3.79277E-02  1.23142E+01 -1.00000E+00  1.85856E-01
      21    -1     0     0   502   501  0.000000000E+00  0.000000000E+00  1.506356540E+02  1.506356540E+02  0.000000000E+00  0.00000E+00  9.000E+00
       1    -1     0     0   501     0  0.000000000E+00  0.000000000E+00 -1.378999690E+03  1.378999690E+03  0.000000000E+00  0.00000E+00  9.000E+00
      25     1     1     2     0     0 -3.098134742E+01  6.893092612E+00  1.011080798E+02  1.638755699E+02  1.250000000E+02  0.00000E+00  9.000E+00
      25     1     1     2     0     0  1.985969448E+01 -1.606550094E+00 -2.030636770E+02  2.392840266E+02  1.250000000E+02  0.00000E+00  9.000E+00
       1     1     1     2   502     0  1.112165294E+01 -5.286542517E+00 -1.126408439E+03  1.126475747E+03  1.525878906E-05  0.00000E+00  9.000E+00
#rwgt            1           1   2.2063351446481562E-002          10      185405           0
</event>
<event>
      5   9999  3.79277E-02  1.22295E+01 -1.00000E+00  1.86167E-01
      21    -1     0     0   511   501  0.000000000E+00  0.000000000E+00  8.348378574E+02  8.348378574E+02  0.000000000E+00  0.00000E+00  9.000E+00
      21    -1     0     0   501   502  0.000000000E+00  0.000000000E+00 -7.165173832E+01  7.165173832E+01  0.000000000E+00  0.00000E+00  9.000E+00
      25     1     1     2     0     0  1.434027934E+01  8.850158143E+00 -1.677218408E+00  1.261419120E+02  1.250000000E+02  0.00000E+00  9.000E+00
      25     1     1     2     0     0 -2.389796548E+00 -6.252628168E+00  5.080853522E+02  5.232786367E+02  1.250000000E+02  0.00000E+00  9.000E+00
      21     1     1     2   511   502 -1.195048279E+01 -2.597529976E+00  2.567779852E+02  2.570690469E+02  3.814697266E-06  0.00000E+00  9.000E+00
#rwgt            1           1   4.9839429924968766E-002          10      185604           0
</event>
<event>
      5   9999 -3.79277E-02  3.54294E+01 -1.00000E+00  1.48186E-01
      21    -1     0     0   502   512  0.000000000E+00  0.000000000E+00  4.588430347E+02  4.588430347E+02  0.000000000E+00  0.00000E+00  9.000E+00
      21    -1     0     0   501   502  0.000000000E+00  0.000000000E+00 -3.348011836E+02  3.348011836E+02  0.000000000E+00  0.00000E+00  9.000E+00
      25     1     1     2     0     0 -1.144626550E+01 -3.397728799E+02  1.507768163E+01  3.625313275E+02  1.250000000E+02  0.00000E+00  9.000E+00
      25     1     1     2     0     0 -2.253440624E+01  3.297450451E+02  4.264831840E+01  3.559262189E+02  1.250000000E+02  0.00000E+00  9.000E+00
      21     1     1     2   501   512  3.398067174E+01  1.002783488E+01  6.631585113E+01  7.518667193E+01  0.000000000E+00  0.00000E+00  9.000E+00
#rwgt            1           1  -6.8248711756115549E-002          10      185946           0
</event>
<event>
      5   9999  3.79277E-02  1.20271E+02 -1.00000E+00  1.20327E-01
      21    -1     0     0   511   501  0.000000000E+00  0.000000000E+00  7.402987726E+02  7.402987726E+02  0.000000000E+00  0.00000E+00  9.000E+00
      21    -1     0     0   501   502  0.000000000E+00  0.000000000E+00 -2.445395475E+02  2.445395475E+02  0.000000000E+00  0.00000E+00  9.000E+00
      25     1     1     2     0     0 -4.302302641E+01  2.313965013E+02 -4.998515083E+01  2.711435725E+02  1.250000000E+02  0.00000E+00  9.000E+00
      25     1     1     2     0     0 -5.226125878E+01 -1.580073889E+02  6.488072803E+01  2.180185381E+02  1.250000000E+02  0.00000E+00  9.000E+00
      21     1     1     2   511   502  9.528428520E+01 -7.338911241E+01  4.808636478E+02  4.956762095E+02  7.629394531E-06  0.00000E+00  9.000E+00
#rwgt            1           1   3.7606590025274167E-002          10      186149           0
</event>
<event>
      5   9999  3.79277E-02  2.48635E+01 -1.00000E+00  1.58929E-01
      21    -1     0     0   502   501  0.000000000E+00  0.000000000E+00  1.061387332E+03  1.061387332E+03  0.000000000E+00  0.00000E+00  9.000E+00
      21    -1     0     0   512   502  0.000000000E+00  0.000000000E+00 -7.812037671E+01  7.812037671E+01  0.000000000E+00  0.00000E+00  9.000E+00
      25     1     1     2     0     0  1.226525128E+02 -2.130674830E+01  9.130065523E+02  9.298943924E+02  1.250000000E+02  0.00000E+00  9.000E+00
      25     1     1     2     0     0 -1.051543046E+02  3.643007558E+00  3.604302941E+01  1.673164644E+02  1.250000000E+02  0.00000E+00  9.000E+00
      21     1     1     2   512   501 -1.749820811E+01  1.766374075E+01  3.421737323E+01  4.229685159E+01  8.259061849E-07  0.00000E+00  9.000E+00
#rwgt            1           1   4.3144416831731154E-002          10      186206           0
</event>
<event>
      5   9999  3.79277E-02  5.26622E+01 -1.00000E+00  1.37802E-01
      21    -1     0     0   502   501  0.000000000E+00  0.000000000E+00  1.989300343E+02  1.989300343E+02  0.000000000E+00  0.00000E+00  9.000E+00
      21    -1     0     0   511   502  0.000000000E+00  0.000000000E+00 -1.090823023E+03  1.090823023E+03  0.000000000E+00  0.00000E+00  9.000E+00
      25     1     1     2     0     0  6.322903282E+01  1.741086092E+02 -6.005378491E+00  2.235459303E+02  1.250000000E+02  0.00000E+00  9.000E+00
      25     1     1     2     0     0 -1.073842446E+02 -2.028074069E+02 -1.019479490E+02  2.805006321E+02  1.250000000E+02  0.00000E+00  9.000E+00
      21     1     1     2   511   501  4.415521176E+01  2.869879776E+01 -7.839396613E+02  7.857064950E+02  0.000000000E+00  0.00000E+00  9.000E+00
#rwgt            1           1   7.6104527401820735E-002          10      186478           0
</event>
<event>
      5   9999  3.79277E-02  5.79603E+01 -1.00000E+00  1.35511E-01
      21    -1     0     0   502   512  0.000000000E+00  0.000000000E+00  1.396838763E+03  1.396838763E+03  0.000000000E+00  0.00000E+00  9.000E+00
      21    -1     0     0   501   502  0.000000000E+00  0.000000000E+00 -4.654252679E+01  4.654252679E+01  0.000000000E+00  0.00000E+00  9.000E+00
      25     1     1     2     0     0 -7.945676726E+01  1.455068294E+02  5.630017205E+02  6.000679566E+02  1.250000000E+02  0.00000E+00  9.000E+00
      25     1     1     2     0     0  2.253074431E+01 -1.564073801E+02  3.637761946E+02  4.158473551E+02  1.250000000E+02  0.00000E+00  9.000E+00
      21     1     1     2   501   512  5.692602295E+01  1.090055072E+01  4.235183207E+02  4.274659777E+02  5.394796609E-06  0.00000E+00  9.000E+00
#rwgt            1           1  0.32334696574680216               10      186611           0
</event>
<event>
      5   9999  3.79277E-02  6.96153E+01 -1.00000E+00  1.31342E-01
      21    -1     0     0   502   501  0.000000000E+00  0.000000000E+00  3.318409145E+02  3.318409145E+02  0.000000000E+00  0.00000E+00  9.000E+00
      21    -1     0     0   511   502  0.000000000E+00  0.000000000E+00 -7.187832989E+02  7.187832989E+02  0.000000000E+00  0.00000E+00  9.000E+00
      25     1     1     2     0     0  1.158899764E+02  1.261536719E+02  1.862611346E+00  2.120700471E+02  1.250000000E+02  0.00000E+00  9.000E+00
      25     1     1     2     0     0 -1.057353428E+02 -1.950243611E+02  1.498252398E+02  2.954438469E+02  1.250000000E+02  0.00000E+00  9.000E+00
      21     1     1     2   511   501 -1.015463355E+01  6.887068917E+01 -5.386302356E+02  5.431103194E+02  0.000000000E+00  0.00000E+00  9.000E+00
#rwgt            1           1   3.7436183416242726E-002          10      186824           0
</event>
<event>
      5   9999  3.79277E-02  2.58864E+02 -1.00000E+00  1.07716E-01
      21    -1     0     0   502   512  0.000000000E+00  0.000000000E+00  7.509449967E+02  7.509449967E+02  0.000000000E+00  0.00000E+00  9.000E+00
      21    -1     0     0   501   502  0.000000000E+00  0.000000000E+00 -2.110031572E+02  2.110031572E+02  0.000000000E+00  0.00000E+00  9.000E+00
      25     1     1     2     0     0 -1.235756713E+02  1.375748538E+02 -5.383154292E+01  2.296097166E+02  1.250000000E+02  0.00000E+00  9.000E+00
      25     1     1     2     0     0 -1.059005613E+02 -1.777854722E+01  1.780397296E+02  2.425987447E+02  1.250000000E+02  0.00000E+00  9.000E+00
      21     1     1     2   501   512  2.294762325E+02 -1.197963066E+02  4.157336529E+02  4.897396926E+02  7.629394531E-06  0.00000E+00  9.000E+00
#rwgt            1           1   4.7873966421345435E-002          10      187058           0
</event>
<event>
      5   9999  3.79277E-02  6.30641E+00 -1.00000E+00  2.22164E-01
      21    -1     0     0   502   501  0.000000000E+00  0.000000000E+00  2.746923342E+02  2.746923342E+02  0.000000000E+00  0.00000E+00  9.000E+00
      21    -1     0     0   501   511  0.000000000E+00  0.000000000E+00 -3.845031260E+02  3.845031260E+02  0.000000000E+00  0.00000E+00  9.000E+00
      25     1     1     2     0     0 -4.104832478E+01 -1.052814893E+02  2.141217050E+02  2.724743318E+02  1.250000000E+02  0.00000E+00  9.000E+00
      25     1     1     2     0     0  3.782655587E+01  1.107028335E+02 -2.027084389E+02  2.653331432E+02  1.250000000E+02  0.00000E+00  9.000E+00
      21     1     1     2   502   511  3.221768909E+00 -5.421344134E+00 -1.212240579E+02  1.213879853E+02  1.348699152E-06  0.00000E+00  9.000E+00
#rwgt            1           1   4.3843964242188581E-002          10      187236           0
</event>
<event>
      5   9999  3.79277E-02  7.76164E+01 -1.00000E+00  1.28989E-01
      21    -1     0     0   502   512  0.000000000E+00  0.000000000E+00  3.167130825E+01  3.167130825E+01  0.000000000E+00  0.00000E+00  9.000E+00
      21    -1     0     0   501   502  0.000000000E+00  0.000000000E+00 -1.932235711E+03  1.932235711E+03  0.000000000E+00  0.00000E+00  9.000E+00
      25     1     1     2     0     0  1.457809114E+02 -6.860171348E+01 -7.353124392E+02  7.630646451E+02  1.250000000E+02  0.00000E+00  9.000E+00
      25     1     1     2     0     0 -6.887948102E+01  7.911216070E+01 -1.045358566E+03  1.058018265E+03  1.250000000E+02  0.00000E+00  9.000E+00
      21     1     1     2   501   512 -7.690143039E+01 -1.051044722E+01 -1.198933976E+02  1.428241096E+02  2.336015456E-06  0.00000E+00  9.000E+00
#rwgt            1           1  0.17184985448499787               10      187566           0
</event>
<event>
      5   9999  3.79277E-02  4.97878E+01 -1.00000E+00  1.39181E-01
      21    -1     0     0   502   501  0.000000000E+00  0.000000000E+00  1.964501838E+02  1.964501838E+02  0.000000000E+00  0.00000E+00  9.000E+00
       1    -1     0     0   501     0  0.000000000E+00  0.000000000E+00 -9.646944615E+02  9.646944615E+02  0.000000000E+00  0.00000E+00  9.000E+00
      25     1     1     2     0     0  1.020247686E+02  2.469212354E+02  1.858082401E+01  2.955493138E+02  1.250000000E+02  0.00000E+00  9.000E+00
      25     1     1     2     0     0 -5.819064738E+01 -2.233120260E+02 -4.189526212E+02  4.943690031E+02  1.250000000E+02  0.00000E+00  9.000E+00
       1     1     1     2   502     0 -4.383412125E+01 -2.360920940E+01 -3.678724805E+02  3.712263284E+02  0.000000000E+00  0.00000E+00  9.000E+00
#rwgt            1           1   4.1261001416555483E-002          10      187626           0
</event>
<event>
      5   9999  3.79277E-02  1.70413E+01 -1.00000E+00  1.72318E-01
      21    -1     0     0   511   501  0.000000000E+00  0.000000000E+00  5.980350160E+01  5.980350160E+01  0.000000000E+00  0.00000E+00  9.000E+00
      21    -1     0     0   501   502  0.000000000E+00  0.000000000E+00 -8.566075302E+02  8.566075302E+02  0.000000000E+00  0.00000E+00  9.000E+00
      25     1     1     2     0     0  8.320919581E+01 -1.265115615E+01 -1.714729082E+02  2.282800479E+02  1.250000000E+02  0.00000E+00  9.000E+00
      25     1     1     2     0     0 -6.817215615E+01  4.632894415E+00 -6.458980613E+02  6.614213576E+02  1.250000000E+02  0.00000E+00  9.000E+00
      21     1     1     2   511   502 -1.503703966E+01  8.018261730E+00  2.056694091E+01  2.670962637E+01  1.348699152E-06  0.00000E+00  9.000E+00
#rwgt            1           1   4.2620334698530896E-002          10      187753           0
</event>
<event>
      5   9999  3.79277E-02  1.55173E+01 -1.00000E+00  1.76007E-01
      21    -1     0     0   502   512  0.000000000E+00  0.000000000E+00  7.516105996E+01  7.516105996E+01  0.000000000E+00  0.00000E+00  9.000E+00
      21    -1     0     0   501   502  0.000000000E+00  0.000000000E+00 -1.057442867E+03  1.057442867E+03  0.000000000E+00  0.00000E+00  9.000E+00
      25     1     1     2     0     0  3.090349556E+01  1.041465452E+02 -3.233855824E+02  3.633245984E+02  1.250000000E+02  0.00000E+00  9.000E+00
      25     1     1     2     0     0 -2.790711440E+01 -1.193718137E+02 -7.019811249E+02  7.234852705E+02  1.250000000E+02  0.00000E+00  9.000E+00
      21     1     1     2   501   512 -2.996381163E+00  1.522526850E+01  4.308490035E+01  4.579405791E+01  2.431401974E-06  0.00000E+00  9.000E+00
#rwgt            1           1   2.2146679593241132E-002          10      187905           0
</event>
<event>
      5   9999  3.79277E-02  8.49262E+00 -1.00000E+00  2.04334E-01
      21    -1     0     0   502   501  0.000000000E+00  0.000000000E+00  1.752548551E+02  1.752548551E+02  0.000000000E+00  0.00000E+00  9.000E+00
      21    -1     0     0   501   511  0.000000000E+00  0.000000000E+00 -2.561791064E+02  2.561791064E+02  0.000000000E+00  0.00000E+00  9.000E+00
      25     1     1     2     0     0 -5.398981731E+01 -1.377967104E+02 -1.012124405E+02  2.185675911E+02  1.250000000E+02  0.00000E+00  9.000E+00
      25     1     1     2     0     0  5.831957149E+01  1.304906986E+02  3.761625730E+01  1.935690514E+02  1.250000000E+02  0.00000E+00  9.000E+00
      21     1     1     2   502   511 -4.329754189E+00  7.306011847E+00 -1.732806808E+01  1.929731908E+01  2.384185791E-07  0.00000E+00  9.000E+00
#rwgt            1           1   4.8860919169967709E-002          10      188122           0
</event>
<event>
      5   9999  3.79277E-02  1.34241E+01 -1.00000E+00  1.82049E-01
      -3    -1     0     0     0   501  0.000000000E+00  0.000000000E+00  4.201170450E+02  4.201170450E+02  0.000000000E+00  0.00000E+00  9.000E+00
      21    -1     0     0   501   502  0.000000000E+00  0.000000000E+00 -4.491104480E+02  4.491104480E+02  0.000000000E+00  0.00000E+00  9.000E+00
      25     1     1     2     0     0 -5.390611724E+01  9.563548693E+01 -4.659473523E+01  1.727659839E+02  1.250000000E+02  0.00000E+00  9.000E+00
      25     1     1     2     0     0  5.176898812E+01 -1.088883854E+02 -3.170717546E+02  3.615193026E+02  1.250000000E+02  0.00000E+00  9.000E+00
      -3     1     1     2     0   502  2.137129116E+00  1.325289846E+01  3.346730868E+02  3.349422065E+02  5.394796609E-06  0.00000E+00  9.000E+00
#rwgt            1           1   4.1024032433606229E-002          10      188387           0
</event>
<event>
      5   9999  3.79277E-02  6.06571E+01 -1.00000E+00  1.34451E-01
      21    -1     0     0   511   501  0.000000000E+00  0.000000000E+00  6.992416493E+02  6.992416493E+02  0.000000000E+00  0.00000E+00  9.000E+00
      21    -1     0     0   501   502  0.000000000E+00  0.000000000E+00 -1.795936011E+02  1.795936011E+02  0.000000000E+00  0.00000E+00  9.000E+00
      25     1     1     2     0     0 -1.659782738E+02 -1.444371940E+02  4.665303448E+01  2.573176947E+02  1.250000000E+02  0.00000E+00  9.000E+00
      25     1     1     2     0     0  1.766250493E+02  2.041525716E+02  2.443880019E+02  3.850002285E+02  1.250000000E+02  0.00000E+00  9.000E+00
      21     1     1     2   511   502 -1.064677554E+01 -5.971537756E+01  2.286070119E+02  2.365173271E+02  2.697398305E-06  0.00000E+00  9.000E+00
#rwgt            1           1   3.3207941954390287E-002          10      188659           0
</event>
<event>
      5   9999  3.79277E-02  3.63791E+01 -1.00000E+00  1.47443E-01
      21    -1     0     0   502   501  0.000000000E+00  0.000000000E+00  5.149979716E+02  5.149979716E+02  0.000000000E+00  0.00000E+00  9.000E+00
      21    -1     0     0   501   512  0.000000000E+00  0.000000000E+00 -2.349900345E+02  2.349900345E+02  0.000000000E+00  0.00000E+00  9.000E+00
      25     1     1     2     0     0 -2.759924447E+02  1.911674897E+01  2.491928743E+02  3.927586641E+02  1.250000000E+02  0.00000E+00  9.000E+00
      25     1     1     2     0     0  2.558761934E+02  1.119454526E+01  8.003802133E+01  2.960220077E+02  1.250000000E+02  0.00000E+00  9.000E+00
      21     1     1     2   502   512  2.011625126E+01 -3.031129423E+01 -4.922295852E+01  6.120733427E+01  1.168007728E-06  0.00000E+00  9.000E+00
#rwgt            1           1   3.6226095565055141E-002          10      188920           0
</event>
<event>
      5   9999  3.79277E-02  1.11340E+02 -1.00000E+00  1.21765E-01
      21    -1     0     0   502   501  0.000000000E+00  0.000000000E+00  7.176562556E+02  7.176562556E+02  0.000000000E+00  0.00000E+00  9.000E+00
      21    -1     0     0   511   502  0.000000000E+00  0.000000000E+00 -9.410458169E+01  9.410458169E+01  0.000000000E+00  0.00000E+00  9.000E+00
      25     1     1     2     0     0 -8.637877055E+01  3.965114584E+01  4.483834004E+01  1.633064056E+02  1.250000000E+02  0.00000E+00  9.000E+00
      25     1     1     2     0     0  1.968534130E+01  4.950427629E+01  4.826120320E+02  5.013756670E+02  1.250000000E+02  0.00000E+00  9.000E+00
      21     1     1     2   511   501  6.669342924E+01 -8.915542213E+01  9.610130184E+01  1.470787647E+02  0.000000000E+00  0.00000E+00  9.000E+00
#rwgt            1           1   1.8617102588886058E-002          10      189022           0
</event>
<event>
      5   9999  3.79277E-02  4.02628E+01 -1.00000E+00  1.44664E-01
      -1    -1     0     0     0   501  0.000000000E+00  0.000000000E+00  9.265735733E+02  9.265735733E+02  0.000000000E+00  0.00000E+00  9.000E+00
      21    -1     0     0   501   502  0.000000000E+00  0.000000000E+00 -4.418084795E+02  4.418084795E+02  0.000000000E+00  0.00000E+00  9.000E+00
      25     1     1     2     0     0 -1.310750017E+02 -5.547822335E+01 -3.438712428E+02  3.925951107E+02  1.250000000E+02  0.00000E+00  9.000E+00
      25     1     1     2     0     0  1.192332945E+02  1.699615401E+01  3.002206568E+01  1.761583725E+02  1.250000000E+02  0.00000E+00  9.000E+00
      -1     1     1     2     0   502  1.184170718E+01  3.848206933E+01  7.986142709E+02  7.996285697E+02  1.078959322E-05  0.00000E+00  9.000E+00
#rwgt            1           1   3.2311958479993685E-002          10      189106           0
</event>
<event>
      5   9999  3.79277E-02  1.34846E+01 -1.00000E+00  1.81855E-01
      21    -1     0     0   511   501  0.000000000E+00  0.000000000E+00  7.030523175E+01  7.030523175E+01  0.000000000E+00  0.00000E+00  9.000E+00
      21    -1     0     0   501   502  0.000000000E+00  0.000000000E+00 -5.618327273E+02  5.618327273E+02  0.000000000E+00  0.00000E+00  9.000E+00
      25     1     1     2     0     0  5.048371312E+01  1.098125671E+02 -2.551551848E+02  3.087662117E+02  1.250000000E+02  0.00000E+00  9.000E+00
      25     1     1     2     0     0 -4.365628070E+01 -1.214409823E+02 -2.475370955E+02  3.058649975E+02  1.250000000E+02  0.00000E+00  9.000E+00
      21     1     1     2   511   502 -6.827432416E+00  1.162841517E+01  1.116478470E+01  1.750674985E+01  2.920019320E-07  0.00000E+00  9.000E+00
#rwgt            1           1   6.2874959801534035E-003          10      189370           0
</event>
<event>
      5   9999  3.79277E-02  2.06630E+01 -1.00000E+00  1.65209E-01
      21    -1     0     0   502   501  0.000000000E+00  0.000000000E+00  1.146298590E+03  1.146298590E+03  0.000000000E+00  0.00000E+00  9.000E+00
      21    -1     0     0   501   512  0.000000000E+00  0.000000000E+00 -5.446081925E+01  5.446081925E+01  0.000000000E+00  0.00000E+00  9.000E+00
      25     1     1     2     0     0 -8.516693583E+01  1.443189403E+02  8.549662716E+02  8.801554914E+02  1.250000000E+02  0.00000E+00  9.000E+00
      25     1     1     2     0     0  8.248690574E+01 -1.238305052E+02  2.037211894E+02  2.815411278E+02  1.250000000E+02  0.00000E+00  9.000E+00
      21     1     1     2   502   512  2.680030090E+00 -2.048843511E+01  3.315031020E+01  3.906279049E+01  0.000000000E+00  0.00000E+00  9.000E+00
#rwgt            1           1   2.6384021319348614E-002          10      189532           0
</event>
<event>
      5   9999  3.79277E-02  2.86003E+01 -1.00000E+00  1.54495E-01
      21    -1     0     0   502   501  0.000000000E+00  0.000000000E+00  3.766169962E+02  3.766169962E+02  0.000000000E+00  0.00000E+00  9.000E+00
      21    -1     0     0   501   511  0.000000000E+00  0.000000000E+00 -6.309348410E+02  6.309348410E+02  0.000000000E+00  0.00000E+00  9.000E+00
      25     1     1     2     0     0 -6.095457018E+01 -1.204981945E+02 -3.475114582E+00  1.840444265E+02  1.250000000E+02  0.00000E+00  9.000E+00
      25     1     1     2     0     0  8.909373069E+01  1.153830828E+02  2.536849359E+02  3.181697587E+02  1.250000000E+02  0.00000E+00  9.000E+00
      21     1     1     2   502   511 -2.813916050E+01  5.115111760E+00 -5.045276661E+02  5.053376521E+02  7.629394531E-06  0.00000E+00  9.000E+00
#rwgt            1           1   4.0230351903259971E-002          10      189778           0
</event>
<event>
      5   9999  3.79277E-02  7.82903E+01 -1.00000E+00  1.28805E-01
       1    -1     0     0   502     0  0.000000000E+00  0.000000000E+00  8.898722228E+01  8.898722228E+01  0.000000000E+00  0.00000E+00  9.000E+00
      21    -1     0     0   501   502  0.000000000E+00  0.000000000E+00 -1.191815316E+03  1.191815316E+03  0.000000000E+00  0.00000E+00  9.000E+00
      25     1     1     2     0     0 -1.602913354E+01 -3.745164664E+01 -9.455719304E+02  9.546679185E+02  1.250000000E+02  0.00000E+00  9.000E+00
      25     1     1     2     0     0  9.424261907E+01  3.398531227E+01 -1.834787633E+02  2.435695573E+02  1.250000000E+02  0.00000E+00  9.000E+00
       1     1     1     2   501     0 -7.821348553E+01  3.466334376E+00  2.622259996E+01  8.256506247E+01  2.500555153E-06  0.00000E+00  9.000E+00
#rwgt            1           1   5.9492994327994264E-002          10      190000           0
</event>
<event>
      5   9999  3.79277E-02  2.24898E+02 -1.00000E+00  1.09824E-01
      21    -1     0     0   502   501  0.000000000E+00  0.000000000E+00  2.887915824E+02  2.887915824E+02  0.000000000E+00  0.00000E+00  9.000E+00
      21    -1     0     0   511   502  0.000000000E+00  0.000000000E+00 -9.410997247E+02  9.410997247E+02  0.000000000E+00  0.00000E+00  9.000E+00
      25     1     1     2     0     0  7.068103061E+00 -1.452115661E+02  1.641476011E+02  2.524000633E+02  1.250000000E+02  0.00000E+00  9.000E+00
      25     1     1     2     0     0 -1.670682503E+02 -1.283621702E+01 -1.102508966E+02  2.363404936E+02  1.250000000E+02  0.00000E+00  9.000E+00
      21     1     1     2   511   501  1.600001472E+02  1.580477831E+02 -7.062048468E+02  7.411507502E+02  7.629394531E-06  0.00000E+00  9.000E+00
#rwgt            2          11   1.9417531088591078E-003          10      190179           0
</event>
<event>
      5   9999  3.79277E-02  1.18388E+01 -1.00000E+00  1.87648E-01
      21    -1     0     0   502   501  0.000000000E+00  0.000000000E+00  2.749781374E+02  2.749781374E+02  0.000000000E+00  0.00000E+00  9.000E+00
       1    -1     0     0   501     0  0.000000000E+00  0.000000000E+00 -2.633999240E+02  2.633999240E+02  0.000000000E+00  0.00000E+00  9.000E+00
      25     1     1     2     0     0  3.588033876E+01 -4.405789931E+01  9.397568386E+01  1.663878792E+02  1.250000000E+02  0.00000E+00  9.000E+00
      25     1     1     2     0     0 -2.913576382E+01  5.378767629E+01  1.111352955E+02  1.780956506E+02  1.250000000E+02  0.00000E+00  9.000E+00
       1     1     1     2   502     0 -6.744574943E+00 -9.729776983E+00 -1.935327660E+02  1.938945315E+02  0.000000000E+00  0.00000E+00  9.000E+00
#rwgt            1           1   3.4378540060193988E-002          10      190259           0
</event>
<event>
      5   9999  3.79277E-02  1.19877E+02 -1.00000E+00  1.20387E-01
      21    -1     0     0   502   501  0.000000000E+00  0.000000000E+00  1.317397767E+02  1.317397767E+02  0.000000000E+00  0.00000E+00  9.000E+00
       2    -1     0     0   501     0  0.000000000E+00  0.000000000E+00 -8.193572173E+02  8.193572173E+02  0.000000000E+00  0.00000E+00  9.000E+00
      25     1     1     2     0     0  1.473142440E+02 -5.785017476E+01 -1.612966867E+02  2.582435872E+02  1.250000000E+02  0.00000E+00  9.000E+00
      25     1     1     2     0     0 -1.309435745E+02  1.766039012E+02 -1.415083505E+02  2.898012610E+02  1.250000000E+02  0.00000E+00  9.000E+00
       2     1     1     2   502     0 -1.637066948E+01 -1.187537265E+02 -3.848124035E+02  4.030521458E+02  5.394796609E-06  0.00000E+00  9.000E+00
#rwgt            1           1   3.4627281406652277E-002          10      190456           0
</event>
<event>
      5   9999  3.79277E-02  1.52112E+02 -1.00000E+00  1.16153E-01
      21    -1     0     0   502   501  0.000000000E+00  0.000000000E+00  5.448770675E+02  5.448770675E+02  0.000000000E+00  0.00000E+00  9.000E+00
      21    -1     0     0   501   511  0.000000000E+00  0.000000000E+00 -2.927853737E+02  2.927853737E+02  0.000000000E+00  0.00000E+00  9.000E+00
      25     1     1     2     0     0  1.873851656E+02  1.309299860E+02 -3.870115133E+01  2.633982548E+02  1.250000000E+02  0.00000E+00  9.000E+00
      25     1     1     2     0     0 -4.036929619E+01 -9.188741635E+01  3.696599529E+02  4.029223971E+02  1.250000000E+02  0.00000E+00  9.000E+00
      21     1     1     2   502   511 -1.470158694E+02 -3.904256967E+01 -7.886710768E+01  1.713417893E+02  2.336015456E-06  0.00000E+00  9.000E+00
#rwgt            1           1   2.9957769772946442E-002          10      190523           0
</event>
<event>
      5   9999  3.79277E-02  4.25182E+01 -1.00000E+00  1.43215E-01
       1    -1     0     0   502     0  0.000000000E+00  0.000000000E+00  2.888300366E+03  2.888300366E+03  0.000000000E+00  0.00000E+00  9.000E+00
      21    -1     0     0   501   502  0.000000000E+00  0.000000000E+00 -3.750598116E+01  3.750598116E+01  0.000000000E+00  0.00000E+00  9.000E+00
      25     1     1     2     0     0  4.643487486E+01 -4.290024001E+01  1.117244006E+03  1.125991029E+03  1.250000000E+02  0.00000E+00  9.000E+00
      25     1     1     2     0     0 -8.613326943E+01  2.767422114E+01  1.483677926E+02  2.140626182E+02  1.250000000E+02  0.00000E+00  9.000E+00
       1     1     1     2   501     0  3.969839457E+01  1.522601887E+01  1.585182586E+03  1.585752700E+03  0.000000000E+00  0.00000E+00  9.000E+00
#rwgt            1           1   3.9411526686819576E-002          10      190586           0
</event>
<event>
      5   9999  3.79277E-02  2.10646E+01 -1.00000E+00  1.64532E-01
      21    -1     0     0   502   511  0.000000000E+00  0.000000000E+00  2.445073983E+02  2.445073983E+02  0.000000000E+00  0.00000E+00  9.000E+00
      21    -1     0     0   501   502  0.000000000E+00  0.000000000E+00 -1.680832040E+03  1.680832040E+03  0.000000000E+00  0.00000E+00  9.000E+00
      25     1     1     2     0     0 -5.853379766E+01  8.884950691E+00 -1.481976801E+03  1.488417074E+03  1.250000000E+02  0.00000E+00  9.000E+00
      25     1     1     2     0     0  3.906303210E+01 -8.470642664E-01 -1.731545871E+02  2.171040051E+02  1.250000000E+02  0.00000E+00  9.000E+00
      21     1     1     2   501   511  1.947076556E+01 -8.037886425E+00  2.188067469E+02  2.198183587E+02  7.136645101E-06  0.00000E+00  9.000E+00
#rwgt            1           1   3.9845263481422630E-002          10      190784           0
</event>
<event>
      5   9999  3.79277E-02  7.47215E+01 -1.00000E+00  1.29801E-01
      21    -1     0     0   502   501  0.000000000E+00  0.000000000E+00  5.076787430E+02  5.076787430E+02  0.000000000E+00  0.00000E+00  9.000E+00
      21    -1     0     0   512   502  0.000000000E+00  0.000000000E+00 -1.772296726E+02  1.772296726E+02  0.000000000E+00  0.00000E+00  9.000E+00
      25     1     1     2     0     0 -1.744034419E+02 -1.651895274E+02  1.293599175E+02  3.001051962E+02  1.250000000E+02  0.00000E+00  9.000E+00
      25     1     1     2     0     0  1.934649899E+02  9.294019781E+01  1.812923648E+02  3.075036654E+02  1.250000000E+02  0.00000E+00  9.000E+00
      21     1     1     2   512   501 -1.906154798E+01  7.224932959E+01  1.979678817E+01  7.729955407E+01  8.259061849E-07  0.00000E+00  9.000E+00
#rwgt            1           1   3.5018017099381724E-002          10      190972           0
</event>
<event>
      5   9999  3.79277E-02  9.05523E+01 -1.00000E+00  1.25798E-01
      21    -1     0     0   511   501  0.000000000E+00  0.000000000E+00  1.061241821E+03  1.061241821E+03  0.000000000E+00  0.00000E+00  9.000E+00
      21    -1     0     0   501   502  0.000000000E+00  0.000000000E+00 -5.955655710E+01  5.955655710E+01  0.000000000E+00  0.00000E+00  9.000E+00
      25     1     1     2     0     0 -1.578042484E+02 -8.700200577E+01  3.042165801E+02  3.750256757E+02  1.250000000E+02  0.00000E+00  9.000E+00
      25     1     1     2     0     0  8.221656337E+01  3.714005656E+01  2.906776574E+02  3.290249954E+02  1.250000000E+02  0.00000E+00  9.000E+00
      21     1     1     2   511   502  7.558768504E+01  4.986194921E+01  4.067910260E+02  4.167477066E+02  0.000000000E+00  0.00000E+00  9.000E+00
#rwgt            1           1   3.9417061044456900E-002          10      191094           0
</event>
<event>
      5   9999  3.79277E-02  1.00292E+02 -1.00000E+00  1.23771E-01
      21    -1     0     0   512   501  0.000000000E+00  0.000000000E+00  1.892785717E+03  1.892785717E+03  0.000000000E+00  0.00000E+00  9.000E+00
      21    -1     0     0   501   502  0.000000000E+00  0.000000000E+00 -1.965053617E+02  1.965053617E+02  0.000000000E+00  0.00000E+00  9.000E+00
      25     1     1     2     0     0  1.541256594E+02 -3.773131772E+01 -1.075719579E+02  2.288560625E+02  1.250000000E+02  0.00000E+00  9.000E+00
      25     1     1     2     0     0 -1.784906460E+02  1.350189540E+02  6.007201924E+02  6.531299857E+02  1.250000000E+02  0.00000E+00  9.000E+00
      21     1     1     2   512   502  2.436498657E+01 -9.728763627E+01  1.203132121E+03  1.207305031E+03  0.000000000E+00  0.00000E+00  9.000E+00
#rwgt            1           1   5.1520364610075968E-002          10      191168           0
</event>
<event>
      5   9999  3.79277E-02  7.87402E+01 -1.00000E+00  1.28684E-01
      21    -1     0     0   511   501  0.000000000E+00  0.000000000E+00  2.403107886E+02  2.403107886E+02  0.000000000E+00  0.00000E+00  9.000E+00
      21    -1     0     0   501   502  0.000000000E+00  0.000000000E+00 -3.453202244E+02  3.453202244E+02  0.000000000E+00  0.00000E+00  9.000E+00
      25     1     1     2     0     0 -1.227357312E+02  8.765729194E+01 -2.253242280E+02  2.985697042E+02  1.250000000E+02  0.00000E+00  9.000E+00
      25     1     1     2     0     0  6.231978097E+01 -3.716042101E+01  1.520208223E+00  1.445405238E+02  1.250000000E+02  0.00000E+00  9.000E+00
      21     1     1     2   511   502  6.041595021E+01 -5.049687093E+01  1.187945839E+02  1.425207851E+02  1.348699152E-06  0.00000E+00  9.000E+00
#rwgt            1           1   4.6531191568503195E-002          10      191289           0
</event>
<event>
      5   9999  3.79277E-02  4.08083E+01 -1.00000E+00  1.44303E-01
      21    -1     0     0   512   501  0.000000000E+00  0.000000000E+00  5.546958590E+02  5.546958590E+02  0.000000000E+00  0.00000E+00  9.000E+00
      21    -1     0     0   501   502  0.000000000E+00  0.000000000E+00 -1.421906412E+02  1.421906412E+02  0.000000000E+00  0.00000E+00  9.000E+00
      25     1     1     2     0     0 -4.664516040E+01  1.190213196E+02  1.369099149E+01  1.793161698E+02  1.250000000E+02  0.00000E+00  9.000E+00
      25     1     1     2     0     0  6.715976167E+01 -8.374429682E+01  5.854093834E+01  1.748587496E+02  1.250000000E+02  0.00000E+00  9.000E+00
      21     1     1     2   512   502 -2.051460127E+01 -3.527702274E+01  3.402732879E+02  3.427115809E+02  5.394796609E-06  0.00000E+00  9.000E+00
#rwgt            1           1   3.6590370352026273E-002          10      191355           0
</event>
<event>
      5   9999  3.79277E-02  3.32887E+01 -1.00000E+00  1.49967E-01
      21    -1     0     0   502   501  0.000000000E+00  0.000000000E+00  1.895875262E+03  1.895875262E+03  0.000000000E+00  0.00000E+00  9.000E+00
      21    -1     0     0   501   511  0.000000000E+00  0.000000000E+00 -1.743096308E+01  1.743096308E+01  0.000000000E+00  0.00000E+00  9.000E+00
      25     1     1     2     0     0 -3.281182621E+00 -7.463688167E+01  1.388522431E+03  1.396137877E+03  1.250000000E+02  0.00000E+00  9.000E+00
      25     1     1     2     0     0 -4.562932150E+00  4.228558690E+01  3.777448262E+02  4.001562756E+02  1.250000000E+02  0.00000E+00  9.000E+00
      21     1     1     2   502   511  7.844114771E+00  3.235129477E+01  1.121770423E+02  1.170120730E+02  1.907348633E-06  0.00000E+00  9.000E+00
#rwgt            1           1  0.35702088750372152               10      191690           0
</event>
<event>
      5   9999  3.79277E-02  3.35533E+01 -1.00000E+00  1.49738E-01
      21    -1     0     0   502   501  0.000000000E+00  0.000000000E+00  1.788601771E+03  1.788601771E+03  0.000000000E+00  0.00000E+00  9.000E+00
      21    -1     0     0   512   502  0.000000000E+00  0.000000000E+00 -2.745095712E+01  2.745095712E+01  0.000000000E+00  0.00000E+00  9.000E+00
      25     1     1     2     0     0  5.890437433E+01  1.549074665E+02  1.114134239E+03  1.133307616E+03  1.250000000E+02  0.00000E+00  9.000E+00
      25     1     1     2     0     0 -5.983540558E+01 -1.213670479E+02  5.363388844E+02  5.670931449E+02  1.250000000E+02  0.00000E+00  9.000E+00
      21     1     1     2   512   501  9.310312504E-01 -3.354041865E+01  1.106776906E+02  1.156519680E+02  1.907348633E-06  0.00000E+00  9.000E+00
#rwgt            1           1  0.17155789696125692               10      191896           0
</event>
<event>
      5   9999  3.79277E-02  3.54242E+01 -1.00000E+00  1.48190E-01
      21    -1     0     0   502   511  0.000000000E+00  0.000000000E+00  9.569979113E+02  9.569979113E+02  0.000000000E+00  0.00000E+00  9.000E+00
      21    -1     0     0   501   502  0.000000000E+00  0.000000000E+00 -4.388812959E+01  4.388812959E+01  0.000000000E+00  0.00000E+00  9.000E+00
      25     1     1     2     0     0 -3.883955075E+01  1.329665990E+02  3.581979576E+02  4.038804328E+02  1.250000000E+02  0.00000E+00  9.000E+00
      25     1     1     2     0     0  3.463186752E+01 -9.779321687E+01  3.142700775E+02  3.537704921E+02  1.250000000E+02  0.00000E+00  9.000E+00
      21     1     1     2   501   511  4.207683226E+00 -3.517338215E+01  2.406417466E+02  2.432351160E+02  3.814697266E-06  0.00000E+00  9.000E+00
#rwgt            1           1   3.5814017513865995E-002          10      192086           0
</event>
<event>
      5   9999  3.79277E-02  2.72250E+01 -1.00000E+00  1.56026E-01
      21    -1     0     0   502   501  0.000000000E+00  0.000000000E+00  4.688406637E+02  4.688406637E+02  0.000000000E+00  0.00000E+00  9.000E+00
      21    -1     0     0   501   512  0.000000000E+00  0.000000000E+00 -1.883759332E+02  1.883759332E+02  0.000000000E+00  0.00000E+00  9.000E+00
      25     1     1     2     0     0 -1.137546152E+02  1.078884564E+02  9.996383299E+01  2.240486541E+02  1.250000000E+02  0.00000E+00  9.000E+00
      25     1     1     2     0     0  1.374306352E+02 -9.444787903E+01  2.691667918E+02  3.404164261E+02  1.250000000E+02  0.00000E+00  9.000E+00
      21     1     1     2   502   512 -2.367602001E+01 -1.344057736E+01 -8.866589430E+01  9.275151673E+01  9.536743164E-07  0.00000E+00  9.000E+00
#rwgt            1           1   3.5459160032226850E-002          10      192317           0
</event>
<event>
      5   9999  3.79277E-02  1.82637E+01 -1.00000E+00  1.69691E-01
      21    -1     0     0   502   511  0.000000000E+00  0.000000000E+00  1.430778126E+02  1.430778126E+02  0.000000000E+00  0.00000E+00  9.000E+00
      21    -1     0     0   501   502  0.000000000E+00  0.000000000E+00 -3.108192537E+02  3.108192537E+02  0.000000000E+00  0.00000E+00  9.000E+00
      25     1     1     2     0     0  2.817824331E+01 -1.447265415E+02 -7.980554834E+01  2.091260643E+02  1.250000000E+02  0.00000E+00  9.000E+00
      25     1     1     2     0     0 -3.322449782E+01  1.271738653E+02 -1.130379086E+02  2.137279300E+02  1.250000000E+02  0.00000E+00  9.000E+00
      21     1     1     2   501   511  5.046254505E+00  1.755267619E+01  2.510201587E+01  3.104307212E+01  3.371747881E-07  0.00000E+00  9.000E+00
#rwgt            1           1   4.0405939108019977E-002          10      192488           0
</event>
<event>
      5   9999  3.79277E-02  4.41878E+01 -1.00000E+00  1.42208E-01
      21    -1     0     0   502   501  0.000000000E+00  0.000000000E+00  3.492736393E+02  3.492736393E+02  0.000000000E+00  0.00000E+00  9.000E+00
      21    -1     0     0   512   502  0.000000000E+00  0.000000000E+00 -1.895635535E+02  1.895635535E+02  0.000000000E+00  0.00000E+00  9.000E+00
      25     1     1     2     0     0 -1.837010814E+01  5.585027274E+01 -8.883471197E+01  1.642355622E+02  1.250000000E+02  0.00000E+00  9.000E+00
      25     1     1     2     0     0  5.352896345E+01 -8.261620527E+01  2.788292382E+02  3.210319788E+02  1.250000000E+02  0.00000E+00  9.000E+00
      21     1     1     2   512   501 -3.515885531E+01  2.676593253E+01 -3.028444047E+01  5.356965172E+01  6.743495762E-07  0.00000E+00  9.000E+00
#rwgt            1           1   3.4048290888757951E-002          10      192659           0
</event>
<event>
      5   9999  3.85442E-02  4.55667E+01 -1.00000E+00  1.41416E-01
      21    -1     0     0   502   501  0.000000000E+00  0.000000000E+00  8.187328002E+02  8.187328002E+02  0.000000000E+00  0.00000E+00  9.000E+00
      21    -1     0     0   501   511  0.000000000E+00  0.000000000E+00 -3.508931603E+02  3.508931603E+02  0.000000000E+00  0.00000E+00  9.000E+00
      25     1     1     2     0     0  1.314412667E+02 -1.864155076E+02  3.579252163E+02  4.424511369E+02  1.250000000E+02  0.00000E+00  9.000E+00
      25     1     1     2     0     0 -8.632907453E+01  1.799958846E+02  3.833731002E+02  4.499457318E+02  1.250000000E+02  0.00000E+00  9.000E+00
      21     1     1     2   502   511 -4.511219222E+01  6.419623027E+00 -2.734586767E+02  2.772290917E+02  3.814697266E-06  0.00000E+00  9.000E+00
#rwgt            1           1  0.26034680145685613               10      192832           0
</event>
<event>
      5   9999  3.79277E-02  6.73309E+01 -1.00000E+00  1.32081E-01
      21    -1     0     0   512   501  0.000000000E+00  0.000000000E+00  1.266142663E+03  1.266142663E+03  0.000000000E+00  0.00000E+00  9.000E+00
      21    -1     0     0   501   502  0.000000000E+00  0.000000000E+00 -6.777276601E+01  6.777276601E+01  0.000000000E+00  0.00000E+00  9.000E+00
      25     1     1     2     0     0 -1.088821417E+02  5.641518012E+01  2.009113390E+02  2.665114622E+02  1.250000000E+02  0.00000E+00  9.000E+00
      25     1     1     2     0     0  1.151645845E+02  1.062200876E+01  1.822925272E+02  2.494619692E+02  1.250000000E+02  0.00000E+00  9.000E+00
      21     1     1     2   512   502 -6.282442793E+00 -6.703718887E+01  8.151660305E+02  8.179419974E+02  0.000000000E+00  0.00000E+00  9.000E+00
#rwgt            1           1   4.0098557590122534E-002          10      192912           0
</event>
<event>
      5   9999  3.79277E-02  1.59823E+01 -1.00000E+00  1.74827E-01
      21    -1     0     0   502   501  0.000000000E+00  0.000000000E+00  1.323094371E+02  1.323094371E+02  0.000000000E+00  0.00000E+00  9.000E+00
      21    -1     0     0   511   502  0.000000000E+00  0.000000000E+00 -4.134477809E+02  4.134477809E+02  0.000000000E+00  0.00000E+00  9.000E+00
      25     1     1     2     0     0 -8.872461224E+01  6.505964175E+01 -2.768432855E+02  3.230665853E+02  1.250000000E+02  0.00000E+00  9.000E+00
      25     1     1     2     0     0  8.196778987E+01 -7.954341706E+01  4.137354194E+01  1.743061782E+02  1.250000000E+02  0.00000E+00  9.000E+00
      21     1     1     2   511   501  6.756822378E+00  1.448377531E+01 -4.566860014E+01  4.838445447E+01  6.743495762E-07  0.00000E+00  9.000E+00
#rwgt            1           1   4.7747298476630916E-002          10      193262           0
</event>
<event>
      5   9999  3.79277E-02  1.57983E+01 -1.00000E+00  1.75288E-01
      21    -1     0     0   502   501  0.000000000E+00  0.000000000E+00  4.410841876E+02  4.410841876E+02  0.000000000E+00  0.00000E+00  9.000E+00
      21    -1     0     0   512   502  0.000000000E+00  0.000000000E+00 -8.449369605E+01  8.449369605E+01  0.000000000E+00  0.00000E+00  9.000E+00
      25     1     1     2     0     0  1.293735872E+02  6.116390385E+00  1.862919843E+02  2.590456306E+02  1.250000000E+02  0.00000E+00  9.000E+00
      25     1     1     2     0     0 -1.165530399E+02  3.115060691E+00  1.798076159E+02  2.480929129E+02  1.250000000E+02  0.00000E+00  9.000E+00
      21     1     1     2   512   501 -1.282054730E+01 -9.231451076E+00 -9.509108617E+00  1.843934024E+01  3.153981341E-07  0.00000E+00  9.000E+00
#rwgt            1           1   4.8060625691297994E-002          10      193541           0
</event>
<event>
      5   9999  3.79277E-02  1.33953E+02 -1.00000E+00  1.18375E-01
      21    -1     0     0   502   511  0.000000000E+00  0.000000000E+00  4.095854644E+02  4.095854644E+02  0.000000000E+00  0.00000E+00  9.000E+00
      21    -1     0     0   501   502  0.000000000E+00  0.000000000E+00 -2.014201226E+02  2.014201226E+02  0.000000000E+00  0.00000E+00  9.000E+00
      25     1     1     2     0     0 -8.124247373E+01 -2.134476851E+02  1.539857620E+02  3.024844933E+02  1.250000000E+02  0.00000E+00  9.000E+00
      25     1     1     2     0     0 -2.386724536E+00  1.088072065E+02  4.968292351E+00  1.658143195E+02  1.250000000E+02  0.00000E+00  9.000E+00
      21     1     1     2   501   511  8.362919827E+01  1.046404786E+02  4.921128747E+01  1.427067742E+02  1.348699152E-06  0.00000E+00  9.000E+00
#rwgt            1           1   4.0696366740393772E-002          10      193753           0
</event>
<event>
      5   9999 -3.79277E-02  7.52600E+01 -1.00000E+00  1.29647E-01
      21    -1     0     0   512   501  0.000000000E+00  0.000000000E+00  5.027901618E+02  5.027901618E+02  0.000000000E+00  0.00000E+00  9.000E+00
      21    -1     0     0   501   502  0.000000000E+00  0.000000000E+00 -1.452592410E+02  1.452592410E+02  0.000000000E+00  0.00000E+00  9.000E+00
      25     1     1     2     0     0  9.844245761E+01  1.159289202E+02  1.800405925E+02  2.667771485E+02  1.250000000E+02  0.00000E+00  9.000E+00
      25     1     1     2     0     0 -1.697663799E+02 -1.399490574E+02  9.678775471E+01  2.709229261E+02  1.250000000E+02  0.00000E+00  9.000E+00
      21     1     1     2   512   502  7.132392228E+01  2.402013713E+01  8.070257360E+01  1.103493283E+02  1.651812370E-06  0.00000E+00  9.000E+00
#rwgt            1           1  -9.5866803686348340E-002          10      193853           0
</event>
<event>
      5   9999  3.79277E-02  2.06192E+02 -1.00000E+00  1.11168E-01
      21    -1     0     0   502   501  0.000000000E+00  0.000000000E+00  3.696151870E+02  3.696151870E+02  0.000000000E+00  0.00000E+00  9.000E+00
       1    -1     0     0   501     0  0.000000000E+00  0.000000000E+00 -9.474248735E+02  9.474248735E+02  0.000000000E+00  0.00000E+00  9.000E+00
      25     1     1     2     0     0 -1.275264645E+01  1.410533871E+02  2.527509204E+02  3.155419398E+02  1.250000000E+02  0.00000E+00  9.000E+00
      25     1     1     2     0     0  1.907014318E+02 -3.689317052E+01 -1.173562989E+02  2.590861691E+02  1.250000000E+02  0.00000E+00  9.000E+00
       1     1     1     2   502     0 -1.779487853E+02 -1.041602166E+02 -7.132043079E+02  7.424119515E+02  1.078959322E-05  0.00000E+00  9.000E+00
#rwgt            1           1   3.2516944773466047E-002          10      193959           0
</event>
<event>
      5   9999  3.79277E-02  2.39878E+01 -1.00000E+00  1.60107E-01
      21    -1     0     0   502   511  0.000000000E+00  0.000000000E+00  7.366049997E+02  7.366049997E+02  0.000000000E+00  0.00000E+00  9.000E+00
      21    -1     0     0   501   502  0.000000000E+00  0.000000000E+00 -1.886008559E+02  1.886008559E+02  0.000000000E+00  0.00000E+00  9.000E+00
      25     1     1     2     0     0 -1.263085842E+02  2.259128001E+01  8.683243317E+01  1.990705800E+02  1.250000000E+02  0.00000E+00  9.000E+00
      25     1     1     2     0     0  1.341505868E+02  7.849827553E-02 -6.863486766E+01  1.957859320E+02  1.250000000E+02  0.00000E+00  9.000E+00
      21     1     1     2   501   511 -7.842002631E+00 -2.266977828E+01  5.298065783E+02  5.303493436E+02  0.000000000E+00  0.00000E+00  9.000E+00
#rwgt            1           1   5.1678206659385287E-002          10      194029           0
</event>
<event>
      5   9999  3.79277E-02  2.06900E+01 -1.00000E+00  1.65163E-01
      21    -1     0     0   512   501  0.000000000E+00  0.000000000E+00  1.493842563E+02  1.493842563E+02  0.000000000E+00  0.00000E+00  9.000E+00
      21    -1     0     0   501   502  0.000000000E+00  0.000000000E+00 -3.356325658E+02  3.356325658E+02  0.000000000E+00  0.00000E+00  9.000E+00
      25     1     1     2     0     0  5.407942408E+01  8.152733849E+01  3.978056588E+01  1.636422453E+02  1.250000000E+02  0.00000E+00  9.000E+00
      25     1     1     2     0     0 -4.526414348E+01 -6.280928597E+01 -2.498001961E+02  2.898602888E+02  1.250000000E+02  0.00000E+00  9.000E+00
      21     1     1     2   512   502 -8.815280596E+00 -1.871805252E+01  2.377132062E+01  3.151428797E+01  4.768371582E-07  0.00000E+00  9.000E+00
#rwgt            1           1   3.5568792183897149E-002          10      194166           0
</event>
<event>
      5   9999  3.79277E-02  8.65528E+00 -1.00000E+00  2.03298E-01
      21    -1     0     0   502   511  0.000000000E+00  0.000000000E+00  2.142304154E+02  2.142304154E+02  0.000000000E+00  0.00000E+00  9.000E+00
      21    -1     0     0   501   502  0.000000000E+00  0.000000000E+00 -3.430494399E+02  3.430494399E+02  0.000000000E+00  0.00000E+00  9.000E+00
      25     1     1     2     0     0  1.770362006E+02 -8.978506442E+00 -2.143343448E+02  3.049371104E+02  1.250000000E+02  0.00000E+00  9.000E+00
      25     1     1     2     0     0 -1.755177191E+02  4.574643891E-01  5.749877469E+01  2.230197033E+02  1.250000000E+02  0.00000E+00  9.000E+00
      21     1     1     2   501   511 -1.518481515E+00  8.521042053E+00  2.801654556E+01  2.932304160E+01  0.000000000E+00  0.00000E+00  9.000E+00
#rwgt            1           1   3.5657530203738109E-002          10      194369           0
</event>
<event>
      5   9999  3.79277E-02  2.43638E+01 -1.00000E+00  1.59594E-01
      21    -1     0     0   502   512  0.000000000E+00  0.000000000E+00  2.025078569E+02  2.025078569E+02  0.000000000E+00  0.00000E+00  9.000E+00
      21    -1     0     0   501   502  0.000000000E+00  0.000000000E+00 -4.874035740E+02  4.874035740E+02  0.000000000E+00  0.00000E+00  9.000E+00
      25     1     1     2     0     0  1.486112169E+02  3.925137127E+01  8.981859768E+01  2.175278015E+02  1.250000000E+02  0.00000E+00  9.000E+00
      25     1     1     2     0     0 -1.301292139E+02 -2.337656682E+01 -3.986628326E+02  4.382204129E+02  1.250000000E+02  0.00000E+00  9.000E+00
      21     1     1     2   501   512 -1.848200292E+01 -1.587480445E+01  2.394851785E+01  3.416321641E+01  4.768371582E-07  0.00000E+00  9.000E+00
#rwgt            1           1   3.6443016189105198E-002          10      194664           0
</event>
<event>
      5   9999  3.79277E-02  6.04957E+01 -1.00000E+00  1.34513E-01
      21    -1     0     0   511   501  0.000000000E+00  0.000000000E+00  6.248873000E+02  6.248873000E+02  0.000000000E+00  0.00000E+00  9.000E+00
      21    -1     0     0   501   502  0.000000000E+00  0.000000000E+00 -1.217434529E+02  1.217434529E+02  0.000000000E+00  0.00000E+00  9.000E+00
      25     1     1     2     0     0 -3.792802885E+01  6.595675438E+01  4.201464317E+02  4.449009473E+02  1.250000000E+02  0.00000E+00  9.000E+00
      25     1     1     2     0     0  8.810185228E+01 -3.215859949E+01 -4.289823117E+01  1.620536027E+02  1.250000000E+02  0.00000E+00  9.000E+00
      21     1     1     2   511   502 -5.017382342E+01 -3.379815489E+01  1.258956465E+02  1.396762029E+02  3.015782986E-06  0.00000E+00  9.000E+00
#rwgt            1           1   4.3466588624391837E-002          10      194900           0
</event>
<event>
      5   9999 -3.79277E-02  8.49736E+01 -1.00000E+00  1.27094E-01
      21    -1     0     0   502   501  0.000000000E+00  0.000000000E+00  1.616112441E+02  1.616112441E+02  0.000000000E+00  0.00000E+00  9.000E+00
      21    -1     0     0   501   512  0.000000000E+00  0.000000000E+00 -5.267481303E+02  5.267481303E+02  0.000000000E+00  0.00000E+00  9.000E+00
      25     1     1     2     0     0  3.681973806E+01  2.513874691E+01  9.292480435E+01  1.620113236E+02  1.250000000E+02  0.00000E+00  9.000E+00
      25     1     1     2     0     0  3.514840229E+01 -7.031725202E+01 -1.659860750E+02  2.221627854E+02  1.250000000E+02  0.00000E+00  9.000E+00
      21     1     1     2   502   512 -7.196814035E+01  4.517850511E+01 -2.920756155E+02  3.041852655E+02  3.814697266E-06  0.00000E+00  9.000E+00
#rwgt            1           1  -1.8959864039064956E-002          10      195014           0
</event>
<event>
      5   9999  3.79277E-02  8.61990E+01 -1.00000E+00  1.26800E-01
       2    -1     0     0   502     0  0.000000000E+00  0.000000000E+00  1.723943317E+03  1.723943317E+03  0.000000000E+00  0.00000E+00  9.000E+00
      21    -1     0     0   501   502  0.000000000E+00  0.000000000E+00 -6.912772852E+01  6.912772852E+01  0.000000000E+00  0.00000E+00  9.000E+00
      25     1     1     2     0     0  2.262942950E+02 -1.248898211E+02  4.709700186E+02  5.515834786E+02  1.250000000E+02  0.00000E+00  9.000E+00
      25     1     1     2     0     0 -2.173204043E+02  3.915923677E+01  6.020082352E+02  6.532997162E+02  1.250000000E+02  0.00000E+00  9.000E+00
       2     1     1     2   501     0 -8.973890685E+00  8.573058433E+01  5.818373342E+02  5.881878504E+02  0.000000000E+00  0.00000E+00  9.000E+00
#rwgt            1           1   3.2517411256438006E-002          10      195095           0
</event>
<event>
      5   9999  3.79277E-02  6.32590E+01 -1.00000E+00  1.33487E-01
      21    -1     0     0   502   511  0.000000000E+00  0.000000000E+00  8.971416745E+02  8.971416745E+02  0.000000000E+00  0.00000E+00  9.000E+00
      21    -1     0     0   501   502  0.000000000E+00  0.000000000E+00 -5.078609943E+01  5.078609943E+01  0.000000000E+00  0.00000E+00  9.000E+00
      25     1     1     2     0     0  4.361973282E+01 -5.944799061E+01  1.724703014E+02  2.254057442E+02  1.250000000E+02  0.00000E+00  9.000E+00
      25     1     1     2     0     0 -7.152508304E+01  1.162193944E+02  3.900846166E+02  4.317566366E+02  1.250000000E+02  0.00000E+00  9.000E+00
      21     1     1     2   501   511  2.790535022E+01 -5.677140377E+01  2.838006572E+02  2.907653932E+02  3.814697266E-06  0.00000E+00  9.000E+00
#rwgt            1           1   3.8591975185857066E-002          10      195173           0
</event>
<event>
      5   9999  3.79277E-02  2.47280E+01 -1.00000E+00  1.59108E-01
      21    -1     0     0   502   501  0.000000000E+00  0.000000000E+00  3.770240756E+02  3.770240756E+02  0.000000000E+00  0.00000E+00  9.000E+00
      21    -1     0     0   512   502  0.000000000E+00  0.000000000E+00 -2.325354735E+02  2.325354735E+02  0.000000000E+00  0.00000E+00  9.000E+00
      25     1     1     2     0     0 -1.385732104E+02 -1.383808140E+01  6.904512130E+01  1.994649240E+02  1.250000000E+02  0.00000E+00  9.000E+00
      25     1     1     2     0     0  1.442128422E+02  3.791439913E+01  2.023960864E+02  2.807561599E+02  1.250000000E+02  0.00000E+00  9.000E+00
      21     1     1     2   512   501 -5.639631798E+00 -2.407631774E+01 -1.269526056E+02  1.293384653E+02  1.907348633E-06  0.00000E+00  9.000E+00
#rwgt            1           1   3.3225390686249953E-002          10      195294           0
</event>
<event>
      5   9999  3.79277E-02  2.61926E+02 -1.00000E+00  1.07543E-01
      21    -1     0     0   502   501  0.000000000E+00  0.000000000E+00  1.417572731E+03  1.417572731E+03  0.000000000E+00  0.00000E+00  9.000E+00
      21    -1     0     0   511   502  0.000000000E+00  0.000000000E+00 -5.496745797E+02  5.496745797E+02  0.000000000E+00  0.00000E+00  9.000E+00
      25     1     1     2     0     0 -6.840997292E+01  3.499899939E+02  1.833477841E+02  4.200170594E+02  1.250000000E+02  0.00000E+00  9.000E+00
      25     1     1     2     0     0  5.316728260E+01 -8.850764396E+01  1.069446350E+03  1.081665780E+03  1.250000000E+02  0.00000E+00  9.000E+00
      21     1     1     2   511   501  1.524269032E+01 -2.614823500E+02 -3.848959833E+02  4.655644713E+02  1.078959322E-05  0.00000E+00  9.000E+00
#rwgt            2          11   2.1882784513611126E-003          10      195499           0
</event>
<event>
      5   9999  3.79277E-02  1.68503E+01 -1.00000E+00  1.72753E-01
      21    -1     0     0   512   501  0.000000000E+00  0.000000000E+00  5.015025054E+02  5.015025054E+02  0.000000000E+00  0.00000E+00  9.000E+00
      21    -1     0     0   501   502  0.000000000E+00  0.000000000E+00 -1.158626241E+02  1.158626241E+02  0.000000000E+00  0.00000E+00  9.000E+00
      25     1     1     2     0     0 -1.176905934E+02  1.556585981E+02  2.650800472E+02  3.520981488E+02  1.250000000E+02  0.00000E+00  9.000E+00
      25     1     1     2     0     0  1.048858770E+02 -1.447053815E+02  1.039318621E+02  2.415937222E+02  1.250000000E+02  0.00000E+00  9.000E+00
      21     1     1     2   512   502  1.280471638E+01 -1.095321661E+01  1.662797205E+01  2.367325855E+01  2.384185791E-07  0.00000E+00  9.000E+00
#rwgt            1           1   4.4171774775983011E-002          10      195594           0
</event>
<event>
      5   9999  3.79277E-02  1.39783E+01 -1.00000E+00  1.80319E-01
      21    -1     0     0   502   501  0.000000000E+00  0.000000000E+00  1.839558484E+02  1.839558484E+02  0.000000000E+00  0.00000E+00  9.000E+00
      21    -1     0     0   511   502  0.000000000E+00  0.000000000E+00 -2.091033211E+02  2.091033211E+02  0.000000000E+00  0.00000E+00  9.000E+00
      25     1     1     2     0     0 -5.641895068E+01 -4.667167794E+00 -1.114462096E+02  1.767770859E+02  1.250000000E+02  0.00000E+00  9.000E+00
      25     1     1     2     0     0  6.497463504E+01 -6.386898394E+00  1.165535935E+02  1.829541905E+02  1.250000000E+02  0.00000E+00  9.000E+00
      21     1     1     2   511   501 -8.555684359E+00  1.105406619E+01 -3.025485659E+01  3.332789314E+01  3.371747881E-07  0.00000E+00  9.000E+00
#rwgt            1           1   4.2897329750974801E-002          10      195785           0
</event>
<event>
      5   9999  3.79277E-02  5.42950E+01 -1.00000E+00  1.37064E-01
      21    -1     0     0   502   501  0.000000000E+00  0.000000000E+00  9.292450410E+02  9.292450410E+02  0.000000000E+00  0.00000E+00  9.000E+00
      21    -1     0     0   501   512  0.000000000E+00  0.000000000E+00 -2.009715335E+02  2.009715335E+02  0.000000000E+00  0.00000E+00  9.000E+00
      25     1     1     2     0     0 -2.901590758E+02 -9.105648311E+01  6.981042309E+02  7.716593093E+02  1.250000000E+02  0.00000E+00  9.000E+00
      25     1     1     2     0     0  2.366060430E+02  8.211106962E+01  7.314853777E+01  2.893101380E+02  1.250000000E+02  0.00000E+00  9.000E+00
      21     1     1     2   502   512  5.355303277E+01  8.945413488E+00 -4.297926111E+01  6.924712721E+01  9.536743164E-07  0.00000E+00  9.000E+00
#rwgt            1           1   3.5806400189372325E-002          10      195994           0
</event>
<event>
      5   9999  3.79277E-02  6.34548E+02 -1.00000E+00  9.59982E-02
      -4    -1     0     0     0   501  0.000000000E+00  0.000000000E+00  7.272551712E+02  7.272551712E+02  0.000000000E+00  0.00000E+00  9.000E+00
      21    -1     0     0   501   502  0.000000000E+00  0.000000000E+00 -1.019653254E+03  1.019653254E+03  0.000000000E+00  0.00000E+00  9.000E+00
      25     1     1     2     0     0 -3.714927040E+02  3.407211912E+01 -3.286759386E+02  5.126603272E+02  1.250000000E+02  0.00000E+00  9.000E+00
      25     1     1     2     0     0 -1.571186636E+02  3.169566968E+02 -3.316364502E+02  5.007549873E+02  1.250000000E+02  0.00000E+00  9.000E+00
      -4     1     1     2     0   502  5.286113677E+02 -3.510288160E+02  3.679143058E+02  7.334931111E+02  9.344061824E-06  0.00000E+00  9.000E+00
#rwgt            2           2   3.6627618731576756E-006          10      196171           0
</event>
<event>
      5   9999  3.79277E-02  1.37248E+02 -1.00000E+00  1.17944E-01
      21    -1     0     0   502   501  0.000000000E+00  0.000000000E+00  1.084661527E+02  1.084661527E+02  0.000000000E+00  0.00000E+00  9.000E+00
       2    -1     0     0   501     0  0.000000000E+00  0.000000000E+00 -2.830958552E+03  2.830958552E+03  0.000000000E+00  0.00000E+00  9.000E+00
      25     1     1     2     0     0 -1.569712906E+02 -4.611937894E+01 -1.750647245E+02  2.702584707E+02  1.250000000E+02  0.00000E+00  9.000E+00
      25     1     1     2     0     0  2.905943662E+02  1.478572978E+01 -3.683385678E+02  4.857592038E+02  1.250000000E+02  0.00000E+00  9.000E+00
       2     1     1     2   502     0 -1.336230756E+02  3.133364916E+01 -2.179089107E+03  2.183407030E+03  4.315837288E-05  0.00000E+00  9.000E+00
#rwgt            1           1   2.8386097443317951E-002          10      196220           0
</event>
<event>
      5   9999  3.79277E-02  7.30121E+00 -1.00000E+00  2.13000E-01
      21    -1     0     0   502   501  0.000000000E+00  0.000000000E+00  5.497199236E+01  5.497199236E+01  0.000000000E+00  0.00000E+00  9.000E+00
      21    -1     0     0   511   502  0.000000000E+00  0.000000000E+00 -5.428129563E+02  5.428129563E+02  0.000000000E+00  0.00000E+00  9.000E+00
      25     1     1     2     0     0  3.437391310E+01 -1.338204193E+01 -2.114520656E+02  2.483900582E+02  1.250000000E+02  0.00000E+00  9.000E+00
      25     1     1     2     0     0 -3.745297692E+01  2.000224626E+01 -8.315060106E+01  1.560187098E+02  1.250000000E+02  0.00000E+00  9.000E+00
      21     1     1     2   511   501  3.079063827E+00 -6.620204338E+00 -1.932382973E+02  1.933761808E+02  0.000000000E+00  0.00000E+00  9.000E+00
#rwgt            1           1   4.6667528314819691E-002          10      196370           0
</event>
<event>
      5   9999  3.79277E-02  4.03005E+01 -1.00000E+00  1.44639E-01
      21    -1     0     0   502   501  0.000000000E+00  0.000000000E+00  5.978604494E+01  5.978604494E+01  0.000000000E+00  0.00000E+00  9.000E+00
      21    -1     0     0   512   502  0.000000000E+00  0.000000000E+00 -2.302469627E+03  2.302469627E+03  0.000000000E+00  0.00000E+00  9.000E+00
      25     1     1     2     0     0 -1.056225427E+02 -4.168444557E+01 -1.656834941E+02  2.365792356E+02  1.250000000E+02  0.00000E+00  9.000E+00
      25     1     1     2     0     0  9.414515274E+01  8.031600220E+01 -2.966986362E+02  3.449189046E+02  1.250000000E+02  0.00000E+00  9.000E+00
      21     1     1     2   512   501  1.147738997E+01 -3.863155663E+01 -1.780301452E+03  1.780757532E+03  3.737624730E-05  0.00000E+00  9.000E+00
#rwgt            1           1   3.8911610044867991E-002          10      196626           0
</event>
<event>
      5   9999  3.79277E-02  4.17340E+01 -1.00000E+00  1.43706E-01
      21    -1     0     0   511   501  0.000000000E+00  0.000000000E+00  4.310233298E+02  4.310233298E+02  0.000000000E+00  0.00000E+00  9.000E+00
      21    -1     0     0   501   502  0.000000000E+00  0.000000000E+00 -1.474292006E+02  1.474292006E+02  0.000000000E+00  0.00000E+00  9.000E+00
      25     1     1     2     0     0 -7.207638298E+01 -1.071677870E+02  2.622162847E+02  3.179030033E+02  1.250000000E+02  0.00000E+00  9.000E+00
      25     1     1     2     0     0  1.087960521E+02  1.270019418E+02 -8.923422450E+00  2.089753613E+02  1.250000000E+02  0.00000E+00  9.000E+00
      21     1     1     2   511   502 -3.671966909E+01 -1.983415483E+01  3.030126692E+01  5.157416575E+01  3.371747881E-07  0.00000E+00  9.000E+00
#rwgt            1           1   7.4710278975628625E-002          10      196725           0
</event>
<event>
      5   9999  3.79277E-02  1.79193E+02 -1.00000E+00  1.13413E-01
      21    -1     0     0   502   501  0.000000000E+00  0.000000000E+00  9.715116537E+02  9.715116537E+02  0.000000000E+00  0.00000E+00  9.000E+00
      21    -1     0     0   501   512  0.000000000E+00  0.000000000E+00 -1.115420507E+03  1.115420507E+03  0.000000000E+00  0.00000E+00  9.000E+00
      25     1     1     2     0     0  3.435205906E+02  4.084257848E+01  4.517971636E+02  5.825977939E+02  1.250000000E+02  0.00000E+00  9.000E+00
      25     1     1     2     0     0 -3.450263656E+02 -2.200288056E+02  3.431801439E+02  5.485011207E+02  1.250000000E+02  0.00000E+00  9.000E+00
      21     1     1     2   502   512  1.505775038E+00  1.791862271E+02 -9.388861613E+02  9.558332466E+02  0.000000000E+00  0.00000E+00  9.000E+00
#rwgt            1           1   2.3195841391685314E-002          10      196860           0
</event>
<event>
      5   9999  3.79277E-02  7.54101E+01 -1.00000E+00  1.29604E-01
      21    -1     0     0   502   501  0.000000000E+00  0.000000000E+00  7.037442423E+02  7.037442423E+02  0.000000000E+00  0.00000E+00  9.000E+00
      21    -1     0     0   511   502  0.000000000E+00  0.000000000E+00 -1.004892695E+02  1.004892695E+02  0.000000000E+00  0.00000E+00  9.000E+00
      25     1     1     2     0     0  9.422510123E+01 -7.171993051E+01  2.825462602E+02  3.308768763E+02  1.250000000E+02  0.00000E+00  9.000E+00
      25     1     1     2     0     0 -1.050051094E+02 -2.915683223E+00  3.548238675E+02  3.905887238E+02  1.250000000E+02  0.00000E+00  9.000E+00
      21     1     1     2   511   501  1.078000817E+01  7.463561373E+01 -3.411515495E+01  8.276791172E+01  1.784161275E-06  0.00000E+00  9.000E+00
#rwgt            1           1   9.7989650674838488E-002          10      196924           0
</event>
<event>
      5   9999  3.79277E-02  2.60304E+01 -1.00000E+00  1.57448E-01
      21    -1     0     0   502   501  0.000000000E+00  0.000000000E+00  9.633135077E+02  9.633135077E+02  0.000000000E+00  0.00000E+00  9.000E+00
      21    -1     0     0   501   512  0.000000000E+00  0.000000000E+00 -5.195356404E+01  5.195356404E+01  0.000000000E+00  0.00000E+00  9.000E+00
      25     1     1     2     0     0 -3.279150467E+01 -3.939777295E+01  6.308447359E+01  1.491043866E+02  1.250000000E+02  0.00000E+00  9.000E+00
      25     1     1     2     0     0  1.474141631E+01  2.064204821E+01  8.093305525E+02  8.193194412E+02  1.250000000E+02  0.00000E+00  9.000E+00
      21     1     1     2   502   512  1.805008837E+01  1.875572474E+01  3.894491764E+01  4.684324402E+01  9.536743164E-07  0.00000E+00  9.000E+00
#rwgt            1           1   3.7043234017125663E-002          10      197002           0
</event>
<event>
      5   9999  3.79277E-02  3.04270E+01 -1.00000E+00  1.52615E-01
      21    -1     0     0   502   511  0.000000000E+00  0.000000000E+00  2.334608059E+02  2.334608059E+02  0.000000000E+00  0.00000E+00  9.000E+00
      21    -1     0     0   501   502  0.000000000E+00  0.000000000E+00 -2.601852268E+02  2.601852268E+02  0.000000000E+00  0.00000E+00  9.000E+00
      25     1     1     2     0     0 -4.751596560E+01  3.557839457E+01  1.302424733E+02  1.900307633E+02  1.250000000E+02  0.00000E+00  9.000E+00
      25     1     1     2     0     0  4.917312784E+01 -6.596020939E+01 -2.006941702E+02  2.503435553E+02  1.250000000E+02  0.00000E+00  9.000E+00
      21     1     1     2   501   511 -1.657162241E+00  3.038181481E+01  4.372727599E+01  5.327171410E+01  9.536743164E-07  0.00000E+00  9.000E+00
#rwgt            1           1   4.6251437345630454E-002          10      197200           0
</event>
<event>
      5   9999  3.79277E-02  1.90796E+01 -1.00000E+00  1.68075E-01
       2    -1     0     0   502     0  0.000000000E+00  0.000000000E+00  4.378550858E+02  4.378550858E+02  0.000000000E+00  0.00000E+00  9.000E+00
      21    -1     0     0   501   502  0.000000000E+00  0.000000000E+00 -3.268445729E+02  3.268445729E+02  0.000000000E+00  0.00000E+00  9.000E+00
      25     1     1     2     0     0 -2.003157366E+02  5.975729324E+01 -1.860827768E+02  3.065112204E+02  1.250000000E+02  0.00000E+00  9.000E+00
      25     1     1     2     0     0  1.872024535E+02 -7.361633857E+01  9.496502385E+01  2.551616736E+02  1.250000000E+02  0.00000E+00  9.000E+00
       2     1     1     2   501     0  1.311328305E+01  1.385904533E+01  2.021282658E+02  2.030267647E+02  3.814697266E-06  0.00000E+00  9.000E+00
#rwgt            1           1   3.4400517404989922E-002          10      197531           0
</event>
<event>
      5   9999  3.79277E-02  2.55200E+02 -1.00000E+00  1.07926E-01
      21    -1     0     0   502   501  0.000000000E+00  0.000000000E+00  1.143316779E+02  1.143316779E+02  0.000000000E+00  0.00000E+00  9.000E+00
      21    -1     0     0   501   511  0.000000000E+00  0.000000000E+00 -1.608778978E+03  1.608778978E+03  0.000000000E+00  0.00000E+00  9.000E+00
      25     1     1     2     0     0  2.122579156E+02 -1.058336102E+02 -7.021106912E+02  7.515574486E+02  1.250000000E+02  0.00000E+00  9.000E+00
      25     1     1     2     0     0 -1.556747098E+01  2.684370553E+02 -3.314568707E+02  4.447352650E+02  1.250000000E+02  0.00000E+00  9.000E+00
      21     1     1     2   502   511 -1.966904446E+02 -1.626034451E+02 -4.608797383E+02  5.268179425E+02  5.394796609E-06  0.00000E+00  9.000E+00
#rwgt            1           1   3.8745971491131473E-002          10      197770           0
</event>
<event>
      5   9999  3.79277E-02  8.27038E+00 -1.00000E+00  2.05801E-01
      21    -1     0     0   502   512  0.000000000E+00  0.000000000E+00  4.904875615E+02  4.904875615E+02  0.000000000E+00  0.00000E+00  9.000E+00
      21    -1     0     0   501   502  0.000000000E+00  0.000000000E+00 -2.819048470E+02  2.819048470E+02  0.000000000E+00  0.00000E+00  9.000E+00
      25     1     1     2     0     0 -2.532194907E+01 -2.270959240E+02 -4.884110134E+01  2.649985151E+02  1.250000000E+02  0.00000E+00  9.000E+00
      25     1     1     2     0     0  2.176824038E+01  2.345638786E+02  1.742246999E+01  2.672500924E+02  1.250000000E+02  0.00000E+00  9.000E+00
      21     1     1     2   501   512  3.553708692E+00 -7.467954557E+00  2.400013458E+02  2.401438011E+02  0.000000000E+00  0.00000E+00  9.000E+00
#rwgt            1           1   4.5023463649276889E-002          10      197838           0
</event>
<event>
      5   9999  3.79277E-02  2.05275E+02 -1.00000E+00  1.11238E-01
      21    -1     0     0   502   511  0.000000000E+00  0.000000000E+00  3.602779313E+02  3.602779313E+02  0.000000000E+00  0.00000E+00  9.000E+00
      21    -1     0     0   501   502  0.000000000E+00  0.000000000E+00 -4.351704357E+02  4.351704357E+02  0.000000000E+00  0.00000E+00  9.000E+00
      25     1     1     2     0     0 -9.381868041E+01 -8.710829188E+01 -2.261097424E+02  2.883407965E+02  1.250000000E+02  0.00000E+00  9.000E+00
      25     1     1     2     0     0  2.309052207E+02 -6.568210618E+01  1.314276547E+02  3.008813528E+02  1.250000000E+02  0.00000E+00  9.000E+00
      21     1     1     2   501   511 -1.370865403E+02  1.527903981E+02  1.978958331E+01  2.062262177E+02  4.492150231E-06  0.00000E+00  9.000E+00
#rwgt            2          11   2.3357733460546378E-003          10      198089           0
</event>
<event>
      5   9999  3.79277E-02  8.07830E+01 -1.00000E+00  1.28145E-01
      21    -1     0     0   502   512  0.000000000E+00  0.000000000E+00  1.377324043E+02  1.377324043E+02  0.000000000E+00  0.00000E+00  9.000E+00
      21    -1     0     0   501   502  0.000000000E+00  0.000000000E+00 -4.754761425E+02  4.754761425E+02  0.000000000E+00  0.00000E+00  9.000E+00
      25     1     1     2     0     0 -1.444018169E+02 -3.192661367E+01 -4.099533856E+01  1.979313294E+02  1.250000000E+02  0.00000E+00  9.000E+00
      25     1     1     2     0     0  6.531643849E+01  1.545270552E+01 -3.026735213E+02  3.342772558E+02  1.250000000E+02  0.00000E+00  9.000E+00
      21     1     1     2   501   512  7.908537837E+01  1.647390815E+01  5.925121632E+00  8.099996165E+01  1.656108378E-06  0.00000E+00  9.000E+00
#rwgt            1           1   3.0081056500705056E-002          10      198169           0
</event>
<event>
      5   9999  3.79277E-02  5.09839E+01 -1.00000E+00  1.38594E-01
      21    -1     0     0   502   511  0.000000000E+00  0.000000000E+00  2.571469362E+02  2.571469362E+02  0.000000000E+00  0.00000E+00  9.000E+00
      21    -1     0     0   501   502  0.000000000E+00  0.000000000E+00 -3.535335612E+02  3.535335612E+02  0.000000000E+00  0.00000E+00  9.000E+00
      25     1     1     2     0     0 -2.100813702E+02  4.241054564E+01  1.645863493E+00  2.481139765E+02  1.250000000E+02  0.00000E+00  9.000E+00
      25     1     1     2     0     0  2.590109508E+02 -2.808399707E+01 -1.116684922E+02  3.097906320E+02  1.250000000E+02  0.00000E+00  9.000E+00
      21     1     1     2   501   511 -4.892958060E+01 -1.432654857E+01  1.363600366E+01  5.277588888E+01  1.203954809E-06  0.00000E+00  9.000E+00
#rwgt            1           1   2.8226776919923955E-002          10      198290           0
</event>
<event>
      5   9999  3.79277E-02  4.76751E+01 -1.00000E+00  1.40266E-01
      21    -1     0     0   502   501  0.000000000E+00  0.000000000E+00  5.028622731E+02  5.028622731E+02  0.000000000E+00  0.00000E+00  9.000E+00
      21    -1     0     0   501   512  0.000000000E+00  0.000000000E+00 -1.195583743E+02  1.195583743E+02  0.000000000E+00  0.00000E+00  9.000E+00
      25     1     1     2     0     0  9.420679518E+01 -8.462588335E+01  1.516470714E+02  2.337911347E+02  1.250000000E+02  0.00000E+00  9.000E+00
      25     1     1     2     0     0 -5.738099526E+01  5.434756620E+01  2.825380576E+02  3.189027917E+02  1.250000000E+02  0.00000E+00  9.000E+00
      21     1     1     2   502   512 -3.682579993E+01  3.027831715E+01 -5.088123028E+01  6.972672102E+01  6.743495762E-07  0.00000E+00  9.000E+00
#rwgt            1           1   2.5935396090468923E-002          10      198499           0
</event>
<event>
      5   9999  3.79277E-02  1.17253E+02 -1.00000E+00  1.20797E-01
      21    -1     0     0   502   501  0.000000000E+00  0.000000000E+00  4.374926377E+02  4.374926377E+02  0.000000000E+00  0.00000E+00  9.000E+00
      21    -1     0     0   511   502  0.000000000E+00  0.000000000E+00 -3.245951415E+02  3.245951415E+02  0.000000000E+00  0.00000E+00  9.000E+00
      25     1     1     2     0     0 -9.033741497E+01  2.653613363E+02 -4.598803472E+01  3.103504256E+02  1.250000000E+02  0.00000E+00  9.000E+00
      25     1     1     2     0     0  1.641824748E+02 -1.742830244E+02  1.902286716E+02  3.303670763E+02  1.250000000E+02  0.00000E+00  9.000E+00
      21     1     1     2   511   501 -7.384505980E+01 -9.107831189E+01 -3.134314072E+01  1.213702774E+02  3.371747881E-07  0.00000E+00  9.000E+00
#rwgt            1           1  0.11189167131007309               10      198602           0
</event>
<event>
      5   9999  3.79277E-02  7.21837E+01 -1.00000E+00  1.30549E-01
      21    -1     0     0   502   501  0.000000000E+00  0.000000000E+00  1.150022959E+03  1.150022959E+03  0.000000000E+00  0.00000E+00  9.000E+00
      21    -1     0     0   512   502  0.000000000E+00  0.000000000E+00 -1.109462074E+02  1.109462074E+02  0.000000000E+00  0.00000E+00  9.000E+00
      25     1     1     2     0     0 -2.020692581E+02 -2.138793418E+02  6.122062105E+02  6.906502748E+02  1.250000000E+02  0.00000E+00  9.000E+00
      25     1     1     2     0     0  1.343295392E+02  2.388155656E+02  3.772673467E+02  4.827348655E+02  1.250000000E+02  0.00000E+00  9.000E+00
      21     1     1     2   512   501  6.773971890E+01 -2.493622374E+01  4.960319473E+01  8.758402650E+01  1.168007728E-06  0.00000E+00  9.000E+00
#rwgt            1           1   3.0691201019461937E-002          10      198773           0
</event>
<event>
      5   9999  3.79277E-02  2.08208E+02 -1.00000E+00  1.11016E-01
      21    -1     0     0   502   501  0.000000000E+00  0.000000000E+00  1.159154037E+02  1.159154037E+02  0.000000000E+00  0.00000E+00  9.000E+00
       2    -1     0     0   501     0  0.000000000E+00  0.000000000E+00 -3.069379176E+03  3.069379176E+03  0.000000000E+00  0.00000E+00  9.000E+00
      25     1     1     2     0     0 -1.070737173E+02 -1.866493867E+01  1.644811807E+01  1.664593087E+02  1.250000000E+02  0.00000E+00  9.000E+00
      25     1     1     2     0     0 -9.583622571E+01  6.533315887E+01 -3.368334777E+02  3.775378067E+02  1.250000000E+02  0.00000E+00  9.000E+00
       2     1     1     2   502     0  2.029099430E+02 -4.666822020E+01 -2.633078413E+03  2.641297464E+03  5.285799584E-05  0.00000E+00  9.000E+00
#rwgt            1           1   5.9152211448644153E-002          10      198993           0
</event>
<event>
      5   9999  3.79277E-02  8.53732E+01 -1.00000E+00  1.26998E-01
      21    -1     0     0   502   511  0.000000000E+00  0.000000000E+00  2.279379481E+02  2.279379481E+02  0.000000000E+00  0.00000E+00  9.000E+00
      21    -1     0     0   501   502  0.000000000E+00  0.000000000E+00 -5.331821641E+02  5.331821641E+02  0.000000000E+00  0.00000E+00  9.000E+00
      25     1     1     2     0     0 -1.808109151E+02 -2.141281558E+01 -3.037919488E+02  3.755870656E+02  1.250000000E+02  0.00000E+00  9.000E+00
      25     1     1     2     0     0  2.623856428E+02  4.659508136E+01 -2.912218956E+01  2.957878109E+02  1.250000000E+02  0.00000E+00  9.000E+00
      21     1     1     2   501   511 -8.157472775E+01 -2.518226579E+01  2.766992233E+01  8.974523563E+01  1.877309769E-06  0.00000E+00  9.000E+00
#rwgt            1           1   4.5080434956979172E-002          10      199059           0
</event>
<event>
      5   9999  3.79277E-02  1.92026E+01 -1.00000E+00  1.67840E-01
      -1    -1     0     0     0   501  0.000000000E+00  0.000000000E+00  1.512962135E+02  1.512962135E+02  0.000000000E+00  0.00000E+00  9.000E+00
      21    -1     0     0   501   502  0.000000000E+00  0.000000000E+00 -3.485625620E+02  3.485625620E+02  0.000000000E+00  0.00000E+00  9.000E+00
      25     1     1     2     0     0 -2.113764195E+01 -1.358330529E+02 -3.780194094E+01  1.896085571E+02  1.250000000E+02  0.00000E+00  9.000E+00
      25     1     1     2     0     0  2.919003567E+01  1.184004129E+02 -1.999312082E+02  2.654584788E+02  1.250000000E+02  0.00000E+00  9.000E+00
      -1     1     1     2     0   502 -8.052393722E+00  1.743264005E+01  4.046680062E+01  4.479173959E+01  8.259061849E-07  0.00000E+00  9.000E+00
#rwgt            1           1  0.12814399538900118               10      199261           0
</event>
<event>
      5   9999  3.79277E-02  5.24627E+01 -1.00000E+00  1.37895E-01
      21    -1     0     0   511   501  0.000000000E+00  0.000000000E+00  2.592440669E+02  2.592440669E+02  0.000000000E+00  0.00000E+00  9.000E+00
      21    -1     0     0   501   502  0.000000000E+00  0.000000000E+00 -1.617896731E+02  1.617896731E+02  0.000000000E+00  0.00000E+00  9.000E+00
      25     1     1     2     0     0  9.036645552E+01 -2.001753491E+01  1.324690120E+01  1.561002190E+02  1.250000000E+02  0.00000E+00  9.000E+00
      25     1     1     2     0     0 -9.222036857E+01  7.244743896E+01  6.943238843E+00  1.715413547E+02  1.250000000E+02  0.00000E+00  9.000E+00
      21     1     1     2   511   502  1.853913050E+00 -5.242990405E+01  7.726425377E+01  9.339216639E+01  1.651812370E-06  0.00000E+00  9.000E+00
#rwgt            1           1   2.7140708522501028E-002          10      199436           0
</event>
<event>
      5   9999  3.79277E-02  8.02824E+01 -1.00000E+00  1.28275E-01
      21    -1     0     0   502   512  0.000000000E+00  0.000000000E+00  6.586704697E+02  6.586704697E+02  0.000000000E+00  0.00000E+00  9.000E+00
      21    -1     0     0   501   502  0.000000000E+00  0.000000000E+00 -2.146027717E+02  2.146027717E+02  0.000000000E+00  0.00000E+00  9.000E+00
      25     1     1     2     0     0 -1.072610536E+02  2.378059689E+00 -8.108932180E+01  1.836057377E+02  1.250000000E+02  0.00000E+00  9.000E+00
      25     1     1     2     0     0  8.999448978E+01 -8.078168710E+01  1.649037872E+01  1.747043839E+02  1.250000000E+02  0.00000E+00  9.000E+00
      21     1     1     2   501   512  1.726656387E+01  7.840362741E+01  5.086666411E+02  5.149631198E+02  7.629394531E-06  0.00000E+00  9.000E+00
#rwgt            1           1   1.8757423699738651E-002          10      199601           0
</event>
<event>
      5   9999  3.79277E-02  5.91294E+01 -1.00000E+00  1.35043E-01
      21    -1     0     0   502   511  0.000000000E+00  0.000000000E+00  7.982241808E+02  7.982241808E+02  0.000000000E+00  0.00000E+00  9.000E+00
      21    -1     0     0   501   502  0.000000000E+00  0.000000000E+00 -7.929290139E+01  7.929290139E+01  0.000000000E+00  0.00000E+00  9.000E+00
      25     1     1     2     0     0 -2.114079564E+01 -1.673206269E+00 -6.432843304E-01  1.267878018E+02  1.250000000E+02  0.00000E+00  9.000E+00
      25     1     1     2     0     0 -3.090089452E+01 -2.639725131E+01  6.288290204E+02  6.424193467E+02  1.250000000E+02  0.00000E+00  9.000E+00
      21     1     1     2   501   511  5.204169016E+01  2.807045758E+01  9.074554340E+01  1.083099338E+02  1.907348633E-06  0.00000E+00  9.000E+00
#rwgt            1           1   3.4930819531743096E-002          10      199684           0
</event>
<event>
      5   9999  3.79277E-02  1.13771E+01 -1.00000E+00  1.89495E-01
      21    -1     0     0   512   501  0.000000000E+00  0.000000000E+00  1.778079885E+02  1.778079885E+02  0.000000000E+00  0.00000E+00  9.000E+00
      21    -1     0     0   501   502  0.000000000E+00  0.000000000E+00 -5.620188935E+02  5.620188935E+02  0.000000000E+00  0.00000E+00  9.000E+00
      25     1     1     2     0     0  1.427514187E+02 -1.716891191E+02  4.719189296E+00  2.559343508E+02  1.250000000E+02  0.00000E+00  9.000E+00
      25     1     1     2     0     0 -1.413815186E+02  1.829834323E+02 -3.921215928E+02  4.720762797E+02  1.250000000E+02  0.00000E+00  9.000E+00
      21     1     1     2   512   502 -1.369900178E+00 -1.129431324E+01  3.191498442E+00  1.181625154E+01  1.931411236E-07  0.00000E+00  9.000E+00
#rwgt            1           1   1.8431491195467088E-002          10      199874           0
</event>
<event>
      5   9999  3.79277E-02  1.64164E+02 -1.00000E+00  1.14861E-01
       2    -1     0     0   502     0  0.000000000E+00  0.000000000E+00  2.357756379E+03  2.357756379E+03  0.000000000E+00  0.00000E+00  9.000E+00
      21    -1     0     0   501   502  0.000000000E+00  0.000000000E+00 -1.189788694E+02  1.189788694E+02  0.000000000E+00  0.00000E+00  9.000E+00
      25     1     1     2     0     0 -2.579814346E+01  1.383515807E+02  4.720998953E+02  5.082420833E+02  1.250000000E+02  0.00000E+00  9.000E+00
      25     1     1     2     0     0 -1.136464350E+02 -5.171999231E+01 -1.680012091E+01  1.774759529E+02  1.250000000E+02  0.00000E+00  9.000E+00
       2     1     1     2   501     0  1.394445785E+02 -8.663158842E+01  1.783477735E+03  1.791017212E+03  3.051757812E-05  0.00000E+00  9.000E+00
#rwgt            1           1   3.0668390003004097E-002          10      200241           0
</event>
<event>
      5   9999  3.79277E-02  5.02940E+01 -1.00000E+00  1.38930E-01
      21    -1     0     0   502   501  0.000000000E+00  0.000000000E+00  8.546546595E+02  8.546546595E+02  0.000000000E+00  0.00000E+00  9.000E+00
      21    -1     0     0   511   502  0.000000000E+00  0.000000000E+00 -1.250349134E+02  1.250349134E+02  0.000000000E+00  0.00000E+00  9.000E+00
      25     1     1     2     0     0  1.276881539E+02  1.740016291E+02  5.081059743E+02  5.660190038E+02  1.250000000E+02  0.00000E+00  9.000E+00
      25     1     1     2     0     0 -1.167956350E+02 -2.231018996E+02  2.292794801E+02  3.627805920E+02  1.250000000E+02  0.00000E+00  9.000E+00
      21     1     1     2   511   501 -1.089251884E+01  4.910027053E+01 -7.765708279E+00  5.088997699E+01  3.576278687E-07  0.00000E+00  9.000E+00
#rwgt            1           1   4.5794093953411052E-002          10      200372           0
</event>
<event>
      5   9999  3.79277E-02  8.66909E+01 -1.00000E+00  1.26683E-01
      21    -1     0     0   502   501  0.000000000E+00  0.000000000E+00  1.434859352E+03  1.434859352E+03  0.000000000E+00  0.00000E+00  9.000E+00
      21    -1     0     0   501   512  0.000000000E+00  0.000000000E+00 -4.635000279E+01  4.635000279E+01  0.000000000E+00  0.00000E+00  9.000E+00
      25     1     1     2     0     0  6.178992773E+00  1.225889372E+02  5.949732859E+02  6.202293434E+02  1.250000000E+02  0.00000E+00  9.000E+00
      25     1     1     2     0     0  3.723519518E+01 -1.976257631E+02  6.653838784E+02  7.062599434E+02  1.250000000E+02  0.00000E+00  9.000E+00
      21     1     1     2   502   512 -4.341418795E+01  7.503682581E+01  1.281521848E+02  1.547200679E+02  0.000000000E+00  0.00000E+00  9.000E+00
#rwgt            1           1   1.3464199067815258E-002          10      200464           0
</event>
<event>
      5   9999  3.79277E-02  4.97478E+01 -1.00000E+00  1.39201E-01
      21    -1     0     0   511   501  0.000000000E+00  0.000000000E+00  1.624914589E+03  1.624914589E+03  0.000000000E+00  0.00000E+00  9.000E+00
      21    -1     0     0   501   502  0.000000000E+00  0.000000000E+00 -3.543234646E+01  3.543234646E+01  0.000000000E+00  0.00000E+00  9.000E+00
      25     1     1     2     0     0  3.258627970E+01 -1.387843191E+02  3.159183706E+02  3.684458844E+02  1.250000000E+02  0.00000E+00  9.000E+00
      25     1     1     2     0     0 -5.659696420E+01  9.521445828E+01  9.618973818E+02  9.762891900E+02  1.250000000E+02  0.00000E+00  9.000E+00
      21     1     1     2   511   502  2.401068449E+01  4.356986086E+01  3.116664906E+02  3.156118615E+02  3.814697266E-06  0.00000E+00  9.000E+00
#rwgt            1           1   3.0765590527528780E-002          10      200549           0
</event>
<event>
      5   9999  3.79277E-02  2.23882E+01 -1.00000E+00  1.62426E-01
      21    -1     0     0   502   512  0.000000000E+00  0.000000000E+00  3.458430079E+01  3.458430079E+01  0.000000000E+00  0.00000E+00  9.000E+00
      21    -1     0     0   501   502  0.000000000E+00  0.000000000E+00 -1.642564667E+03  1.642564667E+03  0.000000000E+00  0.00000E+00  9.000E+00
      25     1     1     2     0     0 -1.564646553E+01  3.046310649E+01 -1.220027935E+02  1.779957706E+02  1.250000000E+02  0.00000E+00  9.000E+00
      25     1     1     2     0     0  9.795680808E+00 -8.852914325E+00 -1.457589577E+03  1.462999216E+03  1.250000000E+02  0.00000E+00  9.000E+00
      21     1     1     2   501   512  5.850784722E+00 -2.161019216E+01 -2.838799539E+01  3.615398137E+01  4.768371582E-07  0.00000E+00  9.000E+00
#rwgt            1           1   4.0260574466975924E-002          10      200762           0
</event>
<event>
      5   9999  3.79277E-02  1.26780E+02 -1.00000E+00  1.19364E-01
       3    -1     0     0   502     0  0.000000000E+00  0.000000000E+00  2.172636074E+03  2.172636074E+03  0.000000000E+00  0.00000E+00  9.000E+00
      21    -1     0     0   501   502  0.000000000E+00  0.000000000E+00 -4.016448799E+01  4.016448799E+01  0.000000000E+00  0.00000E+00  9.000E+00
      25     1     1     2     0     0  1.170503250E+02  7.762648317E+01  6.397399551E+02  6.667974652E+02  1.250000000E+02  0.00000E+00  9.000E+00
      25     1     1     2     0     0 -1.855890071E+02  2.903012826E+01  5.454731235E+02  5.902981928E+02  1.250000000E+02  0.00000E+00  9.000E+00
       3     1     1     2   501     0  6.853868214E+01 -1.066566114E+02  9.472585071E+02  9.557049037E+02  1.078959322E-05  0.00000E+00  9.000E+00
#rwgt            1           1   4.3339026710038725E-002          10      200956           0
</event>
<event>
      5   9999  3.79277E-02  9.17485E+01 -1.00000E+00  1.25534E-01
      21    -1     0     0   511   501  0.000000000E+00  0.000000000E+00  5.083777073E+02  5.083777073E+02  0.000000000E+00  0.00000E+00  9.000E+00
      21    -1     0     0   501   502  0.000000000E+00  0.000000000E+00 -9.237315791E+02  9.237315791E+02  0.000000000E+00  0.00000E+00  9.000E+00
      25     1     1     2     0     0  2.029097680E+02 -8.552494555E+01 -7.359239586E+02  7.782647128E+02  1.250000000E+02  0.00000E+00  9.000E+00
      25     1     1     2     0     0 -1.653770325E+02  1.804691580E+00 -9.516199246E+01  2.281087999E+02  1.250000000E+02  0.00000E+00  9.000E+00
      21     1     1     2   511   502 -3.753273552E+01  8.372025397E+01  4.157320793E+02  4.257357736E+02  5.394796609E-06  0.00000E+00  9.000E+00
#rwgt            1           1   3.6931885821837956E-002          10      201013           0
</event>
<event>
      5   9999  3.79277E-02  5.67386E+01 -1.00000E+00  1.36013E-01
      21    -1     0     0   502   501  0.000000000E+00  0.000000000E+00  1.670720835E+02  1.670720835E+02  0.000000000E+00  0.00000E+00  9.000E+00
      21    -1     0     0   512   502  0.000000000E+00  0.000000000E+00 -3.470595411E+03  3.470595411E+03  0.000000000E+00  0.00000E+00  9.000E+00
      25     1     1     2     0     0  6.034011988E+01 -8.651979757E+01  3.024704238E+01  1.663324653E+02  1.250000000E+02  0.00000E+00  9.000E+00
      25     1     1     2     0     0 -1.013365901E+02  1.257442360E+02 -8.359879864E+01  2.206682499E+02  1.250000000E+02  0.00000E+00  9.000E+00
      21     1     1     2   512   501  4.099647025E+01 -3.922443843E+01 -3.250171571E+03  3.250666779E+03  0.000000000E+00  0.00000E+00  9.000E+00
#rwgt            1           1   3.0712132567687535E-002          10      201093           0
</event>
<event>
      5   9999  3.79277E-02  5.69777E+01 -1.00000E+00  1.35914E-01
      21    -1     0     0   502   501  0.000000000E+00  0.000000000E+00  9.935919510E+01  9.935919510E+01  0.000000000E+00  0.00000E+00  9.000E+00
      -3    -1     0     0     0   502  0.000000000E+00  0.000000000E+00 -9.926477903E+02  9.926477903E+02  0.000000000E+00  0.00000E+00  9.000E+00
      25     1     1     2     0     0  8.685575761E+01 -3.954342532E+01 -2.009352562E+02  2.551618747E+02  1.250000000E+02  0.00000E+00  9.000E+00
      25     1     1     2     0     0 -1.408454578E+02  5.775244642E+01 -6.574855787E+01  2.076551490E+02  1.250000000E+02  0.00000E+00  9.000E+00
      -3     1     1     2     0   501  5.398970017E+01 -1.820902111E+01 -6.266047811E+02  6.291899617E+02  0.000000000E+00  0.00000E+00  9.000E+00
#rwgt            1           1   3.6086435627544509E-002          10      201145           0
</event>
<event>
      5   9999  3.79277E-02  3.56686E+01 -1.00000E+00  1.47996E-01
      21    -1     0     0   502   501  0.000000000E+00  0.000000000E+00  1.910312014E+01  1.910312014E+01  0.000000000E+00  0.00000E+00  9.000E+00
      21    -1     0     0   501   511  0.000000000E+00  0.000000000E+00 -2.503537515E+03  2.503537515E+03  0.000000000E+00  0.00000E+00  9.000E+00
      25     1     1     2     0     0 -2.540859447E+01 -1.127091697E+02 -1.261595605E+03  1.273026875E+03  1.250000000E+02  0.00000E+00  9.000E+00
      25     1     1     2     0     0  6.107456357E+01  1.131435524E+02 -6.119051413E+02  6.376397633E+02  1.250000000E+02  0.00000E+00  9.000E+00
      21     1     1     2   502   511 -3.566596910E+01 -4.343826556E-01 -6.109336488E+02  6.119739972E+02  0.000000000E+00  0.00000E+00  9.000E+00
#rwgt            1           1  0.12540259268610904               10      201238           0
</event>
<event>
      5   9999  3.79277E-02  2.58851E+01 -1.00000E+00  1.57627E-01
      21    -1     0     0   502   501  0.000000000E+00  0.000000000E+00  8.417836826E+02  8.417836826E+02  0.000000000E+00  0.00000E+00  9.000E+00
      21    -1     0     0   501   512  0.000000000E+00  0.000000000E+00 -2.789849388E+02  2.789849388E+02  0.000000000E+00  0.00000E+00  9.000E+00
      25     1     1     2     0     0 -8.601636298E+01  9.670815185E+00  4.460852357E+02  4.712848150E+02  1.250000000E+02  0.00000E+00  9.000E+00
      25     1     1     2     0     0  9.190980823E+01 -3.487606325E+01  3.658965285E+02  3.989599255E+02  1.250000000E+02  0.00000E+00  9.000E+00
      21     1     1     2   502   512 -5.893445254E+00  2.520524806E+01 -2.491830203E+02  2.505238808E+02  0.000000000E+00  0.00000E+00  9.000E+00
#rwgt            1           1   4.7886346266492220E-002          10      201396           0
</event>
<event>
      5   9999  3.79277E-02  1.47711E+02 -1.00000E+00  1.16659E-01
      21    -1     0     0   502   501  0.000000000E+00  0.000000000E+00  2.497047756E+02  2.497047756E+02  0.000000000E+00  0.00000E+00  9.000E+00
       2    -1     0     0   501     0  0.000000000E+00  0.000000000E+00 -2.443275704E+03  2.443275704E+03  0.000000000E+00  0.00000E+00  9.000E+00
      25     1     1     2     0     0  2.051380108E+02 -7.066669943E+00 -5.040523626E+02  5.584132211E+02  1.250000000E+02  0.00000E+00  9.000E+00
      25     1     1     2     0     0 -2.197915358E+02  1.540488841E+02  1.196754269E+02  3.193533868E+02  1.250000000E+02  0.00000E+00  9.000E+00
       2     1     1     2   502     0  1.465352504E+01 -1.469822141E+02 -1.809193992E+03  1.815213871E+03  3.051757812E-05  0.00000E+00  9.000E+00
#rwgt            1           1   6.1477244143885182E-002          10      201701           0
</event>
<event>
      5   9999  3.79277E-02  6.61419E+01 -1.00000E+00  1.32480E-01
      21    -1     0     0   502   511  0.000000000E+00  0.000000000E+00  1.440215256E+03  1.440215256E+03  0.000000000E+00  0.00000E+00  9.000E+00
      21    -1     0     0   501   502  0.000000000E+00  0.000000000E+00 -4.823064658E+01  4.823064658E+01  0.000000000E+00  0.00000E+00  9.000E+00
      25     1     1     2     0     0  3.087829083E-01  7.044900784E+01  6.084389667E+02  6.251288941E+02  1.250000000E+02  0.00000E+00  9.000E+00
      25     1     1     2     0     0 -5.597467169E+01 -3.472695298E+01  9.197973162E+01  1.685953622E+02  1.250000000E+02  0.00000E+00  9.000E+00
      21     1     1     2   501   511  5.566588878E+01 -3.572205486E+01  6.915659112E+02  6.947216464E+02  1.078959322E-05  0.00000E+00  9.000E+00
#rwgt            1           1   3.2923571504361170E-002          10      201828           0
</event>
<event>
      5   9999 -3.79277E-02  1.61870E+01 -1.00000E+00  1.74323E-01
      21    -1     0     0   502   512  0.000000000E+00  0.000000000E+00  8.747399809E+02  8.747399809E+02  0.000000000E+00  0.00000E+00  9.000E+00
      21    -1     0     0   501   502  0.000000000E+00  0.000000000E+00 -1.655800045E+02  1.655800045E+02  0.000000000E+00  0.00000E+00  9.000E+00
      25     1     1     2     0     0 -2.596090373E+02  1.931136678E+01  4.291133607E+02  5.172359786E+02  1.250000000E+02  0.00000E+00  9.000E+00
      25     1     1     2     0     0  2.608606674E+02 -3.172794320E+00  5.133505544E+01  2.938003443E+02  1.250000000E+02  0.00000E+00  9.000E+00
      21     1     1     2   501   512 -1.251630033E+00 -1.613857246E+01  2.287115602E+02  2.292836625E+02  3.814697266E-06  0.00000E+00  9.000E+00
#rwgt            1           1  -6.0819163493473348E-002          10      201893           0
</event>
<event>
      5   9999  3.79277E-02  4.00141E+01 -1.00000E+00  1.44831E-01
      21    -1     0     0   502   501  0.000000000E+00  0.000000000E+00  1.036288807E+02  1.036288807E+02  0.000000000E+00  0.00000E+00  9.000E+00
      21    -1     0     0   501   511  0.000000000E+00  0.000000000E+00 -7.328227289E+02  7.328227289E+02  0.000000000E+00  0.00000E+00  9.000E+00
      25     1     1     2     0     0 -1.191810381E+02  6.420829810E+01 -3.250425939E+01  1.871051904E+02  1.250000000E+02  0.00000E+00  9.000E+00
      25     1     1     2     0     0  1.582344756E+02 -7.292374873E+01 -4.727709780E+02  5.191275566E+02  1.250000000E+02  0.00000E+00  9.000E+00
      21     1     1     2   502   511 -3.905343751E+01  8.715450626E+00 -1.239186108E+02  1.302188626E+02  2.336015456E-06  0.00000E+00  9.000E+00
#rwgt            1           1   3.8017816549887569E-002          10      202168           0
</event>
<event>
      5   9999  3.79277E-02  7.69349E+01 -1.00000E+00  1.29176E-01
      21    -1     0     0   502   501  0.000000000E+00  0.000000000E+00  1.373732307E+02  1.373732307E+02  0.000000000E+00  0.00000E+00  9.000E+00
       2    -1     0     0   501     0  0.000000000E+00  0.000000000E+00 -2.654251150E+03  2.654251150E+03  0.000000000E+00  0.00000E+00  9.000E+00
      25     1     1     2     0     0 -3.547796758E+01 -1.760472129E+02 -2.662781871E+02  3.446452963E+02  1.250000000E+02  0.00000E+00  9.000E+00
      25     1     1     2     0     0 -4.134006405E+01  1.718076669E+02 -2.257560649E+01  2.176270510E+02  1.250000000E+02  0.00000E+00  9.000E+00
       2     1     1     2   502     0  7.681803163E+01  4.239545974E+00 -2.228024126E+03  2.229352034E+03  3.051757812E-05  0.00000E+00  9.000E+00
#rwgt            1           1   6.8050263100126976E-002          10      202309           0
</event>
<event>
      5   9999  3.79277E-02  5.67005E+01 -1.00000E+00  1.36029E-01
       1    -1     0     0   502     0  0.000000000E+00  0.000000000E+00  1.848837696E+03  1.848837696E+03  0.000000000E+00  0.00000E+00  9.000E+00
      21    -1     0     0   501   502  0.000000000E+00  0.000000000E+00 -4.401719967E+02  4.401719967E+02  0.000000000E+00  0.00000E+00  9.000E+00
      25     1     1     2     0     0  3.232424183E+02  4.987455473E+01 -1.256878855E+02  3.720155598E+02  1.250000000E+02  0.00000E+00  9.000E+00
      25     1     1     2     0     0 -3.094340759E+02  5.118880994E+00 -4.485506465E+01  3.367679128E+02  1.250000000E+02  0.00000E+00  9.000E+00
       1     1     1     2   501     0 -1.380834233E+01 -5.499343573E+01  1.579208649E+03  1.580226220E+03  2.157918644E-05  0.00000E+00  9.000E+00
#rwgt            1           1   5.0758769171875565E-002          10      202475           0
</event>
<event>
      5   9999  3.79277E-02  1.80985E+01 -1.00000E+00  1.70030E-01
      21    -1     0     0   502   501  0.000000000E+00  0.000000000E+00  6.659862813E+02  6.659862813E+02  0.000000000E+00  0.00000E+00  9.000E+00
      21    -1     0     0   511   502  0.000000000E+00  0.000000000E+00 -1.900242891E+02  1.900242891E+02  0.000000000E+00  0.00000E+00  9.000E+00
      25     1     1     2     0     0 -8.853525948E+01 -2.210959707E+02  3.473393871E+01  2.712072398E+02  1.250000000E+02  0.00000E+00  9.000E+00
      25     1     1     2     0     0  8.048239872E+01  2.048877578E+02  4.796389899E+02  5.423421157E+02  1.250000000E+02  0.00000E+00  9.000E+00
      21     1     1     2   511   501  8.052860759E+00  1.620821285E+01 -3.841093641E+01  4.246121485E+01  4.768371582E-07  0.00000E+00  9.000E+00
#rwgt            1           1   3.8416572630149387E-002          10      202600           0
</event>
<event>
      5   9999  3.79277E-02  1.08379E+01 -1.00000E+00  1.91803E-01
      21    -1     0     0   502   501  0.000000000E+00  0.000000000E+00  5.978703515E+01  5.978703515E+01  0.000000000E+00  0.00000E+00  9.000E+00
       1    -1     0     0   501     0  0.000000000E+00  0.000000000E+00 -2.147850761E+03  2.147850761E+03  0.000000000E+00  0.00000E+00  9.000E+00
      25     1     1     2     0     0  1.457854473E+02 -1.478298086E+02 -5.597432984E+02  6.099545959E+02  1.250000000E+02  0.00000E+00  9.000E+00
      25     1     1     2     0     0 -1.401605503E+02  1.570936939E+02 -3.978052375E+02  4.671160622E+02  1.250000000E+02  0.00000E+00  9.000E+00
       1     1     1     2   502     0 -5.624896992E+00 -9.263885276E+00 -1.130515190E+03  1.130567138E+03  0.000000000E+00  0.00000E+00  9.000E+00
#rwgt            1           1   3.9304700541422419E-002          10      202730           0
</event>
<event>
      5   9999  3.79277E-02  4.11848E+01 -1.00000E+00  1.44058E-01
      21    -1     0     0   502   501  0.000000000E+00  0.000000000E+00  1.013093422E+03  1.013093422E+03  0.000000000E+00  0.00000E+00  9.000E+00
      21    -1     0     0   501   511  0.000000000E+00  0.000000000E+00 -5.265573408E+02  5.265573408E+02  0.000000000E+00  0.00000E+00  9.000E+00
      25     1     1     2     0     0 -2.975377453E+01  1.430208970E+02  7.207605968E+02  7.459632041E+02  1.250000000E+02  0.00000E+00  9.000E+00
      25     1     1     2     0     0  7.090685924E+01 -1.414045282E+02  2.424000846E+02  3.152868921E+02  1.250000000E+02  0.00000E+00  9.000E+00
      21     1     1     2   502   511 -4.115308471E+01 -1.616368787E+00 -4.766245998E+02  4.784006670E+02  5.394796609E-06  0.00000E+00  9.000E+00
#rwgt            1           1   3.1229745289757718E-002          10      203022           0
</event>
<event>
      5   9999  3.79277E-02  4.69525E+01 -1.00000E+00  1.40652E-01
      21    -1     0     0   502   512  0.000000000E+00  0.000000000E+00  3.641422756E+02  3.641422756E+02  0.000000000E+00  0.00000E+00  9.000E+00
      21    -1     0     0   501   502  0.000000000E+00  0.000000000E+00 -1.960363874E+02  1.960363874E+02  0.000000000E+00  0.00000E+00  9.000E+00
      25     1     1     2     0     0  1.309412565E+02 -1.213230710E+02  9.551214178E+01  2.379337501E+02  1.250000000E+02  0.00000E+00  9.000E+00
      25     1     1     2     0     0 -1.764548073E+02  1.328578775E+02  2.440929905E+01  2.549673087E+02  1.250000000E+02  0.00000E+00  9.000E+00
      21     1     1     2   501   512  4.551355078E+01 -1.153480650E+01  4.818444731E+01  6.727760421E+01  6.743495762E-07  0.00000E+00  9.000E+00
#rwgt            1           1   3.2735582777124204E-002          10      203118           0
</event>
<event>
      5   9999  3.79277E-02  1.47479E+02 -1.00000E+00  1.16686E-01
      21    -1     0     0   511   501  0.000000000E+00  0.000000000E+00  1.192201408E+03  1.192201408E+03  0.000000000E+00  0.00000E+00  9.000E+00
      21    -1     0     0   501   502  0.000000000E+00  0.000000000E+00 -1.401520622E+02  1.401520622E+02  0.000000000E+00  0.00000E+00  9.000E+00
      25     1     1     2     0     0  3.309389538E+02  7.870815910E+01  5.495622924E+02  6.583002952E+02  1.250000000E+02  0.00000E+00  9.000E+00
      25     1     1     2     0     0 -2.071247339E+02  1.417374504E+00  1.326716067E+02  2.759156022E+02  1.250000000E+02  0.00000E+00  9.000E+00
      21     1     1     2   511   502 -1.238142199E+02 -8.012553360E+01  3.698154470E+02  3.981375729E+02  7.629394531E-06  0.00000E+00  9.000E+00
#rwgt            1           1   3.8075579406368305E-002          10      203313           0
</event>
<event>
      5   9999  3.79277E-02  5.68035E+01 -1.00000E+00  1.35986E-01
      21    -1     0     0   502   512  0.000000000E+00  0.000000000E+00  1.086177452E+03  1.086177452E+03  0.000000000E+00  0.00000E+00  9.000E+00
      21    -1     0     0   501   502  0.000000000E+00  0.000000000E+00 -7.097197628E+01  7.097197628E+01  0.000000000E+00  0.00000E+00  9.000E+00
      25     1     1     2     0     0  2.115415762E+02 -2.113374698E+00  4.417279180E+02  5.054729057E+02  1.250000000E+02  0.00000E+00  9.000E+00
      25     1     1     2     0     0 -2.111312647E+02  5.891534771E+01  4.550099860E+02  5.202946440E+02  1.250000000E+02  0.00000E+00  9.000E+00
      21     1     1     2   501   512 -4.103114813E-01 -5.680197301E+01  1.184675716E+02  1.313818786E+02  1.907348633E-06  0.00000E+00  9.000E+00
#rwgt            1           1  0.18933825337734791               10      203408           0
</event>
<event>
      5   9999  3.79277E-02  3.86254E+01 -1.00000E+00  1.45788E-01
      21    -1     0     0   502   501  0.000000000E+00  0.000000000E+00  6.150020431E+01  6.150020431E+01  0.000000000E+00  0.00000E+00  9.000E+00
       2    -1     0     0   501     0  0.000000000E+00  0.000000000E+00 -8.765714233E+02  8.765714233E+02  0.000000000E+00  0.00000E+00  9.000E+00
      25     1     1     2     0     0 -5.288795436E+01 -1.516203307E+01 -4.596032406E+02  4.794654959E+02  1.250000000E+02  0.00000E+00  9.000E+00
      25     1     1     2     0     0  6.738928803E+01 -2.063786513E+01 -5.190966680E+01  1.526002986E+02  1.250000000E+02  0.00000E+00  9.000E+00
       2     1     1     2   502     0 -1.450133368E+01  3.579989820E+01 -3.035583115E+02  3.060058331E+02  0.000000000E+00  0.00000E+00  9.000E+00
#rwgt            1           1   4.2192496253275903E-002          10      203592           0
</event>
<event>
      5   9999  3.79277E-02  4.10319E+01 -1.00000E+00  1.44157E-01
      21    -1     0     0   502   501  0.000000000E+00  0.000000000E+00  7.708636552E+01  7.708636552E+01  0.000000000E+00  0.00000E+00  9.000E+00
       2    -1     0     0   501     0  0.000000000E+00  0.000000000E+00 -1.106930563E+03  1.106930563E+03  0.000000000E+00  0.00000E+00  9.000E+00
      25     1     1     2     0     0  1.426251082E+02  1.625510688E+02 -3.196622104E+02  4.056768421E+02  1.250000000E+02  0.00000E+00  9.000E+00
      25     1     1     2     0     0 -1.040503713E+02 -1.765370704E+02 -4.078969247E+02  4.732829155E+02  1.250000000E+02  0.00000E+00  9.000E+00
       2     1     1     2   502     0 -3.857473690E+01  1.398600154E+01 -3.022850625E+02  3.050571710E+02  3.814697266E-06  0.00000E+00  9.000E+00
#rwgt            1           1   4.2008167440132291E-002          10      203697           0
</event>
<event>
      5   9999 -3.79277E-02  5.25790E+01 -1.00000E+00  1.37841E-01
      21    -1     0     0   502   511  0.000000000E+00  0.000000000E+00  6.501292824E+01  6.501292824E+01  0.000000000E+00  0.00000E+00  9.000E+00
      21    -1     0     0   501   502  0.000000000E+00  0.000000000E+00 -1.055440076E+03  1.055440076E+03  0.000000000E+00  0.00000E+00  9.000E+00
      25     1     1     2     0     0  1.432745376E+01  1.835191992E+02 -5.102511632E+02  5.566559278E+02  1.250000000E+02  0.00000E+00  9.000E+00
      25     1     1     2     0     0 -6.690634300E+01 -1.836116650E+02 -4.407737211E+02  4.980925371E+02  1.250000000E+02  0.00000E+00  9.000E+00
      21     1     1     2   501   511  5.257888924E+01  9.246588181E-02 -3.940226376E+01  6.570453967E+01  1.348699152E-06  0.00000E+00  9.000E+00
#rwgt            1           1  -3.6684288055403420E-002          10      203830           0
</event>
<event>
      5   9999  3.79277E-02  4.34228E+01 -1.00000E+00  1.42663E-01
      21    -1     0     0   502   501  0.000000000E+00  0.000000000E+00  7.968014967E+01  7.968014967E+01  0.000000000E+00  0.00000E+00  9.000E+00
       2    -1     0     0   501     0  0.000000000E+00  0.000000000E+00 -1.498579318E+03  1.498579318E+03  0.000000000E+00  0.00000E+00  9.000E+00
      25     1     1     2     0     0  1.120733402E+02  1.401785183E+02 -3.620100854E+02  4.229500591E+02  1.250000000E+02  0.00000E+00  9.000E+00
      25     1     1     2     0     0 -1.017208557E+02 -1.823491843E+02 -2.558863220E+02  3.531305244E+02  1.250000000E+02  0.00000E+00  9.000E+00
       2     1     1     2   502     0 -1.035248452E+01  4.217066601E+01 -8.010027609E+02  8.021788840E+02  1.525878906E-05  0.00000E+00  9.000E+00
#rwgt            1           1   2.3990887400177414E-002          10      204013           0
</event>
<event>
      5   9999  3.79277E-02  1.07375E+01 -1.00000E+00  1.92251E-01
      21    -1     0     0   502   501  0.000000000E+00  0.000000000E+00  7.898424993E+02  7.898424993E+02  0.000000000E+00  0.00000E+00  9.000E+00
      21    -1     0     0   501   511  0.000000000E+00  0.000000000E+00 -9.226793738E+01  9.226793738E+01  0.000000000E+00  0.00000E+00  9.000E+00
      25     1     1     2     0     0 -1.257322789E+01  2.321629137E+02  4.216825328E+02  4.974925759E+02  1.250000000E+02  0.00000E+00  9.000E+00
      25     1     1     2     0     0  1.899716118E+01 -2.235590358E+02  2.686380379E+02  3.716596965E+02  1.250000000E+02  0.00000E+00  9.000E+00
      21     1     1     2   502   511 -6.423933292E+00 -8.603877889E+00  7.253991196E+00  1.295816430E+01  2.665600750E-07  0.00000E+00  9.000E+00
#rwgt            1           1   4.6553496271385629E-002          10      204119           0
</event>
<event>
      5   9999  3.79277E-02  2.56452E+01 -1.00000E+00  1.57926E-01
      21    -1     0     0   502   501  0.000000000E+00  0.000000000E+00  1.766545580E+03  1.766545580E+03  0.000000000E+00  0.00000E+00  9.000E+00
      21    -1     0     0   501   512  0.000000000E+00  0.000000000E+00 -4.765935781E+01  4.765935781E+01  0.000000000E+00  0.00000E+00  9.000E+00
      25     1     1     2     0     0  8.064669601E+01 -5.024076773E+01  1.189048017E+03  1.199369922E+03  1.250000000E+02  0.00000E+00  9.000E+00
      25     1     1     2     0     0 -8.805492967E+01  7.479267287E+01  5.540252942E+02  5.795831615E+02  1.250000000E+02  0.00000E+00  9.000E+00
      21     1     1     2   502   512  7.408233662E+00 -2.455190513E+01 -2.418708854E+01  3.525185419E+01  3.216442481E-06  0.00000E+00  9.000E+00
#rwgt            1           1  0.11734387921744520               10      204402           0
</event>
<event>
      5   9999  3.79277E-02  2.00749E+01 -1.00000E+00  1.66235E-01
      21    -1     0     0   502   511  0.000000000E+00  0.000000000E+00  3.871359031E+02  3.871359031E+02  0.000000000E+00  0.00000E+00  9.000E+00
      21    -1     0     0   501   502  0.000000000E+00  0.000000000E+00 -2.496570509E+02  2.496570509E+02  0.000000000E+00  0.00000E+00  9.000E+00
      25     1     1     2     0     0  1.343881073E+02 -2.198023693E+01  2.897925823E+02  3.437266864E+02  1.250000000E+02  0.00000E+00  9.000E+00
      25     1     1     2     0     0 -1.375092613E+02  2.149433174E+00 -1.800951283E+02  2.587907885E+02  1.250000000E+02  0.00000E+00  9.000E+00
      21     1     1     2   501   511  3.121154019E+00  1.983080376E+01  2.778139817E+01  3.427547906E+01  0.000000000E+00  0.00000E+00  9.000E+00
#rwgt            1           1   4.7544181397576296E-002          10      204533           0
</event>
<event>
      5   9999  3.79277E-02  1.50928E+01 -1.00000E+00  1.77132E-01
      21    -1     0     0   502   501  0.000000000E+00  0.000000000E+00  4.204234077E+02  4.204234077E+02  0.000000000E+00  0.00000E+00  9.000E+00
      21    -1     0     0   512   502  0.000000000E+00  0.000000000E+00 -1.985822373E+02  1.985822373E+02  0.000000000E+00  0.00000E+00  9.000E+00
      25     1     1     2     0     0  3.229926822E+01  6.557318147E+01  3.715218581E+02  3.987437471E+02  1.250000000E+02  0.00000E+00  9.000E+00
      25     1     1     2     0     0 -1.990202583E+01 -5.696503380E+01 -1.078065844E+02  1.757508616E+02  1.250000000E+02  0.00000E+00  9.000E+00
      21     1     1     2   512   501 -1.239724239E+01 -8.608147671E+00 -4.187410321E+01  4.451103621E+01  4.768371582E-07  0.00000E+00  9.000E+00
#rwgt            1           1   2.5332661668723805E-002          10      204698           0
</event>
<event>
      5   9999  3.79277E-02  9.14046E+01 -1.00000E+00  1.25609E-01
      21    -1     0     0   502   501  0.000000000E+00  0.000000000E+00  1.121749059E+02  1.121749059E+02  0.000000000E+00  0.00000E+00  9.000E+00
       2    -1     0     0   501     0  0.000000000E+00  0.000000000E+00 -7.574607996E+02  7.574607996E+02  0.000000000E+00  0.00000E+00  9.000E+00
      25     1     1     2     0     0  4.381829973E+01 -1.091139109E+02 -1.464215749E+02  2.255884894E+02  1.250000000E+02  0.00000E+00  9.000E+00
      25     1     1     2     0     0 -8.104355609E+00  2.497526809E+01  8.979447591E+00  1.280432547E+02  1.250000000E+02  0.00000E+00  9.000E+00
       2     1     1     2   502     0 -3.571394412E+01  8.413864284E+01 -5.078437664E+02  5.160039613E+02  0.000000000E+00  0.00000E+00  9.000E+00
#rwgt            1           1   2.2974140334567784E-002          10      204946           0
</event>
<event>
      5   9999  3.79277E-02  4.06761E+01 -1.00000E+00  1.44390E-01
      21    -1     0     0   502   511  0.000000000E+00  0.000000000E+00  3.945743662E+02  3.945743662E+02  0.000000000E+00  0.00000E+00  9.000E+00
      21    -1     0     0   501   502  0.000000000E+00  0.000000000E+00 -1.674111754E+02  1.674111754E+02  0.000000000E+00  0.00000E+00  9.000E+00
      25     1     1     2     0     0 -1.483115931E+02 -1.783029687E+01  2.510667801E+02  3.177637113E+02  1.250000000E+02  0.00000E+00  9.000E+00
      25     1     1     2     0     0  1.275610462E+02 -1.715482691E+01 -6.066297308E+01  1.893966866E+02  1.250000000E+02  0.00000E+00  9.000E+00
      21     1     1     2   501   511  2.075054698E+01  3.498512379E+01  3.675938385E+01  5.482514375E+01  9.536743164E-07  0.00000E+00  9.000E+00
#rwgt            1           1   4.4808507375226424E-002          10      205016           0
</event>
<event>
      5   9999  3.79277E-02  1.45607E+02 -1.00000E+00  1.16908E-01
      21    -1     0     0   502   501  0.000000000E+00  0.000000000E+00  1.074950779E+03  1.074950779E+03  0.000000000E+00  0.00000E+00  9.000E+00
      21    -1     0     0   501   512  0.000000000E+00  0.000000000E+00 -6.622970346E+01  6.622970346E+01  0.000000000E+00  0.00000E+00  9.000E+00
      25     1     1     2     0     0  6.040350819E+01  3.084211963E+01  4.611819268E+02  4.826112201E+02  1.250000000E+02  0.00000E+00  9.000E+00
      25     1     1     2     0     0  8.021120005E+01 -6.864107599E+01  4.610300487E+02  4.892025549E+02  1.250000000E+02  0.00000E+00  9.000E+00
      21     1     1     2   502   512 -1.406147082E+02  3.779895635E+01  8.650910046E+01  1.693667079E+02  1.651812370E-06  0.00000E+00  9.000E+00
#rwgt            1           1   2.3701450748624953E-002          10      205279           0
</event>
<event>
      5   9999  3.79277E-02  6.90502E+01 -1.00000E+00  1.31522E-01
      21    -1     0     0   502   501  0.000000000E+00  0.000000000E+00  4.194373949E+01  4.194373949E+01  0.000000000E+00  0.00000E+00  9.000E+00
      21    -1     0     0   501   511  0.000000000E+00  0.000000000E+00 -9.620092752E+02  9.620092752E+02  0.000000000E+00  0.00000E+00  9.000E+00
      25     1     1     2     0     0 -7.842256040E+01  7.482468595E+01 -2.508159308E+02  3.004704025E+02  1.250000000E+02  0.00000E+00  9.000E+00
      25     1     1     2     0     0  9.387107123E+00 -7.339935679E+01 -5.004684083E+02  5.211230287E+02  1.250000000E+02  0.00000E+00  9.000E+00
      21     1     1     2   502   511  6.903545328E+01 -1.425329167E+00 -1.687811966E+02  1.823595835E+02  0.000000000E+00  0.00000E+00  9.000E+00
#rwgt            1           1   3.7896174248962376E-002          10      205427           0
</event>
<event>
      5   9999  3.79277E-02  9.31718E+01 -1.00000E+00  1.25225E-01
      21    -1     0     0   512   501  0.000000000E+00  0.000000000E+00  1.185283353E+02  1.185283353E+02  0.000000000E+00  0.00000E+00  9.000E+00
      21    -1     0     0   501   502  0.000000000E+00  0.000000000E+00 -9.398320782E+02  9.398320782E+02  0.000000000E+00  0.00000E+00  9.000E+00
      25     1     1     2     0     0 -2.068731678E+02  1.339186613E+02 -4.046368595E+02  4.899864319E+02  1.250000000E+02  0.00000E+00  9.000E+00
      25     1     1     2     0     0  1.503224086E+02 -5.987136169E+01 -4.281795608E+02  4.744935645E+02  1.250000000E+02  0.00000E+00  9.000E+00
      21     1     1     2   512   502  5.655075926E+01 -7.404729964E+01  1.151267753E+01  9.388041703E+01  1.250277577E-06  0.00000E+00  9.000E+00
#rwgt            1           1   4.7141472339068936E-002          10      205599           0
</event>
<event>
      5   9999  3.79277E-02  3.20441E+01 -1.00000E+00  1.51078E-01
      21    -1     0     0   502   501  0.000000000E+00  0.000000000E+00  2.624228526E+02  2.624228526E+02  0.000000000E+00  0.00000E+00  9.000E+00
      21    -1     0     0   501   511  0.000000000E+00  0.000000000E+00 -2.816397596E+02  2.816397596E+02  0.000000000E+00  0.00000E+00  9.000E+00
      25     1     1     2     0     0 -2.038351988E+01 -1.325029598E+02  3.497181781E+01  1.866026534E+02  1.250000000E+02  0.00000E+00  9.000E+00
      25     1     1     2     0     0  8.756996565E+00  1.623634887E+02  7.951591850E+01  2.199690177E+02  1.250000000E+02  0.00000E+00  9.000E+00
      21     1     1     2   502   511  1.162652331E+01 -2.986052894E+01 -1.337046433E+02  1.374909411E+02  1.907348633E-06  0.00000E+00  9.000E+00
#rwgt            1           1   4.0496624002145327E-002          10      205723           0
</event>
<event>
      5   9999  3.79277E-02  1.74759E+01 -1.00000E+00  1.71353E-01
      21    -1     0     0   502   501  0.000000000E+00  0.000000000E+00  8.492492875E+01  8.492492875E+01  0.000000000E+00  0.00000E+00  9.000E+00
      21    -1     0     0   501   512  0.000000000E+00  0.000000000E+00 -4.846258804E+02  4.846258804E+02  0.000000000E+00  0.00000E+00  9.000E+00
      25     1     1     2     0     0 -5.263811316E+00 -7.140799141E+01 -8.565253747E+00  1.443092946E+02  1.250000000E+02  0.00000E+00  9.000E+00
      25     1     1     2     0     0  2.273288296E+01  7.189546616E+01 -3.703665018E+02  3.980980881E+02  1.250000000E+02  0.00000E+00  9.000E+00
      21     1     1     2   502   512 -1.746907165E+01 -4.874747506E-01 -2.076919610E+01  2.714342651E+01  4.129530925E-07  0.00000E+00  9.000E+00
#rwgt            1           1   4.6834395550036115E-002          10      205862           0
</event>
<event>
      5   9999  3.79277E-02  4.91106E+01 -1.00000E+00  1.39522E-01
      21    -1     0     0   502   501  0.000000000E+00  0.000000000E+00  2.130793954E+03  2.130793954E+03  0.000000000E+00  0.00000E+00  9.000E+00
      21    -1     0     0   511   502  0.000000000E+00  0.000000000E+00 -3.335927122E+01  3.335927122E+01  0.000000000E+00  0.00000E+00  9.000E+00
      25     1     1     2     0     0  8.415807269E+01 -2.061031833E+02  1.073836054E+03  1.103770798E+03  1.250000000E+02  0.00000E+00  9.000E+00
      25     1     1     2     0     0 -5.832458193E+01  1.643361950E+02  9.327645708E+02  9.571221899E+02  1.250000000E+02  0.00000E+00  9.000E+00
      21     1     1     2   511   501 -2.583349076E+01  4.176698833E+01  9.083405840E+01  1.032602379E+02  1.348699152E-06  0.00000E+00  9.000E+00
#rwgt            1           1  0.11557325548044828               10      206036           0
</event>
<event>
      5   9999 -3.79277E-02  1.34655E+01 -1.00000E+00  1.81916E-01
      21    -1     0     0   512   501  0.000000000E+00  0.000000000E+00  1.253284392E+02  1.253284392E+02  0.000000000E+00  0.00000E+00  9.000E+00
      21    -1     0     0   501   502  0.000000000E+00  0.000000000E+00 -1.646341076E+03  1.646341076E+03  0.000000000E+00  0.00000E+00  9.000E+00
      25     1     1     2     0     0 -1.602345526E+02 -3.148383415E+02 -2.928728935E+02  4.756025913E+02  1.250000000E+02  0.00000E+00  9.000E+00
      25     1     1     2     0     0  1.725130402E+02  3.093103317E+02 -1.226240549E+03  1.282468134E+03  1.250000000E+02  0.00000E+00  9.000E+00
      21     1     1     2   512   502 -1.227848762E+01  5.528009839E+00 -1.899194390E+00  1.359879003E+01  1.332800375E-07  0.00000E+00  9.000E+00
#rwgt            1           1 -0.11748118979673515               10      206190           0
</event>
<event>
      5   9999  3.79277E-02  4.61557E+01 -1.00000E+00  1.41087E-01
      21    -1     0     0   502   511  0.000000000E+00  0.000000000E+00  3.857414612E+02  3.857414612E+02  0.000000000E+00  0.00000E+00  9.000E+00
      21    -1     0     0   501   502  0.000000000E+00  0.000000000E+00 -4.250056817E+02  4.250056817E+02  0.000000000E+00  0.00000E+00  9.000E+00
      25     1     1     2     0     0  3.925405584E+01 -3.188897770E+02 -9.373728593E+01  3.572719546E+02  1.250000000E+02  0.00000E+00  9.000E+00
      25     1     1     2     0     0 -6.468915781E+01  3.574048060E+02  2.718756672E+00  3.841292414E+02  1.250000000E+02  0.00000E+00  9.000E+00
      21     1     1     2   501   511  2.543510197E+01 -3.851502897E+01  5.175430886E+01  6.934594692E+01  6.743495762E-07  0.00000E+00  9.000E+00
#rwgt            1           1   4.5360377875006345E-002          10      206426           0
</event>
<event>
      5   9999  3.79277E-02  3.75078E+01 -1.00000E+00  1.46594E-01
      21    -1     0     0   502   501  0.000000000E+00  0.000000000E+00  8.558178247E+01  8.558178247E+01  0.000000000E+00  0.00000E+00  9.000E+00
      21    -1     0     0   501   512  0.000000000E+00  0.000000000E+00 -6.012051104E+02  6.012051104E+02  0.000000000E+00  0.00000E+00  9.000E+00
      25     1     1     2     0     0 -8.743368732E+01 -2.045606214E-01 -3.541995904E+02  3.856514507E+02  1.250000000E+02  0.00000E+00  9.000E+00
      25     1     1     2     0     0  1.178807137E+02  2.210918682E+01 -4.523349615E+01  1.790411907E+02  1.250000000E+02  0.00000E+00  9.000E+00
      21     1     1     2   502   512 -3.044702637E+01 -2.190462620E+01 -1.161902413E+02  1.220942514E+02  1.348699152E-06  0.00000E+00  9.000E+00
#rwgt            1           1   2.8487283493559903E-002          10      206695           0
</event>
<event>
      5   9999  3.79277E-02  6.17789E+01 -1.00000E+00  1.34029E-01
      21    -1     0     0   502   501  0.000000000E+00  0.000000000E+00  7.238115167E+02  7.238115167E+02  0.000000000E+00  0.00000E+00  9.000E+00
      21    -1     0     0   501   511  0.000000000E+00  0.000000000E+00 -3.684650968E+02  3.684650968E+02  0.000000000E+00  0.00000E+00  9.000E+00
      25     1     1     2     0     0 -8.385110802E+01  1.368161577E+01  5.717694680E+02  5.914080820E+02  1.250000000E+02  0.00000E+00  9.000E+00
      25     1     1     2     0     0  1.455157389E+02 -1.743749339E+01  7.219805158E+01  2.057096378E+02  1.250000000E+02  0.00000E+00  9.000E+00
      21     1     1     2   502   511 -6.166463084E+01  3.755877618E+00 -2.886210997E+02  2.951588936E+02  5.394796609E-06  0.00000E+00  9.000E+00
#rwgt            1           1   4.7058110701816210E-002          10      206947           0
</event>
<event>
      5   9999  3.79277E-02  4.62244E+01 -1.00000E+00  1.41049E-01
      21    -1     0     0   502   501  0.000000000E+00  0.000000000E+00  7.700479628E+02  7.700479628E+02  0.000000000E+00  0.00000E+00  9.000E+00
      21    -1     0     0   501   512  0.000000000E+00  0.000000000E+00 -1.307462522E+02  1.307462522E+02  0.000000000E+00  0.00000E+00  9.000E+00
      25     1     1     2     0     0 -1.148033225E+02 -4.399245492E+01  4.836348846E+02  5.144344861E+02  1.250000000E+02  0.00000E+00  9.000E+00
      25     1     1     2     0     0  1.514626001E+02  1.583596111E+01  2.274910037E+02  3.009465960E+02  1.250000000E+02  0.00000E+00  9.000E+00
      21     1     1     2   502   512 -3.665927762E+01  2.815649380E+01 -7.182417759E+01  8.541313286E+01  1.348699152E-06  0.00000E+00  9.000E+00
#rwgt            1           1   3.9487595679908977E-002          10      207021           0
</event>
<event>
      5   9999  3.79277E-02  1.55930E+01 -1.00000E+00  1.75812E-01
      21    -1     0     0   502   501  0.000000000E+00  0.000000000E+00  3.048144142E+03  3.048144142E+03  0.000000000E+00  0.00000E+00  9.000E+00
      21    -1     0     0   501   511  0.000000000E+00  0.000000000E+00 -1.901679983E+01  1.901679983E+01  0.000000000E+00  0.00000E+00  9.000E+00
      25     1     1     2     0     0  1.542247268E+02  1.796904857E+01  1.508670638E+03  1.521781931E+03  1.250000000E+02  0.00000E+00  9.000E+00
      25     1     1     2     0     0 -1.486060323E+02 -3.423494194E+00  1.517032667E+03  1.529414459E+03  1.250000000E+02  0.00000E+00  9.000E+00
      21     1     1     2   502   511 -5.618694570E+00 -1.454555438E+01  3.424037005E+00  1.596455167E+01  1.168767902E-06  0.00000E+00  9.000E+00
#rwgt            1           1  0.28658979983209881               10      207141           0
</event>
<event>
      5   9999  3.79277E-02  1.48957E+02 -1.00000E+00  1.16514E-01
      21    -1     0     0   502   501  0.000000000E+00  0.000000000E+00  4.228182965E+02  4.228182965E+02  0.000000000E+00  0.00000E+00  9.000E+00
       3    -1     0     0   501     0  0.000000000E+00  0.000000000E+00 -2.815904127E+02  2.815904127E+02  0.000000000E+00  0.00000E+00  9.000E+00
      25     1     1     2     0     0  1.170090220E+02  2.202953680E+01  1.929414980E+02  2.588973414E+02  1.250000000E+02  0.00000E+00  9.000E+00
      25     1     1     2     0     0 -2.601033213E+02  1.934903708E+01 -4.543512183E+00  2.892641811E+02  1.250000000E+02  0.00000E+00  9.000E+00
       3     1     1     2   502     0  1.430942992E+02 -4.137857388E+01 -4.717010202E+01  1.562471868E+02  1.348699152E-06  0.00000E+00  9.000E+00
#rwgt            1           1   6.0073802032007649E-003          10      207339           0
</event>
<event>
      5   9999  3.79277E-02  2.48233E+01 -1.00000E+00  1.58982E-01
       2    -1     0     0   502     0  0.000000000E+00  0.000000000E+00  4.536884745E+02  4.536884745E+02  0.000000000E+00  0.00000E+00  9.000E+00
      21    -1     0     0   501   502  0.000000000E+00  0.000000000E+00 -2.399412273E+02  2.399412273E+02  0.000000000E+00  0.00000E+00  9.000E+00
      25     1     1     2     0     0  4.214006339E+00  1.749161032E+02 -1.239307931E+02  2.481879177E+02  1.250000000E+02  0.00000E+00  9.000E+00
      25     1     1     2     0     0 -2.313895240E+01 -1.909798520E+02  1.964146632E+02  3.020139648E+02  1.250000000E+02  0.00000E+00  9.000E+00
       2     1     1     2   501     0  1.892494606E+01  1.606374881E+01  1.412633772E+02  1.434278193E+02  1.907348633E-06  0.00000E+00  9.000E+00
#rwgt            1           1   3.8644640427090135E-002          10      207438           0
</event>
<event>
      5   9999  3.79277E-02  4.23033E+01 -1.00000E+00  1.43348E-01
      21    -1     0     0   511   501  0.000000000E+00  0.000000000E+00  1.631330499E+02  1.631330499E+02  0.000000000E+00  0.00000E+00  9.000E+00
      21    -1     0     0   501   502  0.000000000E+00  0.000000000E+00 -5.746521223E+02  5.746521223E+02  0.000000000E+00  0.00000E+00  9.000E+00
      25     1     1     2     0     0 -7.992212839E+01  2.299377639E+02 -3.204896539E+02  4.214232316E+02  1.250000000E+02  0.00000E+00  9.000E+00
      25     1     1     2     0     0  4.580749316E+01 -2.049225021E+02 -1.123849520E+02  2.689738570E+02  1.250000000E+02  0.00000E+00  9.000E+00
      21     1     1     2   511   502  3.411463523E+01 -2.501526174E+01  2.135553343E+01  4.738808358E+01  9.233911863E-07  0.00000E+00  9.000E+00
#rwgt            1           1   3.7099965998180509E-002          10      207559           0
</event>
<event>
      5   9999  3.79277E-02  1.19041E+02 -1.00000E+00  1.20516E-01
      21    -1     0     0   502   512  0.000000000E+00  0.000000000E+00  3.076695340E+02  3.076695340E+02  0.000000000E+00  0.00000E+00  9.000E+00
      21    -1     0     0   501   502  0.000000000E+00  0.000000000E+00 -4.403662175E+02  4.403662175E+02  0.000000000E+00  0.00000E+00  9.000E+00
      25     1     1     2     0     0  1.067268359E+02  1.388717540E+02 -1.866968023E+02  2.848801109E+02  1.250000000E+02  0.00000E+00  9.000E+00
      25     1     1     2     0     0 -2.104552074E+02 -1.972773394E+02 -3.242829624E+01  3.160479985E+02  1.250000000E+02  0.00000E+00  9.000E+00
      21     1     1     2   501   512  1.037283715E+02  5.840558538E+01  8.642841505E+01  1.471076422E+02  0.000000000E+00  0.00000E+00  9.000E+00
#rwgt            1           1   3.6240464553659278E-002          10      207771           0
</event>
<event>
      5   9999  3.79277E-02  1.19355E+01 -1.00000E+00  1.87274E-01
      21    -1     0     0   511   501  0.000000000E+00  0.000000000E+00  4.575853941E+02  4.575853941E+02  0.000000000E+00  0.00000E+00  9.000E+00
      21    -1     0     0   501   502  0.000000000E+00  0.000000000E+00 -1.438188586E+02  1.438188586E+02  0.000000000E+00  0.00000E+00  9.000E+00
      25     1     1     2     0     0 -1.741011224E+02  4.032845247E+01  6.384864394E+01  2.272426770E+02  1.250000000E+02  0.00000E+00  9.000E+00
      25     1     1     2     0     0  1.758552087E+02 -5.213437496E+01  1.374791071E+02  2.610910806E+02  1.250000000E+02  0.00000E+00  9.000E+00
      21     1     1     2   511   502 -1.754086222E+00  1.180592249E+01  1.124387844E+02  1.130704951E+02  1.348699152E-06  0.00000E+00  9.000E+00
#rwgt            1           1   2.6998415301517718E-002          10      207953           0
</event>
<event>
      5   9999  3.79277E-02  1.35617E+01 -1.00000E+00  1.81610E-01
      21    -1     0     0   502   501  0.000000000E+00  0.000000000E+00  9.531787147E+01  9.531787147E+01  0.000000000E+00  0.00000E+00  9.000E+00
      21    -1     0     0   501   512  0.000000000E+00  0.000000000E+00 -3.665979287E+02  3.665979287E+02  0.000000000E+00  0.00000E+00  9.000E+00
      25     1     1     2     0     0  1.039983257E+02 -2.860067338E+01 -2.306361988E+02  2.836401003E+02  1.250000000E+02  0.00000E+00  9.000E+00
      25     1     1     2     0     0 -9.145315905E+01  3.375210812E+01 -3.071036163E+01  1.614652019E+02  1.250000000E+02  0.00000E+00  9.000E+00
      21     1     1     2   502   512 -1.254516667E+01 -5.151434737E+00 -9.933496801E+00  1.681049807E+01  2.064765462E-07  0.00000E+00  9.000E+00
#rwgt            1           1   4.7948015017143485E-002          10      208237           0
</event>
<event>
      5   9999 -3.79277E-02  1.75655E+02 -1.00000E+00  1.13739E-01
      21    -1     0     0   511   501  0.000000000E+00  0.000000000E+00  1.704060829E+02  1.704060829E+02  0.000000000E+00  0.00000E+00  9.000E+00
      21    -1     0     0   501   502  0.000000000E+00  0.000000000E+00 -1.018277286E+03  1.018277286E+03  0.000000000E+00  0.00000E+00  9.000E+00
      25     1     1     2     0     0 -1.432851921E+02 -2.979920678E+02 -6.374722189E+02  7.289209481E+02  1.250000000E+02  0.00000E+00  9.000E+00
      25     1     1     2     0     0  2.498309698E+01  1.681489090E+02 -3.946458596E+01  2.146640731E+02  1.250000000E+02  0.00000E+00  9.000E+00
      21     1     1     2   511   502  1.183020951E+02  1.298431587E+02 -1.709343987E+02  2.450983481E+02  2.697398305E-06  0.00000E+00  9.000E+00
#rwgt            1           1  -7.1771572383864918E-002          10      208459           0
</event>
<event>
      5   9999  3.79277E-02  1.78575E+01 -1.00000E+00  1.70534E-01
      21    -1     0     0   502   501  0.000000000E+00  0.000000000E+00  2.037422335E+02  2.037422335E+02  0.000000000E+00  0.00000E+00  9.000E+00
      21    -1     0     0   501   512  0.000000000E+00  0.000000000E+00 -4.328656336E+02  4.328656336E+02  0.000000000E+00  0.00000E+00  9.000E+00
      25     1     1     2     0     0  9.264208726E+01 -2.647404919E+01  9.358172263E+01  1.834828886E+02  1.250000000E+02  0.00000E+00  9.000E+00
      25     1     1     2     0     0 -1.063275108E+02  1.500238337E+01 -3.963097410E+01  1.694881269E+02  1.250000000E+02  0.00000E+00  9.000E+00
      21     1     1     2   502   512  1.368542352E+01  1.147166583E+01 -2.830741487E+02  2.836368516E+02  0.000000000E+00  0.00000E+00  9.000E+00
#rwgt            1           1   5.5270528484706399E-002          10      208527           0
</event>
<event>
      5   9999  3.79277E-02  1.11236E+01 -1.00000E+00  1.90559E-01
      21    -1     0     0   502   511  0.000000000E+00  0.000000000E+00  3.517163907E+02  3.517163907E+02  0.000000000E+00  0.00000E+00  9.000E+00
      21    -1     0     0   501   502  0.000000000E+00  0.000000000E+00 -1.554841432E+02  1.554841432E+02  0.000000000E+00  0.00000E+00  9.000E+00
      25     1     1     2     0     0 -1.584609571E+02  5.393584237E+01  3.940968201E+01  2.125960326E+02  1.250000000E+02  0.00000E+00  9.000E+00
      25     1     1     2     0     0  1.566198706E+02 -6.490602426E+01  9.374771284E+01  2.305563044E+02  1.250000000E+02  0.00000E+00  9.000E+00
      21     1     1     2   501   511  1.841086546E+00  1.097018189E+01  6.307485263E+01  6.404819689E+01  6.743495762E-07  0.00000E+00  9.000E+00
#rwgt            1           1   4.3655309661772841E-002          10      208750           0
</event>
<event>
      5   9999  3.79277E-02  2.32121E+01 -1.00000E+00  1.61203E-01
      21    -1     0     0   502   501  0.000000000E+00  0.000000000E+00  2.779813139E+02  2.779813139E+02  0.000000000E+00  0.00000E+00  9.000E+00
      21    -1     0     0   512   502  0.000000000E+00  0.000000000E+00 -1.822766353E+02  1.822766353E+02  0.000000000E+00  0.00000E+00  9.000E+00
      25     1     1     2     0     0  1.693915768E+02 -2.578125619E+01  2.760889145E+01  2.138818140E+02  1.250000000E+02  0.00000E+00  9.000E+00
      25     1     1     2     0     0 -1.461960286E+02  2.490362893E+01  9.057667110E+01  2.140621472E+02  1.250000000E+02  0.00000E+00  9.000E+00
      21     1     1     2   512   501 -2.319554814E+01  8.776272652E-01 -2.248088391E+01  3.231398806E+01  4.129530925E-07  0.00000E+00  9.000E+00
#rwgt            1           1   3.3901804845439372E-002          10      208941           0
</event>
<event>
      5   9999  3.79277E-02  3.06085E+01 -1.00000E+00  1.52437E-01
      21    -1     0     0   502   501  0.000000000E+00  0.000000000E+00  3.075610860E+02  3.075610860E+02  0.000000000E+00  0.00000E+00  9.000E+00
      21    -1     0     0   501   511  0.000000000E+00  0.000000000E+00 -5.552899799E+02  5.552899799E+02  0.000000000E+00  0.00000E+00  9.000E+00
      25     1     1     2     0     0 -1.158247797E+02 -1.342411921E+02 -1.085725509E+02  2.425882851E+02  1.250000000E+02  0.00000E+00  9.000E+00
      25     1     1     2     0     0  1.464020522E+02  1.356229778E+02  1.820209527E+02  2.976302743E+02  1.250000000E+02  0.00000E+00  9.000E+00
      21     1     1     2   502   511 -3.057727252E+01 -1.381785662E+00 -3.211772957E+02  3.226325065E+02  3.814697266E-06  0.00000E+00  9.000E+00
#rwgt            1           1   4.3519505455396887E-002          10      209271           0
</event>
<event>
      5   9999  3.79277E-02  3.88905E+01 -1.00000E+00  1.45602E-01
      21    -1     0     0   502   501  0.000000000E+00  0.000000000E+00  1.636270208E+02  1.636270208E+02  0.000000000E+00  0.00000E+00  9.000E+00
      21    -1     0     0   512   502  0.000000000E+00  0.000000000E+00 -5.828380562E+02  5.828380562E+02  0.000000000E+00  0.00000E+00  9.000E+00
      25     1     1     2     0     0 -2.038630119E+01 -1.035997004E+02  5.184968833E+01  1.716446602E+02  1.250000000E+02  0.00000E+00  9.000E+00
      25     1     1     2     0     0  5.632174583E+00  1.395828617E+02 -1.221356344E+02  2.237346863E+02  1.250000000E+02  0.00000E+00  9.000E+00
      21     1     1     2   512   501  1.475412660E+01 -3.598316129E+01 -3.489250894E+02  3.510857305E+02  3.814697266E-06  0.00000E+00  9.000E+00
#rwgt            1           1   3.1162794620915528E-002          10      209556           0
</event>
<event>
      5   9999  3.79277E-02  1.01231E+02 -1.00000E+00  1.23589E-01
      21    -1     0     0   502   501  0.000000000E+00  0.000000000E+00  8.192701126E+01  8.192701126E+01  0.000000000E+00  0.00000E+00  9.000E+00
      -2    -1     0     0     0   502  0.000000000E+00  0.000000000E+00 -1.278380845E+03  1.278380845E+03  0.000000000E+00  0.00000E+00  9.000E+00
      25     1     1     2     0     0 -6.764486256E+01  1.602266075E+02 -2.213558196E+02  3.080126491E+02  1.250000000E+02  0.00000E+00  9.000E+00
      25     1     1     2     0     0  1.006929870E+02 -6.454216803E+01 -1.759292591E+02  2.467404979E+02  1.250000000E+02  0.00000E+00  9.000E+00
      -2     1     1     2     0   501 -3.304812443E+01 -9.568443946E+01 -7.991687553E+02  8.055547095E+02  1.078959322E-05  0.00000E+00  9.000E+00
#rwgt            1           1   3.8763415127948592E-002          10      209711           0
</event>
<event>
      5   9999  3.79277E-02  4.36830E+01 -1.00000E+00  1.42507E-01
      21    -1     0     0   502   511  0.000000000E+00  0.000000000E+00  9.539835300E+01  9.539835300E+01  0.000000000E+00  0.00000E+00  9.000E+00
      21    -1     0     0   501   502  0.000000000E+00  0.000000000E+00 -4.848255536E+02  4.848255536E+02  0.000000000E+00  0.00000E+00  9.000E+00
      25     1     1     2     0     0  1.876156607E-01  6.248674891E+01 -3.438279171E+02  3.711431874E+02  1.250000000E+02  0.00000E+00  9.000E+00
      25     1     1     2     0     0  3.698989413E+01 -8.542232751E+01 -5.331778866E+01  1.647210153E+02  1.250000000E+02  0.00000E+00  9.000E+00
      21     1     1     2   501   511 -3.717750979E+01  2.293557860E+01  7.718505190E+00  4.435970382E+01  8.429369702E-07  0.00000E+00  9.000E+00
#rwgt            1           1   3.3717595691992612E-002          10      209768           0
</event>
<event>
      5   9999  3.79277E-02  3.59257E+01 -1.00000E+00  1.47794E-01
      21    -1     0     0   502   501  0.000000000E+00  0.000000000E+00  1.664395039E+02  1.664395039E+02  0.000000000E+00  0.00000E+00  9.000E+00
      21    -1     0     0   501   512  0.000000000E+00  0.000000000E+00 -5.896194923E+02  5.896194923E+02  0.000000000E+00  0.00000E+00  9.000E+00
      25     1     1     2     0     0  6.478351641E+00  3.069738569E+01 -1.066686742E+02  1.672946639E+02  1.250000000E+02  0.00000E+00  9.000E+00
      25     1     1     2     0     0  2.683286640E+01 -4.415177232E+01  1.015668044E+02  1.691454920E+02  1.250000000E+02  0.00000E+00  9.000E+00
      21     1     1     2   502   512 -3.331121804E+01  1.345438663E+01 -4.180781186E+02  4.196188402E+02  5.394796609E-06  0.00000E+00  9.000E+00
#rwgt            1           1   5.2592320223000616E-002          10      209925           0
</event>
<event>
      5   9999  3.79277E-02  3.16130E+01 -1.00000E+00  1.51477E-01
      21    -1     0     0   502   501  0.000000000E+00  0.000000000E+00  1.524559091E+02  1.524559091E+02  0.000000000E+00  0.00000E+00  9.000E+00
       2    -1     0     0   501     0  0.000000000E+00  0.000000000E+00 -1.233828329E+03  1.233828329E+03  0.000000000E+00  0.00000E+00  9.000E+00
      25     1     1     2     0     0  9.930941498E+01 -2.629619193E+01 -9.016312249E+01  1.852248317E+02  1.250000000E+02  0.00000E+00  9.000E+00
      25     1     1     2     0     0 -8.535051741E+01 -2.068090769E+00  4.996394171E+01  1.594063465E+02  1.250000000E+02  0.00000E+00  9.000E+00
       2     1     1     2   502     0 -1.395889757E+01  2.836428270E+01 -1.041173239E+03  1.041653059E+03  0.000000000E+00  0.00000E+00  9.000E+00
#rwgt            1           1   4.5269620094616159E-002          10      210054           0
</event>
<event>
      5   9999  3.79277E-02  5.64906E+01 -1.00000E+00  1.36117E-01
      21    -1     0     0   502   501  0.000000000E+00  0.000000000E+00  8.243809398E+02  8.243809398E+02  0.000000000E+00  0.00000E+00  9.000E+00
      21    -1     0     0   511   502  0.000000000E+00  0.000000000E+00 -1.160536350E+02  1.160536350E+02  0.000000000E+00  0.00000E+00  9.000E+00
      25     1     1     2     0     0 -8.390703345E+01 -4.825742555E+01  1.311022093E+02  2.053824692E+02  1.250000000E+02  0.00000E+00  9.000E+00
      25     1     1     2     0     0  1.313646130E+02  1.761483597E+01  6.311722224E+02  6.569401177E+02  1.250000000E+02  0.00000E+00  9.000E+00
      21     1     1     2   511   501 -4.745757958E+01  3.064258958E+01 -5.394712684E+01  7.811198788E+01  2.780414531E-06  0.00000E+00  9.000E+00
#rwgt            1           1   4.0501831537045736E-002          10      210212           0
</event>
<event>
      5   9999  3.79277E-02  2.50334E+02 -1.00000E+00  1.08210E-01
       3    -1     0     0   502     0  0.000000000E+00  0.000000000E+00  1.475645957E+03  1.475645957E+03  0.000000000E+00  0.00000E+00  9.000E+00
      21    -1     0     0   501   502  0.000000000E+00  0.000000000E+00 -1.327392803E+02  1.327392803E+02  0.000000000E+00  0.00000E+00  9.000E+00
      25     1     1     2     0     0  6.972572474E+01  1.891100094E+02  7.177652743E+02  7.559340324E+02  1.250000000E+02  0.00000E+00  9.000E+00
      25     1     1     2     0     0  7.637261576E+01  1.416877762E+01 -3.080651668E+01  1.503581463E+02  1.250000000E+02  0.00000E+00  9.000E+00
       3     1     1     2   501     0 -1.460983405E+02 -2.032787871E+02  6.559479192E+02  7.020930586E+02  7.629394531E-06  0.00000E+00  9.000E+00
#rwgt            1           1   4.4924030712271003E-002          10      210330           0
</event>
<event>
      5   9999  3.79277E-02  4.00803E+01 -1.00000E+00  1.44786E-01
      21    -1     0     0   502   501  0.000000000E+00  0.000000000E+00  6.806965935E+02  6.806965935E+02  0.000000000E+00  0.00000E+00  9.000E+00
      21    -1     0     0   511   502  0.000000000E+00  0.000000000E+00 -1.828079593E+02  1.828079593E+02  0.000000000E+00  0.00000E+00  9.000E+00
      25     1     1     2     0     0  1.462448558E+02 -1.603530488E+02  7.172795440E+01  2.605197834E+02  1.250000000E+02  0.00000E+00  9.000E+00
      25     1     1     2     0     0 -1.769742371E+02  1.346210519E+02  4.753899688E+02  5.395028551E+02  1.250000000E+02  0.00000E+00  9.000E+00
      21     1     1     2   511   501  3.072938134E+01  2.573199690E+01 -4.922928908E+01  6.348191432E+01  6.743495762E-07  0.00000E+00  9.000E+00
#rwgt            1           1   2.5569949939657437E-002          10      210403           0
</event>
<event>
      5   9999  3.79277E-02  5.80083E+01 -1.00000E+00  1.35492E-01
      21    -1     0     0   502   501  0.000000000E+00  0.000000000E+00  1.715362789E+02  1.715362789E+02  0.000000000E+00  0.00000E+00  9.000E+00
       2    -1     0     0   501     0  0.000000000E+00  0.000000000E+00 -1.841646732E+03  1.841646732E+03  0.000000000E+00  0.00000E+00  9.000E+00
      25     1     1     2     0     0  1.912673633E+02 -2.204984406E+02 -4.228664303E+02  5.288135630E+02  1.250000000E+02  0.00000E+00  9.000E+00
      25     1     1     2     0     0 -1.709938588E+02  2.748487252E+02 -1.377140187E+02  3.733240850E+02  1.250000000E+02  0.00000E+00  9.000E+00
       2     1     1     2   502     0 -2.027350451E+01 -5.435028469E+01 -1.109530004E+03  1.111045363E+03  0.000000000E+00  0.00000E+00  9.000E+00
#rwgt            1           1   1.2154015900329119E-002          10      210520           0
</event>
<event>
      5   9999  3.79277E-02  1.22958E+01 -1.00000E+00  1.85923E-01
      21    -1     0     0   511   501  0.000000000E+00  0.000000000E+00  2.993517116E+01  2.993517116E+01  0.000000000E+00  0.00000E+00  9.000E+00
      21    -1     0     0   501   502  0.000000000E+00  0.000000000E+00 -2.365983375E+03  2.365983375E+03  0.000000000E+00  0.00000E+00  9.000E+00
      25     1     1     2     0     0 -1.108299595E+02  5.223431974E+01 -2.903114861E+02  3.389947832E+02  1.250000000E+02  0.00000E+00  9.000E+00
      25     1     1     2     0     0  1.098447745E+02 -3.997808071E+01 -2.028740320E+03  2.035946072E+03  1.250000000E+02  0.00000E+00  9.000E+00
      21     1     1     2   511   502  9.851849960E-01 -1.225623902E+01 -1.699639720E+01  2.097769059E+01  7.907449699E-07  0.00000E+00  9.000E+00
#rwgt            1           1   8.7513741659357686E-002          10      210647           0
</event>
<event>
      5   9999  3.79277E-02  2.56046E+02 -1.00000E+00  1.07877E-01
      21    -1     0     0   512   501  0.000000000E+00  0.000000000E+00  8.518800686E+01  8.518800686E+01  0.000000000E+00  0.00000E+00  9.000E+00
      21    -1     0     0   501   502  0.000000000E+00  0.000000000E+00 -2.251192195E+03  2.251192195E+03  0.000000000E+00  0.00000E+00  9.000E+00
      25     1     1     2     0     0  6.578651840E+01  5.353835553E+01 -1.903610825E+02  2.430155617E+02  1.250000000E+02  0.00000E+00  9.000E+00
      25     1     1     2     0     0 -3.128605384E+02  1.364805890E+01 -1.622497246E+03  1.657163329E+03  1.250000000E+02  0.00000E+00  9.000E+00
      21     1     1     2   512   502  2.470740200E+02 -6.718641443E+01 -3.531458603E+02  4.362013116E+02  9.344061824E-06  0.00000E+00  9.000E+00
#rwgt            2          11   1.1283661749997159E-003          10      210990           0
</event>
<event>
      5   9999  3.79277E-02  1.02796E+02 -1.00000E+00  1.23292E-01
      21    -1     0     0   511   501  0.000000000E+00  0.000000000E+00  2.148974105E+02  2.148974105E+02  0.000000000E+00  0.00000E+00  9.000E+00
      21    -1     0     0   501   502  0.000000000E+00  0.000000000E+00 -1.270460324E+03  1.270460324E+03  0.000000000E+00  0.00000E+00  9.000E+00
      25     1     1     2     0     0  3.176089127E+02  1.941435663E+02 -2.283900355E+02  4.542622085E+02  1.250000000E+02  0.00000E+00  9.000E+00
      25     1     1     2     0     0 -4.142182959E+02 -2.292673199E+02 -7.726305430E+02  9.147257822E+02  1.250000000E+02  0.00000E+00  9.000E+00
      21     1     1     2   511   502  9.660938326E+01  3.512375358E+01 -5.454233522E+01  1.163697441E+02  0.000000000E+00  0.00000E+00  9.000E+00
#rwgt            1           1  0.12008563803490106               10      211070           0
</event>
<event>
      5   9999  3.79277E-02  1.74610E+01 -1.00000E+00  1.71386E-01
      21    -1     0     0   502   501  0.000000000E+00  0.000000000E+00  1.746068362E+02  1.746068362E+02  0.000000000E+00  0.00000E+00  9.000E+00
      21    -1     0     0   512   502  0.000000000E+00  0.000000000E+00 -6.238558953E+02  6.238558953E+02  0.000000000E+00  0.00000E+00  9.000E+00
      25     1     1     2     0     0 -4.581633929E+01  2.372570193E+02 -5.173445234E+01  2.769322728E+02  1.250000000E+02  0.00000E+00  9.000E+00
      25     1     1     2     0     0  6.287390417E+01 -2.409886848E+02 -2.543023766E+02  3.772577007E+02  1.250000000E+02  0.00000E+00  9.000E+00
      21     1     1     2   512   501 -1.705756489E+01  3.731665469E+00 -1.432122301E+02  1.442727580E+02  2.697398305E-06  0.00000E+00  9.000E+00
#rwgt            1           1   2.7680337774119712E-002          10      211314           0
</event>
<event>
      5   9999  3.79277E-02  1.47837E+01 -1.00000E+00  1.77980E-01
      21    -1     0     0   511   501  0.000000000E+00  0.000000000E+00  1.590955725E+03  1.590955725E+03  0.000000000E+00  0.00000E+00  9.000E+00
      21    -1     0     0   501   502  0.000000000E+00  0.000000000E+00 -2.593138219E+02  2.593138219E+02  0.000000000E+00  0.00000E+00  9.000E+00
      25     1     1     2     0     0  9.189190441E+01 -9.554158736E-01 -1.889396164E+02  2.444753843E+02  1.250000000E+02  0.00000E+00  9.000E+00
      25     1     1     2     0     0 -8.641404900E+01  1.468679094E+01  9.431933492E+01  1.794553611E+02  1.250000000E+02  0.00000E+00  9.000E+00
      21     1     1     2   511   502 -5.477855414E+00 -1.373137507E+01  1.426262184E+03  1.426338801E+03  1.525878906E-05  0.00000E+00  9.000E+00
#rwgt            1           1   3.7060331911191638E-002          10      211531           0
</event>
<event>
      5   9999 -3.79277E-02  1.66742E+01 -1.00000E+00  1.73161E-01
      21    -1     0     0   512   501  0.000000000E+00  0.000000000E+00  4.885158389E+01  4.885158389E+01  0.000000000E+00  0.00000E+00  9.000E+00
      21    -1     0     0   501   502  0.000000000E+00  0.000000000E+00 -1.626530782E+03  1.626530782E+03  0.000000000E+00  0.00000E+00  9.000E+00
      25     1     1     2     0     0 -1.971503764E+02 -1.103391725E+02 -1.045471682E+03  1.076883950E+03  1.250000000E+02  0.00000E+00  9.000E+00
      25     1     1     2     0     0  1.868753223E+02  1.234713215E+02 -4.890982695E+02  5.522768061E+02  1.250000000E+02  0.00000E+00  9.000E+00
      21     1     1     2   512   502  1.027505407E+01 -1.313214901E+01 -4.310924732E+01  4.622161051E+01  4.768371582E-07  0.00000E+00  9.000E+00
#rwgt            1           1  -5.8291638926588688E-002          10      211794           0
</event>
<event>
      5   9999  3.79277E-02  5.55064E+01 -1.00000E+00  1.36535E-01
      21    -1     0     0   502   501  0.000000000E+00  0.000000000E+00  3.449630301E+02  3.449630301E+02  0.000000000E+00  0.00000E+00  9.000E+00
      21    -1     0     0   511   502  0.000000000E+00  0.000000000E+00 -1.564093374E+02  1.564093374E+02  0.000000000E+00  0.00000E+00  9.000E+00
      25     1     1     2     0     0 -5.055229546E+01  1.162575682E+01 -7.044890404E+01  1.525737228E+02  1.250000000E+02  0.00000E+00  9.000E+00
      25     1     1     2     0     0  1.837199181E+01 -5.685175681E+01  2.585040847E+02  2.932899830E+02  1.250000000E+02  0.00000E+00  9.000E+00
      21     1     1     2   511   501  3.218030365E+01  4.522599998E+01  4.985121361E-01  5.550866177E+01  6.340001941E-07  0.00000E+00  9.000E+00
#rwgt            1           1   4.4613137124824946E-002          10      212007           0
</event>
<event>
      5   9999  3.79277E-02  5.30220E+01 -1.00000E+00  1.37637E-01
      21    -1     0     0   502   501  0.000000000E+00  0.000000000E+00  1.411693125E+03  1.411693125E+03  0.000000000E+00  0.00000E+00  9.000E+00
      21    -1     0     0   512   502  0.000000000E+00  0.000000000E+00 -5.567282398E+02  5.567282398E+02  0.000000000E+00  0.00000E+00  9.000E+00
      25     1     1     2     0     0 -1.471802800E+02 -1.742392365E+02  7.181784397E+02  7.638236823E+02  1.250000000E+02  0.00000E+00  9.000E+00
      25     1     1     2     0     0  1.902662085E+02  1.433372936E+02  6.422730318E+02  6.963378901E+02  1.250000000E+02  0.00000E+00  9.000E+00
      21     1     1     2   512   501 -4.308592846E+01  3.090194292E+01 -5.054865865E+02  5.082597922E+02  7.629394531E-06  0.00000E+00  9.000E+00
#rwgt            1           1   1.1004402806459153E-002          10      212194           0
</event>
<event>
      5   9999 -3.79277E-02  1.64778E+01 -1.00000E+00  1.73624E-01
      21    -1     0     0   502   501  0.000000000E+00  0.000000000E+00  7.098024826E+01  7.098024826E+01  0.000000000E+00  0.00000E+00  9.000E+00
       2    -1     0     0   501     0  0.000000000E+00  0.000000000E+00 -3.081764810E+03  3.081764810E+03  0.000000000E+00  0.00000E+00  9.000E+00
      25     1     1     2     0     0  1.899513909E+02  1.794567144E+02 -7.154398733E+02  7.718584427E+02  1.250000000E+02  0.00000E+00  9.000E+00
      25     1     1     2     0     0 -1.831807296E+02 -1.644341867E+02 -4.031442779E+02  4.886144597E+02  1.250000000E+02  0.00000E+00  9.000E+00
       2     1     1     2   502     0 -6.770661321E+00 -1.502252776E+01 -1.892200410E+03  1.892272156E+03  2.157918644E-05  0.00000E+00  9.000E+00
#rwgt            1           1  -5.1234378870600741E-002          10      212543           0
</event>
<event>
      5   9999  3.79277E-02  1.09738E+01 -1.00000E+00  1.91205E-01
      21    -1     0     0   502   501  0.000000000E+00  0.000000000E+00  1.271076870E+02  1.271076870E+02  0.000000000E+00  0.00000E+00  9.000E+00
      21    -1     0     0   501   511  0.000000000E+00  0.000000000E+00 -3.371564718E+02  3.371564718E+02  0.000000000E+00  0.00000E+00  9.000E+00
      25     1     1     2     0     0 -2.821425345E+01 -9.495457682E+01 -3.732522779E+01  1.638004529E+02  1.250000000E+02  0.00000E+00  9.000E+00
      25     1     1     2     0     0  3.582835928E+01  1.028571274E+02 -4.435428273E+01  1.716262287E+02  1.250000000E+02  0.00000E+00  9.000E+00
      21     1     1     2   502   511 -7.614105825E+00 -7.902550561E+00 -1.283692744E+02  1.288374771E+02  1.907348633E-06  0.00000E+00  9.000E+00
#rwgt            1           1   3.8261113817313175E-002          10      212976           0
</event>
<event>
      5   9999  3.79277E-02  1.46203E+02 -1.00000E+00  1.16837E-01
      21    -1     0     0   512   501  0.000000000E+00  0.000000000E+00  6.968867160E+01  6.968867160E+01  0.000000000E+00  0.00000E+00  9.000E+00
      21    -1     0     0   501   502  0.000000000E+00  0.000000000E+00 -1.170020498E+03  1.170020498E+03  0.000000000E+00  0.00000E+00  9.000E+00
      25     1     1     2     0     0  9.672518095E+01  3.796660723E+01 -3.585198549E+02  3.936479521E+02  1.250000000E+02  0.00000E+00  9.000E+00
      25     1     1     2     0     0 -7.073172738E+01 -1.818404193E+02 -5.965057861E+02  6.399320809E+02  1.250000000E+02  0.00000E+00  9.000E+00
      21     1     1     2   512   502 -2.599345356E+01  1.438738121E+02 -1.453061857E+02  2.061291368E+02  2.697398305E-06  0.00000E+00  9.000E+00
#rwgt            1           1   2.5355106600539190E-002          10      213169           0
</event>
<event>
      5   9999  3.79277E-02  7.21536E+01 -1.00000E+00  1.30558E-01
      21    -1     0     0   502   501  0.000000000E+00  0.000000000E+00  5.501173969E+02  5.501173969E+02  0.000000000E+00  0.00000E+00  9.000E+00
      21    -1     0     0   511   502  0.000000000E+00  0.000000000E+00 -2.181322568E+02  2.181322568E+02  0.000000000E+00  0.00000E+00  9.000E+00
      25     1     1     2     0     0  1.399205520E+02 -2.206153181E+01  4.679366443E+02  5.046327131E+02  1.250000000E+02  0.00000E+00  9.000E+00
      25     1     1     2     0     0 -8.550475021E+01 -2.532062126E+01 -9.699616027E+01  1.816189728E+02  1.250000000E+02  0.00000E+00  9.000E+00
      21     1     1     2   511   501 -5.441580178E+01  4.738215308E+01 -3.895534384E+01  8.199796783E+01  1.430511475E-06  0.00000E+00  9.000E+00
#rwgt            1           1   3.8276135104064808E-002          10      213420           0
</event>
<event>
      5   9999  3.79277E-02  9.44672E+00 -1.00000E+00  1.98659E-01
      21    -1     0     0   502   501  0.000000000E+00  0.000000000E+00  6.414626613E+02  6.414626613E+02  0.000000000E+00  0.00000E+00  9.000E+00
      21    -1     0     0   512   502  0.000000000E+00  0.000000000E+00 -1.259199863E+02  1.259199863E+02  0.000000000E+00  0.00000E+00  9.000E+00
      25     1     1     2     0     0  1.998458288E+02 -1.242696085E+02  2.733027197E+02  3.817075680E+02  1.250000000E+02  0.00000E+00  9.000E+00
      25     1     1     2     0     0 -1.977188278E+02  1.334737607E+02  2.542650263E+02  3.703831574E+02  1.250000000E+02  0.00000E+00  9.000E+00
      21     1     1     2   512   501 -2.127000988E+00 -9.204152257E+00 -1.202507095E+01  1.529192216E+01  2.920019320E-07  0.00000E+00  9.000E+00
#rwgt            1           1   3.2346982213476178E-002          10      213498           0
</event>
<event>
      5   9999  3.79277E-02  5.74729E+01 -1.00000E+00  1.35710E-01
       2    -1     0     0   502     0  0.000000000E+00  0.000000000E+00  3.083421089E+02  3.083421089E+02  0.000000000E+00  0.00000E+00  9.000E+00
      21    -1     0     0   501   502  0.000000000E+00  0.000000000E+00 -2.484404541E+02  2.484404541E+02  0.000000000E+00  0.00000E+00  9.000E+00
      25     1     1     2     0     0 -1.954707758E+02 -5.515659257E+01 -6.389541107E+01  2.468981520E+02  1.250000000E+02  0.00000E+00  9.000E+00
      25     1     1     2     0     0  1.489335727E+02  2.143081697E+01  2.722066763E+01  1.975005158E+02  1.250000000E+02  0.00000E+00  9.000E+00
       2     1     1     2   501     0  4.653720308E+01  3.372577560E+01  9.657639828E+01  1.123838953E+02  1.348699152E-06  0.00000E+00  9.000E+00
#rwgt            1           1   3.3953473930734293E-002          10      213804           0
</event>
<event>
      5   9999  3.79277E-02  8.93198E+01 -1.00000E+00  1.26075E-01
      21    -1     0     0   502   501  0.000000000E+00  0.000000000E+00  5.445363026E+02  5.445363026E+02  0.000000000E+00  0.00000E+00  9.000E+00
      21    -1     0     0   511   502  0.000000000E+00  0.000000000E+00 -2.378630360E+02  2.378630360E+02  0.000000000E+00  0.00000E+00  9.000E+00
      25     1     1     2     0     0 -1.905843814E+02  3.719260414E+01  2.585028202E+02  3.466329533E+02  1.250000000E+02  0.00000E+00  9.000E+00
      25     1     1     2     0     0  2.508016727E+02  2.877636735E+01  1.339519693E+02  3.119257739E+02  1.250000000E+02  0.00000E+00  9.000E+00
      21     1     1     2   511   501 -6.021729127E+01 -6.596897149E+01 -8.578152288E+01  1.238406114E+02  2.132480600E-06  0.00000E+00  9.000E+00
#rwgt            2          11   1.8288079076366384E-003          10      213908           0
</event>
<event>
      5   9999 -3.79277E-02  1.69956E+02 -1.00000E+00  1.14284E-01
      21    -1     0     0   502   512  0.000000000E+00  0.000000000E+00  8.969525262E+02  8.969525262E+02  0.000000000E+00  0.00000E+00  9.000E+00
      21    -1     0     0   501   502  0.000000000E+00  0.000000000E+00 -1.429564485E+02  1.429564485E+02  0.000000000E+00  0.00000E+00  9.000E+00
      25     1     1     2     0     0  4.270324007E+01  1.017857324E+02  8.937371402E+00  1.669993372E+02  1.250000000E+02  0.00000E+00  9.000E+00
      25     1     1     2     0     0  3.476894116E+01 -2.530578121E+02  4.855661244E+02  5.627136010E+02  1.250000000E+02  0.00000E+00  9.000E+00
      21     1     1     2   501   512 -7.747218123E+01  1.512720797E+02  2.594925820E+02  3.101960365E+02  3.814697266E-06  0.00000E+00  9.000E+00
#rwgt            1           1  -4.2341717513096469E-002          10      213928           0
</event>
<event>
      5   9999  3.79277E-02  8.60135E+01 -1.00000E+00  1.26844E-01
      21    -1     0     0   511   501  0.000000000E+00  0.000000000E+00  1.113213664E+02  1.113213664E+02  0.000000000E+00  0.00000E+00  9.000E+00
      21    -1     0     0   501   502  0.000000000E+00  0.000000000E+00 -9.149058466E+02  9.149058466E+02  0.000000000E+00  0.00000E+00  9.000E+00
      25     1     1     2     0     0 -9.409948406E+01 -2.266195997E+01 -7.703156361E+02  7.863710679E+02  1.250000000E+02  0.00000E+00  9.000E+00
      25     1     1     2     0     0  2.887580406E+01  7.873507321E+01 -1.056206620E+01  1.508959279E+02  1.250000000E+02  0.00000E+00  9.000E+00
      21     1     1     2   511   502  6.522368000E+01 -5.607311324E+01 -2.270677799E+01  8.896021711E+01  4.768371582E-07  0.00000E+00  9.000E+00
#rwgt            1           1   3.8807838972595828E-002          10      214024           0
</event>
<event>
      5   9999  3.79277E-02  2.48336E+01 -1.00000E+00  1.58968E-01
      21    -1     0     0   502   512  0.000000000E+00  0.000000000E+00  1.082250705E+02  1.082250705E+02  0.000000000E+00  0.00000E+00  9.000E+00
      21    -1     0     0   501   502  0.000000000E+00  0.000000000E+00 -5.809164963E+02  5.809164963E+02  0.000000000E+00  0.00000E+00  9.000E+00
      25     1     1     2     0     0 -1.834292109E+02  6.821737525E+01 -2.941433135E+02  3.747601561E+02  1.250000000E+02  0.00000E+00  9.000E+00
      25     1     1     2     0     0  1.675792780E+02 -8.733508509E+01 -1.801972198E+02  2.894931252E+02  1.250000000E+02  0.00000E+00  9.000E+00
      21     1     1     2   501   512  1.584993290E+01  1.911770984E+01  1.649107467E+00  2.488828556E+01  3.613339559E-07  0.00000E+00  9.000E+00
#rwgt            1           1  0.20868186937808306               10      214187           0
</event>
<event>
      5   9999  3.79277E-02  9.45022E+00 -1.00000E+00  1.98640E-01
      21    -1     0     0   502   501  0.000000000E+00  0.000000000E+00  2.384489502E+03  2.384489502E+03  0.000000000E+00  0.00000E+00  9.000E+00
      21    -1     0     0   501   511  0.000000000E+00  0.000000000E+00 -2.432145646E+01  2.432145646E+01  0.000000000E+00  0.00000E+00  9.000E+00
      25     1     1     2     0     0 -2.977268254E+01 -3.787552813E+01  2.156775814E+02  2.538952291E+02  1.250000000E+02  0.00000E+00  9.000E+00
      25     1     1     2     0     0  2.646920859E+01  2.902150887E+01  2.140743892E+03  2.144749934E+03  1.250000000E+02  0.00000E+00  9.000E+00
      21     1     1     2   502   511  3.303473949E+00  8.854019262E+00  3.746572077E+00  1.016579557E+01  5.824810352E-07  0.00000E+00  9.000E+00
#rwgt            1           1   7.4957631662802199E-002          10      214302           0
</event>
<event>
      5   9999  3.79277E-02  2.17482E+01 -1.00000E+00  1.63421E-01
      21    -1     0     0   502   501  0.000000000E+00  0.000000000E+00  7.431484679E+02  7.431484679E+02  0.000000000E+00  0.00000E+00  9.000E+00
       2    -1     0     0   501     0  0.000000000E+00  0.000000000E+00 -2.321076089E+03  2.321076089E+03  0.000000000E+00  0.00000E+00  9.000E+00
      25     1     1     2     0     0 -7.424601303E+01  7.821514283E+01  3.079176158E+02  3.493827946E+02  1.250000000E+02  0.00000E+00  9.000E+00
      25     1     1     2     0     0  6.876633805E+01 -5.716859375E+01  4.001973803E+02  4.286956969E+02  1.250000000E+02  0.00000E+00  9.000E+00
       2     1     1     2   502     0  5.479674978E+00 -2.104654908E+01 -2.286042617E+03  2.286146065E+03  4.315837288E-05  0.00000E+00  9.000E+00
#rwgt            1           1   3.9072230610484489E-002          10      214533           0
</event>
<event>
      5   9999 -3.79277E-02  4.65291E+01 -1.00000E+00  1.40882E-01
      21    -1     0     0   502   511  0.000000000E+00  0.000000000E+00  4.611815465E+02  4.611815465E+02  0.000000000E+00  0.00000E+00  9.000E+00
      21    -1     0     0   501   502  0.000000000E+00  0.000000000E+00 -1.829364143E+03  1.829364143E+03  0.000000000E+00  0.00000E+00  9.000E+00
      25     1     1     2     0     0 -1.004333774E+02  3.357413790E+02 -1.337480304E+03  1.388267878E+03  1.250000000E+02  0.00000E+00  9.000E+00
      25     1     1     2     0     0  1.460940562E+02 -3.446889945E+02 -3.811918752E+02  5.487132420E+02  1.250000000E+02  0.00000E+00  9.000E+00
      21     1     1     2   501   511 -4.566067874E+01  8.947615546E+00  3.504895827E+02  3.535645697E+02  3.814697266E-06  0.00000E+00  9.000E+00
#rwgt            1           1 -0.18079931610552216               10      214715           0
</event>
<event>
      5   9999 -3.79277E-02  8.03509E+01 -1.00000E+00  1.28258E-01
      21    -1     0     0   512   501  0.000000000E+00  0.000000000E+00  1.801717777E+02  1.801717777E+02  0.000000000E+00  0.00000E+00  9.000E+00
      21    -1     0     0   501   502  0.000000000E+00  0.000000000E+00 -9.285054266E+02  9.285054266E+02  0.000000000E+00  0.00000E+00  9.000E+00
      25     1     1     2     0     0  1.210263371E+02  2.064465487E+01 -5.301861397E+02  5.583868898E+02  1.250000000E+02  0.00000E+00  9.000E+00
      25     1     1     2     0     0 -1.209115105E+02 -1.009955030E+02 -3.454647620E+02  3.997381478E+02  1.250000000E+02  0.00000E+00  9.000E+00
      21     1     1     2   512   502 -1.148265358E-01  8.035084815E+01  1.273172529E+02  1.505521666E+02  5.046370146E-06  0.00000E+00  9.000E+00
#rwgt            1           1 -0.19271101049440834               10      214937           0
</event>
<event>
      5   9999  3.79277E-02  4.10155E+01 -1.00000E+00  1.44168E-01
      21    -1     0     0   511   501  0.000000000E+00  0.000000000E+00  2.284158597E+01  2.284158597E+01  0.000000000E+00  0.00000E+00  9.000E+00
      21    -1     0     0   501   502  0.000000000E+00  0.000000000E+00 -1.166217513E+03  1.166217513E+03  0.000000000E+00  0.00000E+00  9.000E+00
      25     1     1     2     0     0 -1.740539762E+01  8.033830290E+01 -6.071091784E+02  6.252709375E+02  1.250000000E+02  0.00000E+00  9.000E+00
      25     1     1     2     0     0  3.454316081E+00 -4.176834565E+01 -4.346868024E+02  4.542401822E+02  1.250000000E+02  0.00000E+00  9.000E+00
      21     1     1     2   511   502  1.395108154E+01 -3.856995726E+01 -1.015799464E+02  1.095479794E+02  1.907348633E-06  0.00000E+00  9.000E+00
#rwgt            1           1   3.6800336960569530E-002          10      215005           0
</event>
<event>
      5   9999  3.79277E-02  2.74411E+01 -1.00000E+00  1.55779E-01
      21    -1     0     0   502   512  0.000000000E+00  0.000000000E+00  1.090707827E+03  1.090707827E+03  0.000000000E+00  0.00000E+00  9.000E+00
      21    -1     0     0   501   502  0.000000000E+00  0.000000000E+00 -5.112333419E+01  5.112333419E+01  0.000000000E+00  0.00000E+00  9.000E+00
      25     1     1     2     0     0 -6.247873058E+01 -1.245325941E+02  2.231268174E+02  2.912430865E+02  1.250000000E+02  0.00000E+00  9.000E+00
      25     1     1     2     0     0  7.423552828E+01  1.493276314E+02  7.558789974E+02  7.840839967E+02  1.250000000E+02  0.00000E+00  9.000E+00
      21     1     1     2   501   512 -1.175679769E+01 -2.479503726E+01  6.057867801E+01  6.650407802E+01  9.536743164E-07  0.00000E+00  9.000E+00
#rwgt            1           1   4.1319096008900436E-002          10      215097           0
</event>
<event>
      5   9999  3.79277E-02  8.80786E+01 -1.00000E+00  1.26359E-01
      21    -1     0     0   511   501  0.000000000E+00  0.000000000E+00  1.330157424E+02  1.330157424E+02  0.000000000E+00  0.00000E+00  9.000E+00
      21    -1     0     0   501   502  0.000000000E+00  0.000000000E+00 -6.207233310E+02  6.207233310E+02  0.000000000E+00  0.00000E+00  9.000E+00
      25     1     1     2     0     0  3.636958539E+01  1.652899046E+02 -2.364296891E+01  2.117250323E+02  1.250000000E+02  0.00000E+00  9.000E+00
      25     1     1     2     0     0 -6.640059890E+01 -8.248909574E+01 -4.024703941E+02  4.345352789E+02  1.250000000E+02  0.00000E+00  9.000E+00
      21     1     1     2   511   502  3.003101351E+01 -8.280080889E+01 -6.159422556E+01  1.074787623E+02  2.132480600E-06  0.00000E+00  9.000E+00
#rwgt            1           1   4.3776187737505842E-002          10      215293           0
</event>
<event>
      5   9999 -3.79277E-02  7.52937E+01 -1.00000E+00  1.29637E-01
      21    -1     0     0   512   501  0.000000000E+00  0.000000000E+00  2.723762398E+02  2.723762398E+02  0.000000000E+00  0.00000E+00  9.000E+00
      21    -1     0     0   501   502  0.000000000E+00  0.000000000E+00 -1.852717336E+02  1.852717336E+02  0.000000000E+00  0.00000E+00  9.000E+00
      25     1     1     2     0     0 -1.640204233E-01 -1.128199188E+02 -2.918220809E+01  1.708945940E+02  1.250000000E+02  0.00000E+00  9.000E+00
      25     1     1     2     0     0  7.545773370E+01  1.128651264E+02  6.503020127E+01  1.956689383E+02  1.250000000E+02  0.00000E+00  9.000E+00
      21     1     1     2   512   502 -7.529371327E+01 -4.520764966E-02  5.125651299E+01  9.108444118E+01  1.168007728E-06  0.00000E+00  9.000E+00
#rwgt            1           1 -0.18457786174536142               10      215361           0
</event>
<event>
      5   9999  3.79277E-02  5.60239E+01 -1.00000E+00  1.36314E-01
       2    -1     0     0   502     0  0.000000000E+00  0.000000000E+00  2.286195934E+03  2.286195934E+03  0.000000000E+00  0.00000E+00  9.000E+00
      21    -1     0     0   501   502  0.000000000E+00  0.000000000E+00 -7.334159717E+02  7.334159717E+02  0.000000000E+00  0.00000E+00  9.000E+00
      25     1     1     2     0     0  6.850083780E+01 -1.762495018E+02 -3.866350561E+02  4.481829072E+02  1.250000000E+02  0.00000E+00  9.000E+00
      25     1     1     2     0     0 -6.269057941E+01  1.205277087E+02 -2.886617540E+02  3.426479907E+02  1.250000000E+02  0.00000E+00  9.000E+00
       2     1     1     2   501     0 -5.810258393E+00  5.572179307E+01  2.228076772E+03  2.228781007E+03  3.051757812E-05  0.00000E+00  9.000E+00
#rwgt            1           1  0.24701342789831149               10      215420           0
</event>
<event>
      5   9999  3.79277E-02  3.50586E+01 -1.00000E+00  1.48483E-01
      21    -1     0     0   502   511  0.000000000E+00  0.000000000E+00  5.396845384E+02  5.396845384E+02  0.000000000E+00  0.00000E+00  9.000E+00
      21    -1     0     0   501   502  0.000000000E+00  0.000000000E+00 -7.499687158E+01  7.499687158E+01  0.000000000E+00  0.00000E+00  9.000E+00
      25     1     1     2     0     0 -9.809576025E+01 -3.387292832E+01  1.047308065E+02  1.932969097E+02  1.250000000E+02  0.00000E+00  9.000E+00
      25     1     1     2     0     0  7.956807649E+01  6.363584244E+01  1.964522711E+02  2.541635184E+02  1.250000000E+02  0.00000E+00  9.000E+00
      21     1     1     2   501   511  1.852768376E+01 -2.976291412E+01  1.635045892E+02  1.672209820E+02  1.907348633E-06  0.00000E+00  9.000E+00
#rwgt            1           1   4.7011190643074546E-002          10      215495           0
</event>
<event>
      5   9999  3.79277E-02  9.38333E+01 -1.00000E+00  1.25084E-01
      21    -1     0     0   502   501  0.000000000E+00  0.000000000E+00  1.060703883E+02  1.060703883E+02  0.000000000E+00  0.00000E+00  9.000E+00
      21    -1     0     0   512   502  0.000000000E+00  0.000000000E+00 -9.043489857E+02  9.043489857E+02  0.000000000E+00  0.00000E+00  9.000E+00
      25     1     1     2     0     0  2.117451218E+02 -5.415358796E+01 -5.981168920E+02  6.489510183E+02  1.250000000E+02  0.00000E+00  9.000E+00
      25     1     1     2     0     0 -1.373269645E+02 -3.000833444E+00 -6.467425348E+01  1.966607720E+02  1.250000000E+02  0.00000E+00  9.000E+00
      21     1     1     2   512   501 -7.441815727E+01  5.715442141E+01 -1.354874519E+02  1.648075837E+02  2.697398305E-06  0.00000E+00  9.000E+00
#rwgt            1           1   3.7374113135536555E-002          10      215599           0
</event>
<event>
      5   9999  3.79277E-02  9.03056E+01 -1.00000E+00  1.25853E-01
      21    -1     0     0   511   501  0.000000000E+00  0.000000000E+00  2.194092945E+02  2.194092945E+02  0.000000000E+00  0.00000E+00  9.000E+00
      21    -1     0     0   501   502  0.000000000E+00  0.000000000E+00 -3.149995737E+03  3.149995737E+03  0.000000000E+00  0.00000E+00  9.000E+00
      25     1     1     2     0     0 -1.285391927E+02  1.749848946E+01 -2.861650341E+03  2.867315155E+03  1.250000000E+02  0.00000E+00  9.000E+00
      25     1     1     2     0     0  7.228317978E+01  5.314403391E+01 -2.535437418E+02  2.965781101E+02  1.250000000E+02  0.00000E+00  9.000E+00
      21     1     1     2   511   502  5.625601290E+01 -7.064252337E+01  1.846076408E+02  2.055117664E+02  4.672030912E-06  0.00000E+00  9.000E+00
#rwgt            1           1   3.9139014529287440E-002          10      215650           0
</event>
<event>
      5   9999  3.79277E-02  1.49988E+02 -1.00000E+00  1.16395E-01
      21    -1     0     0   502   512  0.000000000E+00  0.000000000E+00  2.648389072E+02  2.648389072E+02  0.000000000E+00  0.00000E+00  9.000E+00
      21    -1     0     0   501   502  0.000000000E+00  0.000000000E+00 -9.504053031E+02  9.504053031E+02  0.000000000E+00  0.00000E+00  9.000E+00
      25     1     1     2     0     0  2.140513980E+02 -1.226990466E+02 -4.775558068E+02  5.518673805E+02  1.250000000E+02  0.00000E+00  9.000E+00
      25     1     1     2     0     0 -3.424602442E+02  4.519102361E+01 -3.110955896E+02  4.813800092E+02  1.250000000E+02  0.00000E+00  9.000E+00
      21     1     1     2   501   512  1.284088462E+02  7.750802300E+01  1.030850004E+02  1.819968206E+02  1.348699152E-06  0.00000E+00  9.000E+00
#rwgt            2          11   2.4185820205847885E-003          10      215744           0
</event>
<event>
      5   9999  3.79277E-02  3.00074E+01 -1.00000E+00  1.53032E-01
      21    -1     0     0   511   501  0.000000000E+00  0.000000000E+00  1.034703681E+03  1.034703681E+03  0.000000000E+00  0.00000E+00  9.000E+00
      21    -1     0     0   501   502  0.000000000E+00  0.000000000E+00 -1.062177663E+02  1.062177663E+02  0.000000000E+00  0.00000E+00  9.000E+00
      25     1     1     2     0     0 -3.168843427E+01 -4.893009815E+01 -4.003071254E+01  1.436167446E+02  1.250000000E+02  0.00000E+00  9.000E+00
      25     1     1     2     0     0  6.052496551E+00  3.333388399E+01  2.840579542E+02  3.121885678E+02  1.250000000E+02  0.00000E+00  9.000E+00
      21     1     1     2   511   502  2.563593772E+01  1.559621417E+01  6.844586728E+02  6.851161347E+02  7.629394531E-06  0.00000E+00  9.000E+00
#rwgt            1           1   4.3571365848926583E-002          10      215779           0
</event>
<event>
      5   9999  3.79277E-02  3.04249E+01 -1.00000E+00  1.52617E-01
       2    -1     0     0   502     0  0.000000000E+00  0.000000000E+00  1.300720705E+03  1.300720705E+03  0.000000000E+00  0.00000E+00  9.000E+00
      21    -1     0     0   501   502  0.000000000E+00  0.000000000E+00 -1.583516193E+02  1.583516193E+02  0.000000000E+00  0.00000E+00  9.000E+00
      25     1     1     2     0     0  1.910959384E+01  5.514664857E-01  1.411567228E+02  1.895143822E+02  1.250000000E+02  0.00000E+00  9.000E+00
      25     1     1     2     0     0  1.115379400E+01  2.579099218E+00 -1.045599161E+02  1.633671782E+02  1.250000000E+02  0.00000E+00  9.000E+00
       2     1     1     2   501     0 -3.026338785E+01 -3.130565704E+00  1.105772279E+03  1.106190763E+03  0.000000000E+00  0.00000E+00  9.000E+00
#rwgt            1           1   4.9703508122559040E-002          10      215880           0
</event>
<event>
      5   9999  3.79277E-02  9.20846E+01 -1.00000E+00  1.25460E-01
      21    -1     0     0   502   511  0.000000000E+00  0.000000000E+00  1.069021601E+03  1.069021601E+03  0.000000000E+00  0.00000E+00  9.000E+00
      21    -1     0     0   501   502  0.000000000E+00  0.000000000E+00 -6.252945211E+01  6.252945211E+01  0.000000000E+00  0.00000E+00  9.000E+00
      25     1     1     2     0     0  4.332598608E+01  5.720317981E+01  9.373203885E+01  1.719303346E+02  1.250000000E+02  0.00000E+00  9.000E+00
      25     1     1     2     0     0 -5.682168863E+01 -1.482934843E+02  5.727148916E+02  6.073277606E+02  1.250000000E+02  0.00000E+00  9.000E+00
      21     1     1     2   501   511  1.349570255E+01  9.109030452E+01  3.400452181E+02  3.522929575E+02  5.394796609E-06  0.00000E+00  9.000E+00
#rwgt            1           1   3.8457471018628890E-002          10      216021           0
</event>
<event>
      5   9999  3.79277E-02  2.89488E+02 -1.00000E+00  1.06098E-01
      21    -1     0     0   502   501  0.000000000E+00  0.000000000E+00  6.542100329E+02  6.542100329E+02  0.000000000E+00  0.00000E+00  9.000E+00
      21    -1     0     0   512   502  0.000000000E+00  0.000000000E+00 -1.713229881E+03  1.713229881E+03  0.000000000E+00  0.00000E+00  9.000E+00
      25     1     1     2     0     0 -2.269307776E+02 -5.628229860E+01  3.891135867E+02  4.708499318E+02  1.250000000E+02  0.00000E+00  9.000E+00
      25     1     1     2     0     0  2.200174494E+02 -2.331232966E+02  6.999228434E+01  3.511097682E+02  1.250000000E+02  0.00000E+00  9.000E+00
      21     1     1     2   512   501  6.913328250E+00  2.894055952E+02 -1.518125720E+03  1.545480214E+03  0.000000000E+00  0.00000E+00  9.000E+00
#rwgt            1           1  0.12152876670501275               10      216153           0
</event>
<event>
      5   9999  3.79277E-02  9.41284E+01 -1.00000E+00  1.25022E-01
      21    -1     0     0   502   511  0.000000000E+00  0.000000000E+00  6.103272296E+02  6.103272296E+02  0.000000000E+00  0.00000E+00  9.000E+00
      21    -1     0     0   501   502  0.000000000E+00  0.000000000E+00 -4.019347667E+02  4.019347667E+02  0.000000000E+00  0.00000E+00  9.000E+00
      25     1     1     2     0     0  3.006440665E+02  1.970994537E+02 -9.675818254E+01  3.927113383E+02  1.250000000E+02  0.00000E+00  9.000E+00
      25     1     1     2     0     0 -2.161452703E+02 -2.385737621E+02  5.170669790E+01  3.491916385E+02  1.250000000E+02  0.00000E+00  9.000E+00
      21     1     1     2   501   511 -8.449879621E+01  4.147430836E+01  2.534439476E+02  2.703590194E+02  2.697398305E-06  0.00000E+00  9.000E+00
#rwgt            1           1   4.3752504466978134E-002          10      216228           0
</event>
<event>
      5   9999  3.79277E-02  2.96532E+01 -1.00000E+00  1.53391E-01
      21    -1     0     0   512   501  0.000000000E+00  0.000000000E+00  4.806710642E+02  4.806710642E+02  0.000000000E+00  0.00000E+00  9.000E+00
      21    -1     0     0   501   502  0.000000000E+00  0.000000000E+00 -1.011909382E+02  1.011909382E+02  0.000000000E+00  0.00000E+00  9.000E+00
      25     1     1     2     0     0  4.370296171E+01  8.186619833E+00 -3.210608630E+01  1.365019062E+02  1.250000000E+02  0.00000E+00  9.000E+00
      25     1     1     2     0     0 -2.408222421E+01  1.404707605E+01  2.480938474E+02  2.792003420E+02  1.250000000E+02  0.00000E+00  9.000E+00
      21     1     1     2   512   502 -1.962073750E+01 -2.223369589E+01  1.634923649E+02  1.661597543E+02  0.000000000E+00  0.00000E+00  9.000E+00
#rwgt            1           1   4.3137208082633362E-002          10      216315           0
</event>
<event>
      5   9999  3.79277E-02  7.24683E+01 -1.00000E+00  1.30463E-01
      21    -1     0     0   511   501  0.000000000E+00  0.000000000E+00  1.398619231E+02  1.398619231E+02  0.000000000E+00  0.00000E+00  9.000E+00
      21    -1     0     0   501   502  0.000000000E+00  0.000000000E+00 -6.920143452E+02  6.920143452E+02  0.000000000E+00  0.00000E+00  9.000E+00
      25     1     1     2     0     0  1.193850311E+01  2.340140824E+02 -2.318947121E+02  3.525695338E+02  1.250000000E+02  0.00000E+00  9.000E+00
      25     1     1     2     0     0  4.132370476E+01 -1.848735977E+02 -3.356891890E+02  4.052136811E+02  1.250000000E+02  0.00000E+00  9.000E+00
      21     1     1     2   511   502 -5.326220787E+01 -4.914048477E+01  1.543147900E+01  7.409305349E+01  1.203954809E-06  0.00000E+00  9.000E+00
#rwgt            1           1   3.8191739663229314E-002          10      216416           0
</event>
<event>
      5   9999  3.79277E-02  2.67953E+01 -1.00000E+00  1.56528E-01
      21    -1     0     0   512   501  0.000000000E+00  0.000000000E+00  2.168306717E+01  2.168306717E+01  0.000000000E+00  0.00000E+00  9.000E+00
      21    -1     0     0   501   502  0.000000000E+00  0.000000000E+00 -2.483197415E+03  2.483197415E+03  0.000000000E+00  0.00000E+00  9.000E+00
      25     1     1     2     0     0  1.590996819E+02  1.754353444E+01 -1.509100541E+03  1.522704807E+03  1.250000000E+02  0.00000E+00  9.000E+00
      25     1     1     2     0     0 -1.347483509E+02 -6.363226316E+00 -9.276004503E+02  9.456559650E+02  1.250000000E+02  0.00000E+00  9.000E+00
      21     1     1     2   512   502 -2.435133099E+01 -1.118030812E+01 -2.481335618E+01  3.651971051E+01  1.305872339E-06  0.00000E+00  9.000E+00
#rwgt            1           1  0.14563383058342100               10      216713           0
</event>
<event>
      5   9999  3.79277E-02  3.99151E+01 -1.00000E+00  1.44897E-01
      21    -1     0     0   511   501  0.000000000E+00  0.000000000E+00  6.783917444E+02  6.783917444E+02  0.000000000E+00  0.00000E+00  9.000E+00
      21    -1     0     0   501   502  0.000000000E+00  0.000000000E+00 -1.948943840E+02  1.948943840E+02  0.000000000E+00  0.00000E+00  9.000E+00
      25     1     1     2     0     0 -1.045573046E+02 -1.915205596E+02  2.158361379E+02  3.313949202E+02  1.250000000E+02  0.00000E+00  9.000E+00
      25     1     1     2     0     0  1.021730149E+02  2.313643689E+02  1.120372139E+01  2.823460988E+02  1.250000000E+02  0.00000E+00  9.000E+00
      21     1     1     2   511   502  2.384289681E+00 -3.984380927E+01  2.564575010E+02  2.595451094E+02  0.000000000E+00  0.00000E+00  9.000E+00
#rwgt            1           1   4.6075067684274336E-002          10      216845           0
</event>
<event>
      5   9999  3.79277E-02  3.64926E+01 -1.00000E+00  1.47356E-01
      21    -1     0     0   502   501  0.000000000E+00  0.000000000E+00  9.961737099E+02  9.961737099E+02  0.000000000E+00  0.00000E+00  9.000E+00
      21    -1     0     0   512   502  0.000000000E+00  0.000000000E+00 -6.728850783E+02  6.728850783E+02  0.000000000E+00  0.00000E+00  9.000E+00
      25     1     1     2     0     0  3.040529652E+02  8.677772987E+01  2.242604220E+02  4.073037158E+02  1.250000000E+02  0.00000E+00  9.000E+00
      25     1     1     2     0     0 -2.794266405E+02 -1.137082348E+02  6.405611155E+02  7.189939866E+02  1.250000000E+02  0.00000E+00  9.000E+00
      21     1     1     2   512   501 -2.462632469E+01  2.693050490E+01 -5.415329059E+02  5.427610857E+02  0.000000000E+00  0.00000E+00  9.000E+00
#rwgt            1           1   3.5027911017611067E-002          10      217005           0
</event>
<event>
      5   9999  3.79277E-02  5.10950E+01 -1.00000E+00  1.38541E-01
      21    -1     0     0   502   501  0.000000000E+00  0.000000000E+00  3.994279979E+02  3.994279979E+02  0.000000000E+00  0.00000E+00  9.000E+00
      -2    -1     0     0     0   502  0.000000000E+00  0.000000000E+00 -1.285000954E+03  1.285000954E+03  0.000000000E+00  0.00000E+00  9.000E+00
      25     1     1     2     0     0 -1.814306190E+02 -4.818392915E+01  1.694017222E+02  2.820650705E+02  1.250000000E+02  0.00000E+00  9.000E+00
      25     1     1     2     0     0  1.507846556E+02  8.906826150E+01  1.062850727E+02  2.399805914E+02  1.250000000E+02  0.00000E+00  9.000E+00
      -2     1     1     2     0   501  3.064596343E+01 -4.088433235E+01 -1.161259751E+03  1.162383290E+03  2.157918644E-05  0.00000E+00  9.000E+00
#rwgt            1           1   1.5739990988016407E-002          10      217260           0
</event>
<event>
      5   9999  3.79277E-02  6.89009E+01 -1.00000E+00  1.31570E-01
      21    -1     0     0   502   501  0.000000000E+00  0.000000000E+00  1.453014491E+02  1.453014491E+02  0.000000000E+00  0.00000E+00  9.000E+00
      21    -1     0     0   501   511  0.000000000E+00  0.000000000E+00 -3.818752044E+02  3.818752044E+02  0.000000000E+00  0.00000E+00  9.000E+00
      25     1     1     2     0     0 -7.871279309E+01 -8.986625883E+01 -7.914306264E+01  1.901585461E+02  1.250000000E+02  0.00000E+00  9.000E+00
      25     1     1     2     0     0  7.198945063E+01  1.584383385E+02 -6.939216508E+01  2.252231353E+02  1.250000000E+02  0.00000E+00  9.000E+00
      21     1     1     2   502   511  6.723342466E+00 -6.857207966E+01 -8.803852765E+01  1.117949721E+02  0.000000000E+00  0.00000E+00  9.000E+00
#rwgt            1           1   3.6518260253690704E-002          10      217346           0
</event>
<event>
      5   9999  3.79277E-02  6.86896E+01 -1.00000E+00  1.31638E-01
      21    -1     0     0   502   501  0.000000000E+00  0.000000000E+00  6.864522815E+01  6.864522815E+01  0.000000000E+00  0.00000E+00  9.000E+00
      21    -1     0     0   501   512  0.000000000E+00  0.000000000E+00 -9.353959537E+02  9.353959537E+02  0.000000000E+00  0.00000E+00  9.000E+00
      25     1     1     2     0     0 -2.730444448E+01 -1.375094454E+02 -1.684621117E+02  2.523070814E+02  1.250000000E+02  0.00000E+00  9.000E+00
      25     1     1     2     0     0  9.384910560E+01  1.204779195E+02 -4.052096148E+02  4.507132299E+02  1.250000000E+02  0.00000E+00  9.000E+00
      21     1     1     2   502   512 -6.654466112E+01  1.703152589E+01 -2.930789991E+02  3.010208705E+02  0.000000000E+00  0.00000E+00  9.000E+00
#rwgt            1           1   3.2220660327703404E-002          10      217448           0
</event>
<event>
      5   9999  3.79277E-02  3.74739E+01 -1.00000E+00  1.46619E-01
      21    -1     0     0   502   511  0.000000000E+00  0.000000000E+00  5.904173379E+02  5.904173379E+02  0.000000000E+00  0.00000E+00  9.000E+00
      21    -1     0     0   501   502  0.000000000E+00  0.000000000E+00 -1.052813345E+02  1.052813345E+02  0.000000000E+00  0.00000E+00  9.000E+00
      25     1     1     2     0     0  4.439899580E+01  1.560684594E+02  1.960598248E+02  2.835367520E+02  1.250000000E+02  0.00000E+00  9.000E+00
      25     1     1     2     0     0 -8.009709652E+01 -1.446693108E+02  1.211347332E+02  2.400903537E+02  1.250000000E+02  0.00000E+00  9.000E+00
      21     1     1     2   501   511  3.569810072E+01 -1.139914860E+01  1.679414454E+02  1.720715667E+02  0.000000000E+00  0.00000E+00  9.000E+00
#rwgt            1           1   2.0303439968755537E-002          10      217527           0
</event>
<event>
      5   9999  3.79277E-02  4.19478E+01 -1.00000E+00  1.43571E-01
      21    -1     0     0   512   501  0.000000000E+00  0.000000000E+00  5.562599471E+01  5.562599471E+01  0.000000000E+00  0.00000E+00  9.000E+00
      21    -1     0     0   501   502  0.000000000E+00  0.000000000E+00 -5.322940708E+02  5.322940708E+02  0.000000000E+00  0.00000E+00  9.000E+00
      25     1     1     2     0     0  2.644074628E+01 -5.962560667E+01 -2.520149118E+02  2.887747250E+02  1.250000000E+02  0.00000E+00  9.000E+00
      25     1     1     2     0     0 -6.831766946E+01  6.206258339E+01 -1.822836330E+02  2.395232579E+02  1.250000000E+02  0.00000E+00  9.000E+00
      21     1     1     2   512   502  4.187692318E+01 -2.436976724E+00 -4.236953132E+01  5.962208261E+01  4.768371582E-07  0.00000E+00  9.000E+00
#rwgt            1           1   8.5289431968569904E-002          10      217737           0
</event>
<event>
      5   9999  3.79277E-02  5.84240E+01 -1.00000E+00  1.35324E-01
      21    -1     0     0   502   511  0.000000000E+00  0.000000000E+00  2.909687437E+02  2.909687437E+02  0.000000000E+00  0.00000E+00  9.000E+00
      21    -1     0     0   501   502  0.000000000E+00  0.000000000E+00 -1.016543617E+03  1.016543617E+03  0.000000000E+00  0.00000E+00  9.000E+00
      25     1     1     2     0     0  1.743010767E+02 -3.667948646E+02 -2.749866499E+01  4.257939815E+02  1.250000000E+02  0.00000E+00  9.000E+00
      25     1     1     2     0     0 -1.214452390E+02  3.419027146E+02 -7.227367966E+02  8.183030548E+02  1.250000000E+02  0.00000E+00  9.000E+00
      21     1     1     2   501   511 -5.285583773E+01  2.489215004E+01  2.466058851E+01  6.341532419E+01  1.651812370E-06  0.00000E+00  9.000E+00
#rwgt            1           1   9.9296313358374771E-002          10      217896           0
</event>
<event>
      5   9999  3.79277E-02  7.34552E+01 -1.00000E+00  1.30170E-01
      21    -1     0     0   502   501  0.000000000E+00  0.000000000E+00  7.874363767E+02  7.874363767E+02  0.000000000E+00  0.00000E+00  9.000E+00
      21    -1     0     0   501   512  0.000000000E+00  0.000000000E+00 -4.361952866E+02  4.361952866E+02  0.000000000E+00  0.00000E+00  9.000E+00
      25     1     1     2     0     0 -6.736800723E+01  4.839636190E+02  1.411315296E+01  5.045625967E+02  1.250000000E+02  0.00000E+00  9.000E+00
      25     1     1     2     0     0  1.773810616E+01 -5.381165011E+02  3.334509684E+02  6.455219264E+02  1.250000000E+02  0.00000E+00  9.000E+00
      21     1     1     2   502   512  4.962990107E+01  5.415288218E+01  3.676968708E+00  7.354714017E+01  1.005359161E-06  0.00000E+00  9.000E+00
#rwgt            1           1   7.3971580605236328E-002          10      218000           0
</event>
<event>
      5   9999  3.79277E-02  5.13657E+01 -1.00000E+00  1.38411E-01
      21    -1     0     0   502   501  0.000000000E+00  0.000000000E+00  2.507783494E+02  2.507783494E+02  0.000000000E+00  0.00000E+00  9.000E+00
      21    -1     0     0   501   511  0.000000000E+00  0.000000000E+00 -3.050021527E+02  3.050021527E+02  0.000000000E+00  0.00000E+00  9.000E+00
      25     1     1     2     0     0  1.056525575E+02  9.130392078E+01 -2.800063901E+01  1.894938116E+02  1.250000000E+02  0.00000E+00  9.000E+00
      25     1     1     2     0     0 -9.494727626E+01 -1.415416686E+02  9.717054000E+01  2.326287666E+02  1.250000000E+02  0.00000E+00  9.000E+00
      21     1     1     2   502   511 -1.070528119E+01  5.023774781E+01 -1.233937043E+02  1.336579238E+02  1.348699152E-06  0.00000E+00  9.000E+00
#rwgt            1           1   3.6353836883002359E-002          10      218112           0
</event>
<event>
      5   9999  3.79277E-02  1.31191E+01 -1.00000E+00  1.83047E-01
      21    -1     0     0   502   512  0.000000000E+00  0.000000000E+00  9.948694823E+01  9.948694823E+01  0.000000000E+00  0.00000E+00  9.000E+00
      21    -1     0     0   501   502  0.000000000E+00  0.000000000E+00 -2.880085956E+02  2.880085956E+02  0.000000000E+00  0.00000E+00  9.000E+00
      25     1     1     2     0     0  2.698090188E+01  3.813251103E+01 -2.027060513E+02  2.426866307E+02  1.250000000E+02  0.00000E+00  9.000E+00
      25     1     1     2     0     0 -2.612628297E+01 -2.504125940E+01  1.742731748E+01  1.312949303E+02  1.250000000E+02  0.00000E+00  9.000E+00
      21     1     1     2   501   512 -8.546189178E-01 -1.309125164E+01 -3.242913473E+00  1.351398278E+01  2.308477966E-07  0.00000E+00  9.000E+00
#rwgt            1           1   3.8127614627304574E-002          10      218397           0
</event>
<event>
      5   9999  3.79277E-02  4.96414E+01 -1.00000E+00  1.39254E-01
      21    -1     0     0   502   501  0.000000000E+00  0.000000000E+00  8.876341250E+02  8.876341250E+02  0.000000000E+00  0.00000E+00  9.000E+00
      21    -1     0     0   501   511  0.000000000E+00  0.000000000E+00 -1.085064248E+02  1.085064248E+02  0.000000000E+00  0.00000E+00  9.000E+00
      25     1     1     2     0     0  5.479222772E+01  1.323473922E+02  1.939872313E+02  2.716138184E+02  1.250000000E+02  0.00000E+00  9.000E+00
      25     1     1     2     0     0 -1.020999603E+01 -1.105141035E+02  6.335243942E+02  6.552066614E+02  1.250000000E+02  0.00000E+00  9.000E+00
      21     1     1     2   502   511 -4.458223169E+01 -2.183328871E+01 -4.838392534E+01  6.932007003E+01  9.536743164E-07  0.00000E+00  9.000E+00
#rwgt            1           1   3.9505961062464179E-002          10      218601           0
</event>
<event>
      5   9999  3.79277E-02  6.30611E+01 -1.00000E+00  1.33559E-01
       2    -1     0     0   502     0  0.000000000E+00  0.000000000E+00  1.657724786E+03  1.657724786E+03  0.000000000E+00  0.00000E+00  9.000E+00
      21    -1     0     0   501   502  0.000000000E+00  0.000000000E+00 -5.671473179E+01  5.671473179E+01  0.000000000E+00  0.00000E+00  9.000E+00
      25     1     1     2     0     0  2.597533952E+02  7.402348315E+01  8.993232143E+02  9.472901066E+02  1.250000000E+02  0.00000E+00  9.000E+00
      25     1     1     2     0     0 -2.015468824E+02 -4.976030789E+01  6.048774482E+02  6.516125854E+02  1.250000000E+02  0.00000E+00  9.000E+00
       2     1     1     2   501     0 -5.820651286E+01 -2.426317527E+01  9.680939220E+01  1.155368263E+02  1.348699152E-06  0.00000E+00  9.000E+00
#rwgt            1           1   4.4510548013158180E-002          10      218734           0
</event>
<event>
      5   9999  3.79277E-02  1.13816E+02 -1.00000E+00  1.21352E-01
      21    -1     0     0   502   501  0.000000000E+00  0.000000000E+00  5.218028352E+02  5.218028352E+02  0.000000000E+00  0.00000E+00  9.000E+00
      -1    -1     0     0     0   502  0.000000000E+00  0.000000000E+00 -2.771483210E+02  2.771483210E+02  0.000000000E+00  0.00000E+00  9.000E+00
      25     1     1     2     0     0  9.753028732E+01 -2.718478599E+01  2.297027435E+02  2.804273879E+02  1.250000000E+02  0.00000E+00  9.000E+00
      25     1     1     2     0     0 -8.663177325E+01 -8.610771718E+01  2.218287604E+02  2.824050319E+02  1.250000000E+02  0.00000E+00  9.000E+00
      -1     1     1     2     0   501 -1.089851407E+01  1.132925032E+02 -2.068769896E+02  2.361187365E+02  2.697398305E-06  0.00000E+00  9.000E+00
#rwgt            1           1   4.9237398789345715E-002          10      218876           0
</event>
<event>
      5   9999  3.79277E-02  5.18615E+01 -1.00000E+00  1.38176E-01
      21    -1     0     0   502   501  0.000000000E+00  0.000000000E+00  4.195429049E+02  4.195429049E+02  0.000000000E+00  0.00000E+00  9.000E+00
      21    -1     0     0   511   502  0.000000000E+00  0.000000000E+00 -2.200094265E+02  2.200094265E+02  0.000000000E+00  0.00000E+00  9.000E+00
      25     1     1     2     0     0 -6.077333008E+01  9.979265175E+01  1.822117794E+02  2.499562032E+02  1.250000000E+02  0.00000E+00  9.000E+00
      25     1     1     2     0     0  1.256634237E+01 -1.189159502E+02  1.613261755E+02  2.365376314E+02  1.250000000E+02  0.00000E+00  9.000E+00
      21     1     1     2   511   501  4.820698771E+01  1.912329846E+01 -1.440044764E+02  1.530584968E+02  2.697398305E-06  0.00000E+00  9.000E+00
#rwgt            1           1   2.4727024423500086E-002          10      218998           0
</event>
<event>
      5   9999  3.79277E-02  5.47109E+01 -1.00000E+00  1.36881E-01
      21    -1     0     0   502   501  0.000000000E+00  0.000000000E+00  5.543546583E+02  5.543546583E+02  0.000000000E+00  0.00000E+00  9.000E+00
      21    -1     0     0   501   512  0.000000000E+00  0.000000000E+00 -2.522878908E+02  2.522878908E+02  0.000000000E+00  0.00000E+00  9.000E+00
      25     1     1     2     0     0 -7.220641724E+01 -1.353039249E+02  4.065618945E+02  4.521487508E+02  1.250000000E+02  0.00000E+00  9.000E+00
      25     1     1     2     0     0  1.111838799E+02  1.736971630E+02 -5.306863708E+00  2.412171685E+02  1.250000000E+02  0.00000E+00  9.000E+00
      21     1     1     2   502   512 -3.897746264E+01 -3.839323802E+01 -9.918826324E+01  1.132766299E+02  1.348699152E-06  0.00000E+00  9.000E+00
#rwgt            1           1   3.9861503568582271E-002          10      219082           0
</event>
<event>
      5   9999  3.79277E-02  3.52495E+01 -1.00000E+00  1.48330E-01
      21    -1     0     0   502   501  0.000000000E+00  0.000000000E+00  6.369180694E+01  6.369180694E+01  0.000000000E+00  0.00000E+00  9.000E+00
      21    -1     0     0   511   502  0.000000000E+00  0.000000000E+00 -8.083566209E+02  8.083566209E+02  0.000000000E+00  0.00000E+00  9.000E+00
      25     1     1     2     0     0  7.424764838E+01  9.684866195E+01 -4.540316479E+02  4.864793047E+02  1.250000000E+02  0.00000E+00  9.000E+00
      25     1     1     2     0     0 -1.008416499E+02 -1.199849163E+02 -1.798945128E+02  2.693556278E+02  1.250000000E+02  0.00000E+00  9.000E+00
      21     1     1     2   511   501  2.659400148E+01  2.313625432E+01 -1.107386532E+02  1.162134953E+02  2.336015456E-06  0.00000E+00  9.000E+00
#rwgt            1           1   4.3975567068426272E-002          10      219182           0
</event>
<event>
      5   9999  3.79277E-02  2.07935E+01 -1.00000E+00  1.64987E-01
      21    -1     0     0   512   501  0.000000000E+00  0.000000000E+00  1.959439713E+03  1.959439713E+03  0.000000000E+00  0.00000E+00  9.000E+00
      21    -1     0     0   501   502  0.000000000E+00  0.000000000E+00 -3.681579666E+01  3.681579666E+01  0.000000000E+00  0.00000E+00  9.000E+00
      25     1     1     2     0     0  1.974084957E+02  5.325738057E+01  1.047645833E+03  1.074706125E+03  1.250000000E+02  0.00000E+00  9.000E+00
      25     1     1     2     0     0 -2.093423534E+02 -7.028537295E+01  6.859302499E+02  7.313614444E+02  1.250000000E+02  0.00000E+00  9.000E+00
      21     1     1     2   512   502  1.193385762E+01  1.702799238E+01  1.890478332E+02  1.901879406E+02  0.000000000E+00  0.00000E+00  9.000E+00
#rwgt            1           1   3.8287686197037041E-002          10      219343           0
</event>
<event>
      5   9999  3.79277E-02  3.13422E+01 -1.00000E+00  1.51731E-01
       1    -1     0     0   502     0  0.000000000E+00  0.000000000E+00  6.613127959E+02  6.613127959E+02  0.000000000E+00  0.00000E+00  9.000E+00
      21    -1     0     0   501   502  0.000000000E+00  0.000000000E+00 -1.280581116E+02  1.280581116E+02  0.000000000E+00  0.00000E+00  9.000E+00
      25     1     1     2     0     0 -1.234158863E+02  5.038223336E+01 -1.684305445E+01  1.835171352E+02  1.250000000E+02  0.00000E+00  9.000E+00
      25     1     1     2     0     0  1.092284062E+02 -2.243492638E+01  2.316570111E+02  2.858743455E+02  1.250000000E+02  0.00000E+00  9.000E+00
       1     1     1     2   501     0  1.418748010E+01 -2.794730698E+01  3.184407276E+02  3.199794268E+02  5.394796609E-06  0.00000E+00  9.000E+00
#rwgt            1           1   2.4779958352696134E-002          10      219560           0
</event>
<event>
      5   9999  3.79277E-02  1.82819E+01 -1.00000E+00  1.69653E-01
      21    -1     0     0   511   501  0.000000000E+00  0.000000000E+00  4.323999225E+02  4.323999225E+02  0.000000000E+00  0.00000E+00  9.000E+00
      21    -1     0     0   501   502  0.000000000E+00  0.000000000E+00 -1.502641321E+02  1.502641321E+02  0.000000000E+00  0.00000E+00  9.000E+00
      25     1     1     2     0     0 -1.933763017E+02  5.830699537E+01  2.277910455E+02  3.291015955E+02  1.250000000E+02  0.00000E+00  9.000E+00
      25     1     1     2     0     0  1.753615431E+02 -6.142083654E+01  3.450319995E+01  2.265825694E+02  1.250000000E+02  0.00000E+00  9.000E+00
      21     1     1     2   511   502  1.801475862E+01  3.113841168E+00  1.984154501E+01  2.697988960E+01  4.129530925E-07  0.00000E+00  9.000E+00
#rwgt            1           1   7.7497063336865402E-002          10      219735           0
</event>
<event>
      5   9999  3.79277E-02  3.69248E+01 -1.00000E+00  1.47028E-01
      21    -1     0     0   512   501  0.000000000E+00  0.000000000E+00  6.355586213E+02  6.355586213E+02  0.000000000E+00  0.00000E+00  9.000E+00
      21    -1     0     0   501   502  0.000000000E+00  0.000000000E+00 -1.938593970E+02  1.938593970E+02  0.000000000E+00  0.00000E+00  9.000E+00
      25     1     1     2     0     0  2.887406456E+00 -1.972374103E+02 -6.462859789E+01  2.423072199E+02  1.250000000E+02  0.00000E+00  9.000E+00
      25     1     1     2     0     0  3.363610480E+01  2.026666115E+02  3.382323915E+02  4.150075826E+02  1.250000000E+02  0.00000E+00  9.000E+00
      21     1     1     2   512   502 -3.652351126E+01 -5.429201139E+00  1.680954307E+02  1.721032159E+02  3.303624740E-06  0.00000E+00  9.000E+00
#rwgt            1           1   4.3648427377596145E-002          10      219889           0
</event>
<event>
      5   9999  3.79277E-02  2.11098E+01 -1.00000E+00  1.64457E-01
      21    -1     0     0   502   501  0.000000000E+00  0.000000000E+00  4.964209497E+02  4.964209497E+02  0.000000000E+00  0.00000E+00  9.000E+00
      21    -1     0     0   511   502  0.000000000E+00  0.000000000E+00 -2.890320489E+02  2.890320489E+02  0.000000000E+00  0.00000E+00  9.000E+00
      25     1     1     2     0     0  2.833974175E+01 -2.661931867E+02  1.277973191E+02  3.218992209E+02  1.250000000E+02  0.00000E+00  9.000E+00
      25     1     1     2     0     0 -1.997783471E+01  2.468101511E+02  1.995825846E+02  3.417200208E+02  1.250000000E+02  0.00000E+00  9.000E+00
      21     1     1     2   511   501 -8.361907037E+00  1.938303565E+01 -1.199910029E+02  1.218337569E+02  1.907348633E-06  0.00000E+00  9.000E+00
#rwgt            1           1   4.5427389774139001E-002          10      220066           0
</event>
<event>
      5   9999  3.79277E-02  1.96908E+01 -1.00000E+00  1.66929E-01
      21    -1     0     0   502   512  0.000000000E+00  0.000000000E+00  1.328862887E+02  1.328862887E+02  0.000000000E+00  0.00000E+00  9.000E+00
      21    -1     0     0   501   502  0.000000000E+00  0.000000000E+00 -8.927405267E+02  8.927405267E+02  0.000000000E+00  0.00000E+00  9.000E+00
      25     1     1     2     0     0  1.891775071E+01 -8.176048451E+01 -4.209314422E+01  1.563313497E+02  1.250000000E+02  0.00000E+00  9.000E+00
      25     1     1     2     0     0 -2.093378219E+01  1.013478162E+02 -7.837795698E+02  8.004030342E+02  1.250000000E+02  0.00000E+00  9.000E+00
      21     1     1     2   501   512  2.016031478E+00 -1.958733167E+01  6.601847596E+01  6.889243146E+01  1.348699152E-06  0.00000E+00  9.000E+00
#rwgt            1           1   3.5657687343154526E-002          10      220207           0
</event>
<event>
      5   9999  3.79277E-02  2.29832E+02 -1.00000E+00  1.09493E-01
      21    -1     0     0   502   501  0.000000000E+00  0.000000000E+00  7.830520088E+02  7.830520088E+02  0.000000000E+00  0.00000E+00  9.000E+00
      21    -1     0     0   511   502  0.000000000E+00  0.000000000E+00 -3.094082528E+02  3.094082528E+02  0.000000000E+00  0.00000E+00  9.000E+00
      25     1     1     2     0     0 -2.344205032E+02  1.038885229E+02  5.822670000E+02  6.483869653E+02  1.250000000E+02  0.00000E+00  9.000E+00
      25     1     1     2     0     0  1.115525260E+02  9.034343197E+01 -1.132926982E+00  1.903475382E+02  1.250000000E+02  0.00000E+00  9.000E+00
      21     1     1     2   511   501  1.228679771E+02 -1.942319549E+02 -1.074903171E+02  2.537257582E+02  3.814697266E-06  0.00000E+00  9.000E+00
#rwgt            1           1   3.7967117235978946E-002          10      220377           0
</event>
<event>
      5   9999  3.79277E-02  5.28825E+01 -1.00000E+00  1.37701E-01
      21    -1     0     0   502   501  0.000000000E+00  0.000000000E+00  6.850719593E+01  6.850719593E+01  0.000000000E+00  0.00000E+00  9.000E+00
      21    -1     0     0   512   502  0.000000000E+00  0.000000000E+00 -7.846467914E+02  7.846467914E+02  0.000000000E+00  0.00000E+00  9.000E+00
      25     1     1     2     0     0 -2.790975112E+01 -4.304868040E+01 -4.011544639E+01  1.409481895E+02  1.250000000E+02  0.00000E+00  9.000E+00
      25     1     1     2     0     0  8.949299414E+00  9.241524747E+01 -3.666415006E+02  3.983361117E+02  1.250000000E+02  0.00000E+00  9.000E+00
      21     1     1     2   512   501  1.896045171E+01 -4.936656707E+01 -3.093826485E+02  3.138696861E+02  0.000000000E+00  0.00000E+00  9.000E+00
#rwgt            1           1   5.4035970226385462E-002          10      220462           0
</event>
<event>
      5   9999  3.79277E-02  8.78734E+01 -1.00000E+00  1.26407E-01
      21    -1     0     0   502   501  0.000000000E+00  0.000000000E+00  2.733826975E+02  2.733826975E+02  0.000000000E+00  0.00000E+00  9.000E+00
      21    -1     0     0   501   511  0.000000000E+00  0.000000000E+00 -3.373733328E+02  3.373733328E+02  0.000000000E+00  0.00000E+00  9.000E+00
      25     1     1     2     0     0  9.300255098E+01 -1.317794685E+02 -8.061536717E+01  2.194063359E+02  1.250000000E+02  0.00000E+00  9.000E+00
      25     1     1     2     0     0 -4.748717644E+01  2.069465002E+02  1.039927347E+02  2.674348046E+02  1.250000000E+02  0.00000E+00  9.000E+00
      21     1     1     2   502   511 -4.551537455E+01 -7.516703167E+01 -8.736800283E+01  1.239148897E+02  1.651812370E-06  0.00000E+00  9.000E+00
#rwgt            1           1  0.12289565229635332               10      220542           0
</event>
<event>
      5   9999  3.79277E-02  6.03938E+01 -1.00000E+00  1.34552E-01
      21    -1     0     0   512   501  0.000000000E+00  0.000000000E+00  1.303772298E+03  1.303772298E+03  0.000000000E+00  0.00000E+00  9.000E+00
      21    -1     0     0   501   502  0.000000000E+00  0.000000000E+00 -4.475717888E+01  4.475717888E+01  0.000000000E+00  0.00000E+00  9.000E+00
      25     1     1     2     0     0  1.170923615E+01 -1.136118992E+02  5.046543412E+02  5.323023332E+02  1.250000000E+02  0.00000E+00  9.000E+00
      25     1     1     2     0     0 -6.592941289E+01  1.402122601E+02  3.143072319E+02  3.720486546E+02  1.250000000E+02  0.00000E+00  9.000E+00
      21     1     1     2   512   502  5.422017674E+01 -2.660036088E+01  4.400535456E+02  4.441784886E+02  5.394796609E-06  0.00000E+00  9.000E+00
#rwgt            1           1   4.4793526634644545E-002          10      220719           0
</event>
<event>
      5   9999  3.79277E-02  3.13859E+01 -1.00000E+00  1.51690E-01
      21    -1     0     0   502   501  0.000000000E+00  0.000000000E+00  9.432725137E+01  9.432725137E+01  0.000000000E+00  0.00000E+00  9.000E+00
      21    -1     0     0   511   502  0.000000000E+00  0.000000000E+00 -1.072394308E+03  1.072394308E+03  0.000000000E+00  0.00000E+00  9.000E+00
      25     1     1     2     0     0 -8.461667751E+01 -1.323240726E+02 -1.216357576E+02  2.347123768E+02  1.250000000E+02  0.00000E+00  9.000E+00
      25     1     1     2     0     0  5.412786165E+01  1.397741823E+02 -2.171926943E+02  2.920005375E+02  1.250000000E+02  0.00000E+00  9.000E+00
      21     1     1     2   511   501  3.048881586E+01 -7.450109732E+00 -6.392386044E+02  6.400086448E+02  7.629394531E-06  0.00000E+00  9.000E+00
#rwgt            1           1   3.9891263196528630E-002          10      220788           0
</event>
<event>
      5   9999  3.79277E-02  4.76133E+01 -1.00000E+00  1.40298E-01
      21    -1     0     0   502   501  0.000000000E+00  0.000000000E+00  1.160042441E+03  1.160042441E+03  0.000000000E+00  0.00000E+00  9.000E+00
      21    -1     0     0   512   502  0.000000000E+00  0.000000000E+00 -3.360303139E+01  3.360303139E+01  0.000000000E+00  0.00000E+00  9.000E+00
      25     1     1     2     0     0  5.430087961E+00  7.277278049E+01  2.494011730E+02  2.883596860E+02  1.250000000E+02  0.00000E+00  9.000E+00
      25     1     1     2     0     0  3.884792059E-01 -1.200292418E+02  7.460308898E+02  7.658944172E+02  1.250000000E+02  0.00000E+00  9.000E+00
      21     1     1     2   512   501 -5.818567166E+00  4.725646133E+01  1.310073464E+02  1.393913688E+02  1.907348633E-06  0.00000E+00  9.000E+00
#rwgt            1           1   4.9147179856493313E-002          10      220996           0
</event>
<event>
      5   9999  3.79277E-02  1.47950E+02 -1.00000E+00  1.16631E-01
      21    -1     0     0   511   501  0.000000000E+00  0.000000000E+00  6.036505928E+01  6.036505928E+01  0.000000000E+00  0.00000E+00  9.000E+00
      21    -1     0     0   501   502  0.000000000E+00  0.000000000E+00 -1.686278589E+03  1.686278589E+03  0.000000000E+00  0.00000E+00  9.000E+00
      25     1     1     2     0     0  8.247765221E+01 -6.919076629E+01 -9.101884754E+02  9.250178301E+02  1.250000000E+02  0.00000E+00  9.000E+00
      25     1     1     2     0     0 -1.848494197E+02 -3.762335353E+01 -5.729448964E+02  6.160159730E+02  1.250000000E+02  0.00000E+00  9.000E+00
      21     1     1     2   511   502  1.023717675E+02  1.068141198E+02 -1.427801581E+02  2.056098454E+02  1.907348633E-06  0.00000E+00  9.000E+00
#rwgt            1           1   5.5005109899018315E-002          10      221118           0
</event>
<event>
      5   9999  3.79277E-02  6.12485E+01 -1.00000E+00  1.34227E-01
      21    -1     0     0   512   501  0.000000000E+00  0.000000000E+00  3.421984485E+02  3.421984485E+02  0.000000000E+00  0.00000E+00  9.000E+00
      21    -1     0     0   501   502  0.000000000E+00  0.000000000E+00 -1.142667844E+03  1.142667844E+03  0.000000000E+00  0.00000E+00  9.000E+00
      25     1     1     2     0     0 -8.937720450E+01  3.392046968E+02  1.837613939E+02  4.152605940E+02  1.250000000E+02  0.00000E+00  9.000E+00
      25     1     1     2     0     0  8.426076927E+01 -2.781702663E+02 -9.457560043E+02  9.972752849E+02  1.250000000E+02  0.00000E+00  9.000E+00
      21     1     1     2   512   502  5.116435227E+00 -6.103443052E+01 -3.847478487E+01  7.233041331E+01  1.066240300E-06  0.00000E+00  9.000E+00
#rwgt            1           1   2.6567493730664117E-002          10      221221           0
</event>
<event>
      5   9999  3.79277E-02  7.64199E+00 -1.00000E+00  2.10305E-01
      21    -1     0     0   511   501  0.000000000E+00  0.000000000E+00  2.339341939E+03  2.339341939E+03  0.000000000E+00  0.00000E+00  9.000E+00
      21    -1     0     0   501   502  0.000000000E+00  0.000000000E+00 -2.458940704E+01  2.458940704E+01  0.000000000E+00  0.00000E+00  9.000E+00
      25     1     1     2     0     0  8.987716940E+01 -8.202478886E+01  4.141409750E+02  4.493814846E+02  1.250000000E+02  0.00000E+00  9.000E+00
      25     1     1     2     0     0 -8.778521171E+01  8.937487267E+01  1.119561737E+03  1.133462657E+03  1.250000000E+02  0.00000E+00  9.000E+00
      21     1     1     2   511   502 -2.091957695E+00 -7.350083814E+00  7.810498195E+02  7.810872042E+02  0.000000000E+00  0.00000E+00  9.000E+00
#rwgt            1           1   2.6200050622474557E-002          10      221324           0
</event>
<event>
      5   9999  3.79277E-02  3.84870E+01 -1.00000E+00  1.45886E-01
      21    -1     0     0   502   501  0.000000000E+00  0.000000000E+00  3.755395415E+02  3.755395415E+02  0.000000000E+00  0.00000E+00  9.000E+00
      21    -1     0     0   512   502  0.000000000E+00  0.000000000E+00 -3.574229326E+02  3.574229326E+02  0.000000000E+00  0.00000E+00  9.000E+00
      25     1     1     2     0     0  1.924779354E+02 -2.316976871E+02 -1.415062875E+01  3.264304124E+02  1.250000000E+02  0.00000E+00  9.000E+00
      25     1     1     2     0     0 -2.293734333E+02  2.426507223E+02  5.659922897E+01  3.609986394E+02  1.250000000E+02  0.00000E+00  9.000E+00
      21     1     1     2   512   501  3.689549785E+01 -1.095303518E+01 -2.433199136E+01  4.553342229E+01  6.743495762E-07  0.00000E+00  9.000E+00
#rwgt            1           1   3.4507140007941223E-002          10      221693           0
</event>
<event>
      5   9999  3.79277E-02  3.55591E+01 -1.00000E+00  1.48083E-01
      21    -1     0     0   502   501  0.000000000E+00  0.000000000E+00  2.806451010E+02  2.806451010E+02  0.000000000E+00  0.00000E+00  9.000E+00
      21    -1     0     0   511   502  0.000000000E+00  0.000000000E+00 -2.536263414E+02  2.536263414E+02  0.000000000E+00  0.00000E+00  9.000E+00
      25     1     1     2     0     0 -8.620430487E+00 -1.487466902E+02 -1.136747988E+02  2.252706140E+02  1.250000000E+02  0.00000E+00  9.000E+00
      25     1     1     2     0     0 -1.441911894E+01  1.758322835E+02  1.595871461E+02  2.687339951E+02  1.250000000E+02  0.00000E+00  9.000E+00
      21     1     1     2   511   501  2.303954942E+01 -2.708559331E+01 -1.889358767E+01  4.026683322E+01  2.384185791E-07  0.00000E+00  9.000E+00
#rwgt            1           1   5.0019530737057366E-002          10      222131           0
</event>
<event>
      5   9999  3.79277E-02  1.25569E+01 -1.00000E+00  1.84980E-01
      21    -1     0     0   502   501  0.000000000E+00  0.000000000E+00  1.667473626E+02  1.667473626E+02  0.000000000E+00  0.00000E+00  9.000E+00
      -1    -1     0     0     0   502  0.000000000E+00  0.000000000E+00 -9.261160732E+02  9.261160732E+02  0.000000000E+00  0.00000E+00  9.000E+00
      25     1     1     2     0     0 -1.074214944E+02  1.182631614E+02  1.694960910E+01  2.035628700E+02  1.250000000E+02  0.00000E+00  9.000E+00
      25     1     1     2     0     0  1.185788300E+02 -1.125020794E+02 -1.311591741E+02  2.440192323E+02  1.250000000E+02  0.00000E+00  9.000E+00
      -1     1     1     2     0   501 -1.115733554E+01 -5.761081983E+00 -6.451591455E+02  6.452813334E+02  0.000000000E+00  0.00000E+00  9.000E+00
#rwgt            1           1   4.0201832139497039E-002          10      222298           0
</event>
<event>
      5   9999  3.79277E-02  2.43136E+01 -1.00000E+00  1.59662E-01
      21    -1     0     0   502   501  0.000000000E+00  0.000000000E+00  1.243503617E+02  1.243503617E+02  0.000000000E+00  0.00000E+00  9.000E+00
      21    -1     0     0   501   511  0.000000000E+00  0.000000000E+00 -3.635594190E+02  3.635594190E+02  0.000000000E+00  0.00000E+00  9.000E+00
      25     1     1     2     0     0 -8.808677966E+01  9.828474994E+01 -1.376326201E+02  2.280063835E+02  1.250000000E+02  0.00000E+00  9.000E+00
      25     1     1     2     0     0  6.387020862E+01 -1.004542777E+02 -1.880509403E+01  1.736349533E+02  1.250000000E+02  0.00000E+00  9.000E+00
      21     1     1     2   502   511  2.421657104E+01  2.169527746E+00 -8.277134317E+01  8.626844390E+01  9.536743164E-07  0.00000E+00  9.000E+00
#rwgt            1           1   3.6128909972009300E-002          10      222681           0
</event>
<event>
      5   9999  3.79277E-02  1.33258E+02 -1.00000E+00  1.18468E-01
      21    -1     0     0   502   501  0.000000000E+00  0.000000000E+00  5.611469680E+02  5.611469680E+02  0.000000000E+00  0.00000E+00  9.000E+00
      21    -1     0     0   512   502  0.000000000E+00  0.000000000E+00 -1.336383496E+02  1.336383496E+02  0.000000000E+00  0.00000E+00  9.000E+00
      25     1     1     2     0     0 -1.431730580E+02  2.977116583E+01  1.632314053E+02  2.522981144E+02  1.250000000E+02  0.00000E+00  9.000E+00
      25     1     1     2     0     0  9.277368947E+01 -1.531309949E+02  1.926647828E+02  2.912057307E+02  1.250000000E+02  0.00000E+00  9.000E+00
      21     1     1     2   512   501  5.039936849E+01  1.233598291E+02  7.161243028E+01  1.512814726E+02  2.697398305E-06  0.00000E+00  9.000E+00
#rwgt            1           1   2.8394225677595426E-002          10      222859           0
</event>
<event>
      5   9999  3.79277E-02  4.94745E+01 -1.00000E+00  1.39338E-01
      21    -1     0     0   511   501  0.000000000E+00  0.000000000E+00  4.234910619E+02  4.234910619E+02  0.000000000E+00  0.00000E+00  9.000E+00
      21    -1     0     0   501   502  0.000000000E+00  0.000000000E+00 -3.905328000E+02  3.905328000E+02  0.000000000E+00  0.00000E+00  9.000E+00
      25     1     1     2     0     0  1.520206670E+02  1.108469793E+02 -3.043479758E+02  3.790119080E+02  1.250000000E+02  0.00000E+00  9.000E+00
      25     1     1     2     0     0 -1.157063655E+02 -1.444475412E+02  2.943863670E+02  3.695150717E+02  1.250000000E+02  0.00000E+00  9.000E+00
      21     1     1     2   511   502 -3.631430152E+01  3.360056192E+01  4.291987079E+01  6.549688210E+01  1.168007728E-06  0.00000E+00  9.000E+00
#rwgt            1           1   3.6909735621015780E-002          10      222918           0
</event>
<event>
      5   9999  3.79277E-02  1.64723E+02 -1.00000E+00  1.14805E-01
      21    -1     0     0   502   501  0.000000000E+00  0.000000000E+00  2.438152773E+02  2.438152773E+02  0.000000000E+00  0.00000E+00  9.000E+00
      21    -1     0     0   512   502  0.000000000E+00  0.000000000E+00 -4.531731164E+02  4.531731164E+02  0.000000000E+00  0.00000E+00  9.000E+00
      25     1     1     2     0     0 -1.722488174E+02 -1.729016787E+02  4.000943447E+01  2.771108090E+02  1.250000000E+02  0.00000E+00  9.000E+00
      25     1     1     2     0     0  3.878232534E+01  7.635926729E+01 -1.938636325E+02  2.460546982E+02  1.250000000E+02  0.00000E+00  9.000E+00
      21     1     1     2   512   501  1.334664921E+02  9.654241146E+01 -5.550364100E+01  1.738228865E+02  2.236564522E-06  0.00000E+00  9.000E+00
#rwgt            1           1   2.9925528971091433E-002          10      222991           0
</event>
<event>
      5   9999  3.79277E-02  4.29216E+01 -1.00000E+00  1.42967E-01
      21    -1     0     0   511   501  0.000000000E+00  0.000000000E+00  1.584681753E+03  1.584681753E+03  0.000000000E+00  0.00000E+00  9.000E+00
      21    -1     0     0   501   502  0.000000000E+00  0.000000000E+00 -3.598383627E+01  3.598383627E+01  0.000000000E+00  0.00000E+00  9.000E+00
      25     1     1     2     0     0 -3.078881936E+01 -8.651892146E+01  2.337458290E+02  2.805273387E+02  1.250000000E+02  0.00000E+00  9.000E+00
      25     1     1     2     0     0  3.553324251E+01  1.291774780E+02  6.965170116E+02  7.202155091E+02  1.250000000E+02  0.00000E+00  9.000E+00
      21     1     1     2   511   502 -4.744423146E+00 -4.265855658E+01  6.184350765E+02  6.199227418E+02  7.629394531E-06  0.00000E+00  9.000E+00
#rwgt            1           1   3.8803879698470947E-002          10      223058           0
</event>
<event>
      5   9999 -3.79277E-02  3.27805E+01 -1.00000E+00  1.50413E-01
      21    -1     0     0   502   501  0.000000000E+00  0.000000000E+00  3.026691887E+02  3.026691887E+02  0.000000000E+00  0.00000E+00  9.000E+00
      21    -1     0     0   501   512  0.000000000E+00  0.000000000E+00 -2.132768430E+02  2.132768430E+02  0.000000000E+00  0.00000E+00  9.000E+00
      25     1     1     2     0     0 -1.235434048E+02 -1.391315073E+02  1.409526328E+02  2.647889610E+02  1.250000000E+02  0.00000E+00  9.000E+00
      25     1     1     2     0     0  1.159249086E+02  1.072486032E+02 -1.487261181E+01  2.019580202E+02  1.250000000E+02  0.00000E+00  9.000E+00
      21     1     1     2   502   512  7.618496118E+00  3.188290409E+01 -3.668767530E+01  4.919905056E+01  4.768371582E-07  0.00000E+00  9.000E+00
#rwgt            1           1  -4.9448313293458571E-002          10      223138           0
</event>
<event>
      5   9999  3.79277E-02  1.63377E+02 -1.00000E+00  1.14942E-01
      21    -1     0     0   502   501  0.000000000E+00  0.000000000E+00  5.191598766E+02  5.191598766E+02  0.000000000E+00  0.00000E+00  9.000E+00
      21    -1     0     0   501   511  0.000000000E+00  0.000000000E+00 -6.965084551E+02  6.965084551E+02  0.000000000E+00  0.00000E+00  9.000E+00
      25     1     1     2     0     0 -2.480108584E+01  2.816697857E+02  3.340439951E+02  4.551520105E+02  1.250000000E+02  0.00000E+00  9.000E+00
      25     1     1     2     0     0 -8.023939519E+00 -1.216247758E+02  4.527787455E+01  1.803664481E+02  1.250000000E+02  0.00000E+00  9.000E+00
      21     1     1     2   502   511  3.282502536E+01 -1.600450099E+02 -5.566704481E+02  5.801498731E+02  7.629394531E-06  0.00000E+00  9.000E+00
#rwgt            1           1   3.7327605386183342E-002          10      223409           0
</event>
<event>
      5   9999  3.79277E-02  5.77044E+00 -1.00000E+00  2.28136E-01
      21    -1     0     0   502   501  0.000000000E+00  0.000000000E+00  2.419958696E+02  2.419958696E+02  0.000000000E+00  0.00000E+00  9.000E+00
      21    -1     0     0   512   502  0.000000000E+00  0.000000000E+00 -9.547377474E+02  9.547377474E+02  0.000000000E+00  0.00000E+00  9.000E+00
      25     1     1     2     0     0  5.738206504E+00 -1.332039140E+02  8.978669734E+01  2.036243127E+02  1.250000000E+02  0.00000E+00  9.000E+00
      25     1     1     2     0     0 -1.133243987E+01  1.346190116E+02  6.395533086E+00  1.841646147E+02  1.250000000E+02  0.00000E+00  9.000E+00
      21     1     1     2   512   501  5.594233368E+00 -1.415097590E+00 -8.089241083E+02  8.089446896E+02  1.078959322E-05  0.00000E+00  9.000E+00
#rwgt            1           1   2.6646246817606037E-002          10      223521           0
</event>
<event>
      5   9999  3.79277E-02  6.11865E+01 -1.00000E+00  1.34250E-01
      21    -1     0     0   502   511  0.000000000E+00  0.000000000E+00  1.071750252E+03  1.071750252E+03  0.000000000E+00  0.00000E+00  9.000E+00
      21    -1     0     0   501   502  0.000000000E+00  0.000000000E+00 -2.278951987E+02  2.278951987E+02  0.000000000E+00  0.00000E+00  9.000E+00
      25     1     1     2     0     0  4.131456453E+01 -1.291969311E+02  5.534610759E+01  1.925796767E+02  1.250000000E+02  0.00000E+00  9.000E+00
      25     1     1     2     0     0 -1.104259407E+01  1.823702275E+02 -8.076167240E+01  2.356444069E+02  1.250000000E+02  0.00000E+00  9.000E+00
      21     1     1     2   501   511 -3.027197046E+01 -5.317329642E+01  8.692706183E+02  8.714213673E+02  1.078959322E-05  0.00000E+00  9.000E+00
#rwgt            1           1   2.9565993378793096E-002          10      223803           0
</event>
<event>
      5   9999  3.79277E-02  2.35434E+01 -1.00000E+00  1.60729E-01
      21    -1     0     0   502   512  0.000000000E+00  0.000000000E+00  2.231189695E+02  2.231189695E+02  0.000000000E+00  0.00000E+00  9.000E+00
      21    -1     0     0   501   502  0.000000000E+00  0.000000000E+00 -1.859255517E+02  1.859255517E+02  0.000000000E+00  0.00000E+00  9.000E+00
      25     1     1     2     0     0  7.828173372E+01 -1.172422953E+02  5.432641458E+00  1.884895202E+02  1.250000000E+02  0.00000E+00  9.000E+00
      25     1     1     2     0     0 -1.007405345E+02  1.101788664E+02  2.826353840E+01  1.967533113E+02  1.250000000E+02  0.00000E+00  9.000E+00
      21     1     1     2   501   512  2.245880080E+01  7.063428895E+00  3.497237955E+00  2.380168974E+01  6.107658604E-07  0.00000E+00  9.000E+00
#rwgt            1           1   4.1209843623332583E-002          10      223981           0
</event>
<event>
      5   9999  3.79277E-02  4.64642E+01 -1.00000E+00  1.40918E-01
       2    -1     0     0   502     0  0.000000000E+00  0.000000000E+00  2.699910151E+03  2.699910151E+03  0.000000000E+00  0.00000E+00  9.000E+00
      21    -1     0     0   501   502  0.000000000E+00  0.000000000E+00 -9.607706322E+01  9.607706322E+01  0.000000000E+00  0.00000E+00  9.000E+00
      25     1     1     2     0     0  1.330087807E+00 -1.919958576E+01 -2.938196514E+01  1.298410301E+02  1.250000000E+02  0.00000E+00  9.000E+00
      25     1     1     2     0     0 -3.175727866E+01  5.431526517E+01  2.853167511E+02  3.177881704E+02  1.250000000E+02  0.00000E+00  9.000E+00
       2     1     1     2   501     0  3.042719086E+01 -3.511567940E+01  2.347898302E+03  2.348358014E+03  3.051757812E-05  0.00000E+00  9.000E+00
#rwgt            1           1   4.2936071457381583E-002          10      224119           0
</event>
<event>
      5   9999  3.79277E-02  2.67024E+01 -1.00000E+00  1.56637E-01
      21    -1     0     0   511   501  0.000000000E+00  0.000000000E+00  3.552720500E+02  3.552720500E+02  0.000000000E+00  0.00000E+00  9.000E+00
      21    -1     0     0   501   502  0.000000000E+00  0.000000000E+00 -3.261267040E+02  3.261267040E+02  0.000000000E+00  0.00000E+00  9.000E+00
      25     1     1     2     0     0 -2.360914526E+02  8.453004928E+01 -8.279702434E+01  2.921726381E+02  1.250000000E+02  0.00000E+00  9.000E+00
      25     1     1     2     0     0  2.107959921E+02 -7.597675361E+01 -1.738908729E+01  2.571668674E+02  1.250000000E+02  0.00000E+00  9.000E+00
      21     1     1     2   511   502  2.529546052E+01 -8.553295669E+00  1.293314576E+02  1.320592485E+02  2.697398305E-06  0.00000E+00  9.000E+00
#rwgt            1           1   4.4249342633538524E-002          10      224214           0
</event>
<event>
      5   9999  3.79277E-02  6.06870E+01 -1.00000E+00  1.34440E-01
      21    -1     0     0   512   501  0.000000000E+00  0.000000000E+00  3.759198420E+02  3.759198420E+02  0.000000000E+00  0.00000E+00  9.000E+00
      21    -1     0     0   501   502  0.000000000E+00  0.000000000E+00 -2.127826259E+02  2.127826259E+02  0.000000000E+00  0.00000E+00  9.000E+00
      25     1     1     2     0     0  9.037293994E+01  8.790761008E+01  1.647973502E+02  2.422358000E+02  1.250000000E+02  0.00000E+00  9.000E+00
      25     1     1     2     0     0 -8.427053007E+01 -2.752820788E+01 -1.322776802E+02  2.024393962E+02  1.250000000E+02  0.00000E+00  9.000E+00
      21     1     1     2   512   502 -6.102409869E+00 -6.037940220E+01  1.306175462E+02  1.440272717E+02  1.907348633E-06  0.00000E+00  9.000E+00
#rwgt            1           1   2.4903743164646067E-002          10      224365           0
</event>
<event>
      5   9999  3.79277E-02  1.12452E+02  7.55638E-03  1.21578E-01
       2    -1     0     0   501     0  0.000000000E+00  0.000000000E+00  9.765315379E+02  9.765315379E+02  0.000000000E+00  0.00000E+00  9.000E+00
      -2    -1     0     0     0   502  0.000000000E+00  0.000000000E+00 -6.907099798E+01  6.907099798E+01  0.000000000E+00  0.00000E+00  9.000E+00
      25     1     1     2     0     0 -5.929717066E+00 -2.422566339E+01  3.736529656E+02  3.947956218E+02  1.250000000E+02  0.00000E+00  9.000E+00
      25     1     1     2     0     0 -1.054214287E+02  8.532575911E+00  5.102969484E+02  5.359239293E+02  1.250000000E+02  0.00000E+00  9.000E+00
      21     1     1     2   501   502  1.113511458E+02  1.569308748E+01  2.351062596E+01  1.148829848E+02  2.105655877E-06  0.00000E+00  9.000E+00
#rwgt            3           7   1.7862259507213222E-003          10      224440           0
</event>
<event>
      5   9999  3.79277E-02  6.64210E+01 -1.00000E+00  1.32385E-01
      -5    -1     0     0     0   501  0.000000000E+00  0.000000000E+00  1.383823936E+02  1.383823936E+02  0.000000000E+00  0.00000E+00  9.000E+00
      21    -1     0     0   501   502  0.000000000E+00  0.000000000E+00 -5.119927965E+02  5.119927965E+02  0.000000000E+00  0.00000E+00  9.000E+00
      25     1     1     2     0     0 -8.125117053E+01  9.745379708E+01 -1.502393270E+02  2.330147005E+02  1.250000000E+02  0.00000E+00  9.000E+00
      25     1     1     2     0     0  1.449196003E+02 -7.853061772E+01 -2.670974899E+02  3.378384489E+02  1.250000000E+02  0.00000E+00  9.000E+00
      -5     1     1     2     0   502 -6.366842974E+01 -1.892317936E+01  4.372641398E+01  7.952204060E+01  1.846782373E-06  0.00000E+00  9.000E+00
#rwgt            1           1   2.8810950557503757E-002          10      224474           0
</event>
<event>
      5   9999  3.79277E-02  4.51189E+01 -1.00000E+00  1.41670E-01
      -5    -1     0     0     0   501  0.000000000E+00  0.000000000E+00  5.713156796E+02  5.713156796E+02  0.000000000E+00  0.00000E+00  9.000E+00
      21    -1     0     0   501   502  0.000000000E+00  0.000000000E+00 -2.127639505E+02  2.127639505E+02  0.000000000E+00  0.00000E+00  9.000E+00
      25     1     1     2     0     0 -5.655672707E+01  6.294118904E+00  1.250442684E+02  1.857400021E+02  1.250000000E+02  0.00000E+00  9.000E+00
      25     1     1     2     0     0  8.352376033E+01  2.987902708E+01 -1.486546853E+02  2.135232780E+02  1.250000000E+02  0.00000E+00  9.000E+00
      -5     1     1     2     0   502 -2.696703326E+01 -3.617314598E+01  3.821621460E+02  3.848163500E+02  5.394796609E-06  0.00000E+00  9.000E+00
#rwgt            1           1   4.4748305760185493E-002          10      224633           0
</event>
<event>
      5   9999  3.79277E-02  3.04140E+01 -1.00000E+00  1.52628E-01
      21    -1     0     0   502   511  0.000000000E+00  0.000000000E+00  8.700779516E+01  8.700779516E+01  0.000000000E+00  0.00000E+00  9.000E+00
      21    -1     0     0   501   502  0.000000000E+00  0.000000000E+00 -9.026883623E+02  9.026883623E+02  0.000000000E+00  0.00000E+00  9.000E+00
      25     1     1     2     0     0 -2.311482787E+02  2.469897959E-01 -2.740445311E+02  3.796774852E+02  1.250000000E+02  0.00000E+00  9.000E+00
      25     1     1     2     0     0  2.011956652E+02  5.030340981E+00 -5.234824346E+02  5.745988682E+02  1.250000000E+02  0.00000E+00  9.000E+00
      21     1     1     2   501   511  2.995261351E+01 -5.277330777E+00 -1.815360147E+01  3.541980410E+01  5.840038640E-07  0.00000E+00  9.000E+00
#rwgt            1           1   4.6824729457246438E-002          10      224775           0
</event>
<event>
      5   9999  3.79277E-02  3.50489E+01 -1.00000E+00  1.48491E-01
      21    -1     0     0   502   501  0.000000000E+00  0.000000000E+00  3.670560822E+01  3.670560822E+01  0.000000000E+00  0.00000E+00  9.000E+00
       2    -1     0     0   501     0  0.000000000E+00  0.000000000E+00 -2.405064575E+03  2.405064575E+03  0.000000000E+00  0.00000E+00  9.000E+00
      25     1     1     2     0     0 -1.690279589E+02  3.714680723E+01 -5.075731027E+02  5.506412542E+02  1.250000000E+02  0.00000E+00  9.000E+00
      25     1     1     2     0     0  1.457860346E+02 -6.338105963E+01 -6.706329494E+02  7.004600484E+02  1.250000000E+02  0.00000E+00  9.000E+00
       2     1     1     2   502     0  2.324192425E+01  2.623425239E+01 -1.190152915E+03  1.190668881E+03  1.525878906E-05  0.00000E+00  9.000E+00
#rwgt            1           1   1.5918804200256906E-002          10      224925           0
</event>
<event>
      5   9999  3.79277E-02  1.37436E+01 -1.00000E+00  1.81039E-01
      21    -1     0     0   511   501  0.000000000E+00  0.000000000E+00  2.979073673E+02  2.979073673E+02  0.000000000E+00  0.00000E+00  9.000E+00
      21    -1     0     0   501   502  0.000000000E+00  0.000000000E+00 -9.552380010E+02  9.552380010E+02  0.000000000E+00  0.00000E+00  9.000E+00
      25     1     1     2     0     0  5.080609534E+01 -6.206871675E+01 -8.403683284E+02  8.533918867E+02  1.250000000E+02  0.00000E+00  9.000E+00
      25     1     1     2     0     0 -6.434909013E+01  6.440821609E+01 -5.288172193E+01  1.634340852E+02  1.250000000E+02  0.00000E+00  9.000E+00
      21     1     1     2   511   502  1.354299480E+01 -2.339499340E+00  2.359194166E+02  2.363193964E+02  3.814697266E-06  0.00000E+00  9.000E+00
#rwgt            1           1   4.6745522401400424E-002          10      225091           0
</event>
<event>
      5   9999  3.79277E-02  1.51450E+01 -1.00000E+00  1.76991E-01
      21    -1     0     0   502   512  0.000000000E+00  0.000000000E+00  5.890764498E+02  5.890764498E+02  0.000000000E+00  0.00000E+00  9.000E+00
      21    -1     0     0   501   502  0.000000000E+00  0.000000000E+00 -2.627234286E+02  2.627234286E+02  0.000000000E+00  0.00000E+00  9.000E+00
      25     1     1     2     0     0 -5.713342293E+01  8.439273664E+01  4.214220746E+02  4.512293507E+02  1.250000000E+02  0.00000E+00  9.000E+00
      25     1     1     2     0     0  7.192406556E+01 -8.113569877E+01 -2.196881784E+02  2.750344861E+02  1.250000000E+02  0.00000E+00  9.000E+00
      21     1     1     2   501   512 -1.479064264E+01 -3.257037867E+00  1.246191250E+02  1.255360415E+02  0.000000000E+00  0.00000E+00  9.000E+00
#rwgt            1           1   4.9661657879654091E-002          10      225347           0
</event>
<event>
      5   9999  3.79277E-02  2.74370E+01 -1.00000E+00  1.55783E-01
      21    -1     0     0   502   501  0.000000000E+00  0.000000000E+00  1.828756284E+02  1.828756284E+02  0.000000000E+00  0.00000E+00  9.000E+00
      21    -1     0     0   501   511  0.000000000E+00  0.000000000E+00 -4.163886039E+02  4.163886039E+02  0.000000000E+00  0.00000E+00  9.000E+00
      25     1     1     2     0     0 -1.289376091E+01  5.217287778E+01  1.343833189E+02  1.912384236E+02  1.250000000E+02  0.00000E+00  9.000E+00
      25     1     1     2     0     0  2.193826374E+01 -7.807631413E+01 -3.086226621E+02  3.427100025E+02  1.250000000E+02  0.00000E+00  9.000E+00
      21     1     1     2   502   511 -9.044502833E+00  2.590343635E+01 -5.927363234E+01  6.531580619E+01  0.000000000E+00  0.00000E+00  9.000E+00
#rwgt            1           1   2.2706324650502589E-002          10      225634           0
</event>
<event>
      5   9999  3.79277E-02  7.26569E+01 -1.00000E+00  1.30407E-01
      21    -1     0     0   502   501  0.000000000E+00  0.000000000E+00  9.698958999E+01  9.698958999E+01  0.000000000E+00  0.00000E+00  9.000E+00
      21    -1     0     0   501   512  0.000000000E+00  0.000000000E+00 -1.629597570E+03  1.629597570E+03  0.000000000E+00  0.00000E+00  9.000E+00
      25     1     1     2     0     0 -4.430906329E+01  2.766850646E+02 -7.756667616E+02  8.341473749E+02  1.250000000E+02  0.00000E+00  9.000E+00
      25     1     1     2     0     0 -1.170537115E+01 -3.229603695E+02 -4.046556932E+02  5.327397545E+02  1.250000000E+02  0.00000E+00  9.000E+00
      21     1     1     2   502   512  5.601443444E+01  4.627530493E+01 -3.522855254E+02  3.597000308E+02  5.394796609E-06  0.00000E+00  9.000E+00
#rwgt            1           1   4.0417233327979529E-002          10      225901           0
</event>
<event>
      5   9999  3.79277E-02  7.77872E+01 -1.00000E+00  1.28942E-01
      21    -1     0     0   502   501  0.000000000E+00  0.000000000E+00  1.096758306E+02  1.096758306E+02  0.000000000E+00  0.00000E+00  9.000E+00
      21    -1     0     0   511   502  0.000000000E+00  0.000000000E+00 -4.378529535E+02  4.378529535E+02  0.000000000E+00  0.00000E+00  9.000E+00
      25     1     1     2     0     0  1.315538639E+02  7.702090902E+01 -1.862390737E+02  2.711985105E+02  1.250000000E+02  0.00000E+00  9.000E+00
      25     1     1     2     0     0 -5.376851533E+01 -7.647770937E+01 -7.270083989E+01  1.721926404E+02  1.250000000E+02  0.00000E+00  9.000E+00
      21     1     1     2   511   501 -7.778534853E+01 -5.431996530E-01 -6.923720922E+01  1.041376332E+02  1.348699152E-06  0.00000E+00  9.000E+00
#rwgt            1           1   3.3666571035809743E-002          10      225994           0
</event>
<event>
      5   9999  3.79277E-02  3.00976E+01 -1.00000E+00  1.52942E-01
      21    -1     0     0   502   501  0.000000000E+00  0.000000000E+00  1.192721020E+02  1.192721020E+02  0.000000000E+00  0.00000E+00  9.000E+00
      21    -1     0     0   512   502  0.000000000E+00  0.000000000E+00 -7.282406005E+02  7.282406005E+02  0.000000000E+00  0.00000E+00  9.000E+00
      25     1     1     2     0     0 -1.640368811E+02  5.395522908E+01 -1.556995172E+01  2.137444467E+02  1.250000000E+02  0.00000E+00  9.000E+00
      25     1     1     2     0     0  1.361910389E+02 -4.253268029E+01 -4.719092070E+02  5.086062599E+02  1.250000000E+02  0.00000E+00  9.000E+00
      21     1     1     2   512   501  2.784584217E+01 -1.142254879E+01 -1.214893397E+02  1.251619959E+02  0.000000000E+00  0.00000E+00  9.000E+00
#rwgt            1           1   3.5697107996872791E-002          10      226093           0
</event>
<event>
      5   9999  3.79277E-02  1.75312E+01 -1.00000E+00  1.71233E-01
       1    -1     0     0   502     0  0.000000000E+00  0.000000000E+00  6.715368784E+02  6.715368784E+02  0.000000000E+00  0.00000E+00  9.000E+00
      21    -1     0     0   501   502  0.000000000E+00  0.000000000E+00 -8.341911593E+01  8.341911593E+01  0.000000000E+00  0.00000E+00  9.000E+00
      25     1     1     2     0     0 -1.362857397E+02 -4.805828427E+01  4.920118816E+02  5.278106604E+02  1.250000000E+02  0.00000E+00  9.000E+00
      25     1     1     2     0     0  1.251338713E+02  6.158531309E+01  9.380082258E+01  2.094631969E+02  1.250000000E+02  0.00000E+00  9.000E+00
       1     1     1     2   501     0  1.115186847E+01 -1.352702881E+01  2.305058284E+00  1.768213711E+01  2.715120786E-07  0.00000E+00  9.000E+00
#rwgt            1           1   3.7696328370648520E-002          10      226284           0
</event>
<event>
      5   9999 -3.79277E-02  1.02651E+02 -1.00000E+00  1.23319E-01
      21    -1     0     0   502   501  0.000000000E+00  0.000000000E+00  2.962868070E+01  2.962868070E+01  0.000000000E+00  0.00000E+00  9.000E+00
       2    -1     0     0   501     0  0.000000000E+00  0.000000000E+00 -3.451762790E+03  3.451762790E+03  0.000000000E+00  0.00000E+00  9.000E+00
      25     1     1     2     0     0  1.750498448E+02 -1.099519692E+01 -1.764279006E+03  1.777376930E+03  1.250000000E+02  0.00000E+00  9.000E+00
      25     1     1     2     0     0 -1.517238303E+02 -8.897012318E+01 -5.408904037E+02  5.823428821E+02  1.250000000E+02  0.00000E+00  9.000E+00
       2     1     1     2   502     0 -2.332601456E+01  9.996532010E+01 -1.116964700E+03  1.121671658E+03  2.157918644E-05  0.00000E+00  9.000E+00
#rwgt            1           1  -4.8184276918132360E-002          10      226488           0
</event>
<event>
      5   9999  3.79277E-02  6.76628E+01 -1.00000E+00  1.31972E-01
      21    -1     0     0   502   501  0.000000000E+00  0.000000000E+00  1.103765110E+02  1.103765110E+02  0.000000000E+00  0.00000E+00  9.000E+00
       1    -1     0     0   501     0  0.000000000E+00  0.000000000E+00 -1.255609405E+03  1.255609405E+03  0.000000000E+00  0.00000E+00  9.000E+00
      25     1     1     2     0     0 -9.255121484E+01 -2.576937631E+02 -2.740313175E+02  4.070503236E+02  1.250000000E+02  0.00000E+00  9.000E+00
      25     1     1     2     0     0  8.014002273E+01  1.911789640E+02 -3.082744447E+02  3.919565700E+02  1.250000000E+02  0.00000E+00  9.000E+00
       1     1     1     2   502     0  1.241119211E+01  6.651479912E+01 -5.629271315E+02  5.669790221E+02  7.629394531E-06  0.00000E+00  9.000E+00
#rwgt            1           1   4.0186060976387251E-002          10      226558           0
</event>
<event>
      5   9999  3.79277E-02  3.77664E+01 -1.00000E+00  1.46405E-01
      21    -1     0     0   502   501  0.000000000E+00  0.000000000E+00  5.567188068E+01  5.567188068E+01  0.000000000E+00  0.00000E+00  9.000E+00
      21    -1     0     0   511   502  0.000000000E+00  0.000000000E+00 -6.783274320E+02  6.783274320E+02  0.000000000E+00  0.00000E+00  9.000E+00
      25     1     1     2     0     0 -8.376589152E+01 -6.520697054E+00 -3.798441336E+02  4.086145004E+02  1.250000000E+02  0.00000E+00  9.000E+00
      25     1     1     2     0     0  1.215137353E+02  5.335863018E+00 -1.710329556E+02  2.442771606E+02  1.250000000E+02  0.00000E+00  9.000E+00
      21     1     1     2   511   501 -3.774784377E+01  1.184834036E+00 -7.177846215E+01  8.110765174E+01  1.348699152E-06  0.00000E+00  9.000E+00
#rwgt            1           1   4.5565065475804883E-002          10      226677           0
</event>
<event>
      5   9999  3.79277E-02  5.38781E+01 -1.00000E+00  1.37249E-01
      21    -1     0     0   502   501  0.000000000E+00  0.000000000E+00  3.019466779E+02  3.019466779E+02  0.000000000E+00  0.00000E+00  9.000E+00
      -4    -1     0     0     0   502  0.000000000E+00  0.000000000E+00 -3.907326704E+02  3.907326704E+02  0.000000000E+00  0.00000E+00  9.000E+00
      25     1     1     2     0     0  5.326780682E+01 -1.747664456E+02  1.144992211E+02  2.492304985E+02  1.250000000E+02  0.00000E+00  9.000E+00
      25     1     1     2     0     0  5.410191769E-01  1.774987044E+02  1.595785302E+01  2.176826494E+02  1.250000000E+02  0.00000E+00  9.000E+00
      -4     1     1     2     0   501 -5.380882600E+01 -2.732258830E+00 -2.192430666E+02  2.257662004E+02  0.000000000E+00  0.00000E+00  9.000E+00
#rwgt            1           1  0.11044171037731831               10      226850           0
</event>
<event>
      5   9999  3.79277E-02  1.66883E+01 -1.00000E+00  1.73128E-01
      21    -1     0     0   511   501  0.000000000E+00  0.000000000E+00  1.292979915E+03  1.292979915E+03  0.000000000E+00  0.00000E+00  9.000E+00
      21    -1     0     0   501   502  0.000000000E+00  0.000000000E+00 -1.150963986E+02  1.150963986E+02  0.000000000E+00  0.00000E+00  9.000E+00
      25     1     1     2     0     0 -1.399787269E+02  2.330968186E+02  4.067005545E+02  5.049341659E+02  1.250000000E+02  0.00000E+00  9.000E+00
      25     1     1     2     0     0  1.448987847E+02 -2.490434031E+02  3.087899279E+02  4.404480605E+02  1.250000000E+02  0.00000E+00  9.000E+00
      21     1     1     2   511   502 -4.920057733E+00  1.594658443E+01  4.623930336E+02  4.626940869E+02  5.394796609E-06  0.00000E+00  9.000E+00
#rwgt            1           1   3.5750684401654284E-002          10      226997           0
</event>
<event>
      5   9999  3.79277E-02  4.45586E+01 -1.00000E+00  1.41992E-01
      21    -1     0     0   512   501  0.000000000E+00  0.000000000E+00  1.118939764E+03  1.118939764E+03  0.000000000E+00  0.00000E+00  9.000E+00
      21    -1     0     0   501   502  0.000000000E+00  0.000000000E+00 -5.991096826E+01  5.991096826E+01  0.000000000E+00  0.00000E+00  9.000E+00
      25     1     1     2     0     0 -4.731172962E+01 -1.407308339E+02  2.652753003E+02  3.286937059E+02  1.250000000E+02  0.00000E+00  9.000E+00
      25     1     1     2     0     0  2.585942726E+01  1.016761656E+02  2.161471712E+02  2.708345477E+02  1.250000000E+02  0.00000E+00  9.000E+00
      21     1     1     2   512   502  2.145230236E+01  3.905466828E+01  5.776063242E+02  5.793224786E+02  7.629394531E-06  0.00000E+00  9.000E+00
#rwgt            1           1   4.5961061798262745E-002          10      227263           0
</event>
<event>
      5   9999  3.79277E-02  6.47656E+01 -1.00000E+00  1.32953E-01
      21    -1     0     0   502   511  0.000000000E+00  0.000000000E+00  1.321834903E+03  1.321834903E+03  0.000000000E+00  0.00000E+00  9.000E+00
      21    -1     0     0   501   502  0.000000000E+00  0.000000000E+00 -1.169035340E+02  1.169035340E+02  0.000000000E+00  0.00000E+00  9.000E+00
      25     1     1     2     0     0  1.191686002E+02  1.032348011E+02  2.169858013E+02  2.959162338E+02  1.250000000E+02  0.00000E+00  9.000E+00
      25     1     1     2     0     0 -1.794117209E+02 -7.945760481E+01  1.011914613E+02  2.537061064E+02  1.250000000E+02  0.00000E+00  9.000E+00
      21     1     1     2   501   511  6.024312076E+01 -2.377719631E+01  8.867541062E+02  8.891160968E+02  1.525878906E-05  0.00000E+00  9.000E+00
#rwgt            1           1   5.4609379344676294E-002          10      227364           0
</event>
<event>
      5   9999  3.79277E-02  1.05196E+02 -1.00000E+00  1.22846E-01
      21    -1     0     0   512   501  0.000000000E+00  0.000000000E+00  1.419424739E+02  1.419424739E+02  0.000000000E+00  0.00000E+00  9.000E+00
      21    -1     0     0   501   502  0.000000000E+00  0.000000000E+00 -1.082168951E+03  1.082168951E+03  0.000000000E+00  0.00000E+00  9.000E+00
      25     1     1     2     0     0 -2.625344604E+02  1.979159093E+02 -2.328352150E+02  4.218202074E+02  1.250000000E+02  0.00000E+00  9.000E+00
      25     1     1     2     0     0  1.686657805E+02 -1.504298607E+02 -5.934546542E+02  6.472176721E+02  1.250000000E+02  0.00000E+00  9.000E+00
      21     1     1     2   512   502  9.386867984E+01 -4.748604858E+01 -1.139366078E+02  1.550735453E+02  2.697398305E-06  0.00000E+00  9.000E+00
#rwgt            2          11   3.9550463634448032E-003          10      227503           0
</event>
<event>
      5   9999  3.79277E-02  5.83967E+01 -1.00000E+00  1.35335E-01
       1    -1     0     0   502     0  0.000000000E+00  0.000000000E+00  3.825062282E+02  3.825062282E+02  0.000000000E+00  0.00000E+00  9.000E+00
      21    -1     0     0   501   502  0.000000000E+00  0.000000000E+00 -7.048184368E+02  7.048184368E+02  0.000000000E+00  0.00000E+00  9.000E+00
      25     1     1     2     0     0 -1.876374738E+02  9.804664185E+01 -1.929964962E+02  3.125597752E+02  1.250000000E+02  0.00000E+00  9.000E+00
      25     1     1     2     0     0  1.770305915E+02 -1.554719541E+02 -4.094233913E+02  4.886347022E+02  1.250000000E+02  0.00000E+00  9.000E+00
       1     1     1     2   501     0  1.060688225E+01  5.742531224E+01  2.801076789E+02  2.861301875E+02  6.607249480E-06  0.00000E+00  9.000E+00
#rwgt            1           1   3.5009587010242683E-002          10      227643           0
</event>
<event>
      5   9999  3.79277E-02  3.68437E+01 -1.00000E+00  1.47089E-01
      21    -1     0     0   502   501  0.000000000E+00  0.000000000E+00  4.135031727E+02  4.135031727E+02  0.000000000E+00  0.00000E+00  9.000E+00
      21    -1     0     0   511   502  0.000000000E+00  0.000000000E+00 -3.737790584E+02  3.737790584E+02  0.000000000E+00  0.00000E+00  9.000E+00
      25     1     1     2     0     0  7.241769257E+01  3.239821372E+01  2.056793880E+01  1.494724274E+02  1.250000000E+02  0.00000E+00  9.000E+00
      25     1     1     2     0     0 -8.040646094E+01  3.569005295E+00  3.104409310E+02  3.442041667E+02  1.250000000E+02  0.00000E+00  9.000E+00
      21     1     1     2   511   501  7.988768375E+00 -3.596721901E+01 -2.912847555E+02  2.936056369E+02  6.607249480E-06  0.00000E+00  9.000E+00
#rwgt            1           1   3.7188151496484328E-002          10      227841           0
</event>
<event>
      5   9999  3.79277E-02  1.42049E+01 -1.00000E+00  1.79641E-01
      21    -1     0     0   502   501  0.000000000E+00  0.000000000E+00  7.436170006E+01  7.436170006E+01  0.000000000E+00  0.00000E+00  9.000E+00
      21    -1     0     0   512   502  0.000000000E+00  0.000000000E+00 -5.826546952E+02  5.826546952E+02  0.000000000E+00  0.00000E+00  9.000E+00
      25     1     1     2     0     0 -3.793594495E+01 -1.250350136E+01 -3.168245046E+02  3.429259981E+02  1.250000000E+02  0.00000E+00  9.000E+00
      25     1     1     2     0     0  3.733734419E+01  2.669575685E+01 -1.160330634E+01  1.336651691E+02  1.250000000E+02  0.00000E+00  9.000E+00
      21     1     1     2   512   501  5.986007648E-01 -1.419225548E+01 -1.798651842E+02  1.804252281E+02  3.814697266E-06  0.00000E+00  9.000E+00
#rwgt            1           1   2.9264403422702975E-002          10      228016           0
</event>
<event>
      5   9999  3.79277E-02  1.50704E+02 -1.00000E+00  1.16313E-01
      21    -1     0     0   511   501  0.000000000E+00  0.000000000E+00  4.357801311E+02  4.357801311E+02  0.000000000E+00  0.00000E+00  9.000E+00
      21    -1     0     0   501   502  0.000000000E+00  0.000000000E+00 -4.545507026E+02  4.545507026E+02  0.000000000E+00  0.00000E+00  9.000E+00
      25     1     1     2     0     0 -3.094925839E+02 -2.741298839E+02 -5.279974764E+01  4.351386745E+02  1.250000000E+02  0.00000E+00  9.000E+00
      25     1     1     2     0     0  1.933118336E+02  1.781415110E+02 -2.756993139E+01  2.923849587E+02  1.250000000E+02  0.00000E+00  9.000E+00
      21     1     1     2   511   502  1.161807503E+02  9.598837288E+01  6.159910753E+01  1.628072004E+02  2.023048729E-06  0.00000E+00  9.000E+00
#rwgt            1           1   2.6613319459224637E-002          10      228184           0
</event>
<event>
      5   9999  3.79277E-02  1.55596E+02 -1.00000E+00  1.15767E-01
      21    -1     0     0   502   501  0.000000000E+00  0.000000000E+00  6.747865697E+01  6.747865697E+01  0.000000000E+00  0.00000E+00  9.000E+00
      21    -1     0     0   512   502  0.000000000E+00  0.000000000E+00 -1.773464603E+03  1.773464603E+03  0.000000000E+00  0.00000E+00  9.000E+00
      25     1     1     2     0     0 -5.462785177E+01  2.525401592E+01 -7.856041676E+02  7.977599110E+02  1.250000000E+02  0.00000E+00  9.000E+00
      25     1     1     2     0     0 -6.502013928E+01  7.421764428E+01 -6.213056860E+01  1.709417585E+02  1.250000000E+02  0.00000E+00  9.000E+00
      21     1     1     2   512   501  1.196479911E+02 -9.947166019E+01 -8.582512099E+02  8.722415905E+02  1.078959322E-05  0.00000E+00  9.000E+00
#rwgt            1           1   4.3254370736785196E-002          10      228307           0
</event>
<event>
      5   9999  3.79277E-02  1.20666E+02 -1.00000E+00  1.20266E-01
      21    -1     0     0   502   501  0.000000000E+00  0.000000000E+00  8.729546499E+01  8.729546499E+01  0.000000000E+00  0.00000E+00  9.000E+00
       3    -1     0     0   501     0  0.000000000E+00  0.000000000E+00 -2.050854901E+03  2.050854901E+03  0.000000000E+00  0.00000E+00  9.000E+00
      25     1     1     2     0     0  2.253857319E+01  1.555492831E+02 -2.049828195E+02  2.869608389E+02  1.250000000E+02  0.00000E+00  9.000E+00
      25     1     1     2     0     0 -1.212043258E+02 -2.250131762E+02 -4.206433987E+02  5.078260400E+02  1.250000000E+02  0.00000E+00  9.000E+00
       3     1     1     2   502     0  9.866575259E+01  6.946389318E+01 -1.337933218E+03  1.343363487E+03  0.000000000E+00  0.00000E+00  9.000E+00
#rwgt            1           1   5.0036988114391279E-002          10      228367           0
</event>
<event>
      5   9999  3.79277E-02  3.85383E+01 -1.00000E+00  1.45850E-01
      21    -1     0     0   502   501  0.000000000E+00  0.000000000E+00  1.772245729E+03  1.772245729E+03  0.000000000E+00  0.00000E+00  9.000E+00
      21    -1     0     0   511   502  0.000000000E+00  0.000000000E+00 -4.433805505E+02  4.433805505E+02  0.000000000E+00  0.00000E+00  9.000E+00
      25     1     1     2     0     0  2.059010903E+02 -2.210754919E+02  7.615055584E+02  8.287251339E+02  1.250000000E+02  0.00000E+00  9.000E+00
      25     1     1     2     0     0 -2.168716419E+02  2.580193862E+02  9.430470102E+02  1.009242278E+03  1.250000000E+02  0.00000E+00  9.000E+00
      21     1     1     2   511   501  1.097055156E+01 -3.694389434E+01 -3.756873905E+02  3.776588669E+02  9.344061824E-06  0.00000E+00  9.000E+00
#rwgt            1           1   3.0786094505596176E-002          10      228473           0
</event>
<event>
      5   9999  3.79277E-02  1.03098E+02 -1.00000E+00  1.23235E-01
      21    -1     0     0   502   512  0.000000000E+00  0.000000000E+00  4.057192820E+02  4.057192820E+02  0.000000000E+00  0.00000E+00  9.000E+00
      21    -1     0     0   501   502  0.000000000E+00  0.000000000E+00 -2.901730462E+02  2.901730462E+02  0.000000000E+00  0.00000E+00  9.000E+00
      25     1     1     2     0     0 -9.780331126E+01 -9.945274629E+01 -3.056077150E+01  1.897769670E+02  1.250000000E+02  0.00000E+00  9.000E+00
      25     1     1     2     0     0  1.992355472E+02  1.179118946E+02 -6.514523731E+01  2.710478188E+02  1.250000000E+02  0.00000E+00  9.000E+00
      21     1     1     2   501   512 -1.014322359E+02 -1.845914829E+01  2.112522446E+02  2.350675424E+02  2.697398305E-06  0.00000E+00  9.000E+00
#rwgt            1           1   1.4855228244589409E-002          10      228635           0
</event>
<event>
      5   9999  3.79277E-02  1.36498E+01 -1.00000E+00  1.81332E-01
      21    -1     0     0   502   501  0.000000000E+00  0.000000000E+00  2.887708715E+02  2.887708715E+02  0.000000000E+00  0.00000E+00  9.000E+00
      21    -1     0     0   511   502  0.000000000E+00  0.000000000E+00 -2.832945679E+02  2.832945679E+02  0.000000000E+00  0.00000E+00  9.000E+00
      25     1     1     2     0     0  7.446104429E+01 -1.441209987E+02  1.797258284E+02  2.724732698E+02  1.250000000E+02  0.00000E+00  9.000E+00
      25     1     1     2     0     0 -8.670553829E+01  1.380886864E+02 -1.083106499E+02  2.322553176E+02  1.250000000E+02  0.00000E+00  9.000E+00
      21     1     1     2   511   501  1.224449400E+01  6.032312273E+00 -6.593887485E+01  6.733685203E+01  1.651812370E-06  0.00000E+00  9.000E+00
#rwgt            1           1   2.9490947449283583E-002          10      228746           0
</event>
<event>
      5   9999  3.79277E-02  1.46238E+02 -1.00000E+00  1.16832E-01
      21    -1     0     0   502   512  0.000000000E+00  0.000000000E+00  1.124988834E+03  1.124988834E+03  0.000000000E+00  0.00000E+00  9.000E+00
      21    -1     0     0   501   502  0.000000000E+00  0.000000000E+00 -2.348166255E+02  2.348166255E+02  0.000000000E+00  0.00000E+00  9.000E+00
      25     1     1     2     0     0  1.773587636E+02  7.149704819E-01 -3.280427783E+01  2.194487704E+02  1.250000000E+02  0.00000E+00  9.000E+00
      25     1     1     2     0     0 -1.232281662E+02  1.351360818E+02  1.647324746E+01  2.221335397E+02  1.250000000E+02  0.00000E+00  9.000E+00
      21     1     1     2   501   512 -5.413059737E+01 -1.358510523E+02  9.065032390E+02  9.182231495E+02  1.078959322E-05  0.00000E+00  9.000E+00
#rwgt            1           1   8.0204730758566180E-003          10      228985           0
</event>
<event>
      5   9999  3.79277E-02  2.55649E+01 -1.00000E+00  1.58027E-01
      21    -1     0     0   502   501  0.000000000E+00  0.000000000E+00  7.369420502E+02  7.369420502E+02  0.000000000E+00  0.00000E+00  9.000E+00
      21    -1     0     0   501   511  0.000000000E+00  0.000000000E+00 -1.260985270E+02  1.260985270E+02  0.000000000E+00  0.00000E+00  9.000E+00
      25     1     1     2     0     0  1.576969814E+02  1.177301370E+02  3.768375153E+02  4.431255308E+02  1.250000000E+02  0.00000E+00  9.000E+00
      25     1     1     2     0     0 -1.566390016E+02 -1.432731156E+02  2.764995153E+02  3.703241073E+02  1.250000000E+02  0.00000E+00  9.000E+00
      21     1     1     2   502   511 -1.057979841E+00  2.554297858E+01 -4.249350737E+01  4.959093914E+01  2.023048729E-06  0.00000E+00  9.000E+00
#rwgt            1           1   7.4323689306211846E-002          10      229043           0
</event>
<event>
      5   9999  3.79277E-02  1.60487E+02 -1.00000E+00  1.15242E-01
      21    -1     0     0   512   501  0.000000000E+00  0.000000000E+00  7.846755241E+02  7.846755241E+02  0.000000000E+00  0.00000E+00  9.000E+00
      21    -1     0     0   501   502  0.000000000E+00  0.000000000E+00 -1.428665860E+02  1.428665860E+02  0.000000000E+00  0.00000E+00  9.000E+00
      25     1     1     2     0     0  9.308751981E+01  4.358795744E+01 -2.726135109E+01  1.641139167E+02  1.250000000E+02  0.00000E+00  9.000E+00
      25     1     1     2     0     0 -3.904925051E+01  1.075279935E+02  5.102129286E+02  5.376144955E+02  1.250000000E+02  0.00000E+00  9.000E+00
      21     1     1     2   512   502 -5.403826930E+01 -1.511159509E+02  1.588573606E+02  2.258136979E+02  3.303624740E-06  0.00000E+00  9.000E+00
#rwgt            1           1   4.9578499397421844E-002          10      229374           0
</event>
<event>
      5   9999  3.79277E-02  4.04820E+01 -1.00000E+00  1.44518E-01
      21    -1     0     0   502   501  0.000000000E+00  0.000000000E+00  2.366122097E+02  2.366122097E+02  0.000000000E+00  0.00000E+00  9.000E+00
       2    -1     0     0   501     0  0.000000000E+00  0.000000000E+00 -3.282421054E+03  3.282421054E+03  0.000000000E+00  0.00000E+00  9.000E+00
      25     1     1     2     0     0 -5.727753060E+01  1.197029221E+02 -1.114423403E+02  2.136677334E+02  1.250000000E+02  0.00000E+00  9.000E+00
      25     1     1     2     0     0  1.681744324E+01 -1.210335921E+02  1.441548809E+02  2.265779921E+02  1.250000000E+02  0.00000E+00  9.000E+00
       2     1     1     2   502     0  4.046008736E+01  1.330670070E+00 -3.078521384E+03  3.078787538E+03  0.000000000E+00  0.00000E+00  9.000E+00
#rwgt            1           1   2.8371020823808678E-002          10      229447           0
</event>
<event>
      5   9999  3.79277E-02  1.45535E+02 -1.00000E+00  1.16916E-01
      -2    -1     0     0     0   501  0.000000000E+00  0.000000000E+00  3.625498220E+02  3.625498220E+02  0.000000000E+00  0.00000E+00  9.000E+00
      21    -1     0     0   501   502  0.000000000E+00  0.000000000E+00 -4.906373116E+02  4.906373116E+02  0.000000000E+00  0.00000E+00  9.000E+00
      25     1     1     2     0     0  1.340708642E+02  2.219982931E+02 -8.417986520E+01  2.999491431E+02  1.250000000E+02  0.00000E+00  9.000E+00
      25     1     1     2     0     0 -2.696225866E+02 -2.749712541E+02 -1.702527532E+01  4.052411502E+02  1.250000000E+02  0.00000E+00  9.000E+00
      -2     1     1     2     0   502  1.355517224E+02  5.297296107E+01 -2.688234907E+01  1.479968403E+02  2.360223517E-06  0.00000E+00  9.000E+00
#rwgt            2           4   1.1349067964336910E-005          10      229946           0
</event>
<event>
      5   9999  3.79277E-02  1.09052E+01 -1.00000E+00  1.91505E-01
      21    -1     0     0   502   501  0.000000000E+00  0.000000000E+00  1.040146587E+02  1.040146587E+02  0.000000000E+00  0.00000E+00  9.000E+00
      21    -1     0     0   511   502  0.000000000E+00  0.000000000E+00 -7.641104460E+02  7.641104460E+02  0.000000000E+00  0.00000E+00  9.000E+00
      25     1     1     2     0     0 -4.859269449E+01  1.474905987E+02 -4.627978367E+02  5.039063051E+02  1.250000000E+02  0.00000E+00  9.000E+00
      25     1     1     2     0     0  4.380382483E+01 -1.572880721E+02 -4.368367563E+01  2.102179256E+02  1.250000000E+02  0.00000E+00  9.000E+00
      21     1     1     2   511   501  4.788869664E+00  9.797473412E+00 -1.536142749E+02  1.540008741E+02  0.000000000E+00  0.00000E+00  9.000E+00
#rwgt            1           1   3.4014250474587213E-002          10      229965           0
</event>
<event>
      5   9999 -3.79277E-02  2.66398E+01 -1.00000E+00  1.56712E-01
      21    -1     0     0   502   501  0.000000000E+00  0.000000000E+00  1.267629951E+03  1.267629951E+03  0.000000000E+00  0.00000E+00  9.000E+00
       2    -1     0     0   501     0  0.000000000E+00  0.000000000E+00 -6.874691202E+01  6.874691202E+01  0.000000000E+00  0.00000E+00  9.000E+00
      25     1     1     2     0     0  1.890312947E+02 -1.031678292E+02  6.424593310E+02  6.890249802E+02  1.250000000E+02  0.00000E+00  9.000E+00
      25     1     1     2     0     0 -1.807200289E+02  7.785773520E+01  5.711629039E+02  6.169064910E+02  1.250000000E+02  0.00000E+00  9.000E+00
       2     1     1     2   502     0 -8.311265804E+00  2.531009398E+01 -1.473919585E+01  3.044539195E+01  9.973764736E-07  0.00000E+00  9.000E+00
#rwgt            1           1 -0.32141626525240552               10      230241           0
</event>
<event>
      5   9999  3.79277E-02  3.09904E+02 -1.00000E+00  1.05136E-01
      21    -1     0     0   502   501  0.000000000E+00  0.000000000E+00  5.001418277E+02  5.001418277E+02  0.000000000E+00  0.00000E+00  9.000E+00
       1    -1     0     0   501     0  0.000000000E+00  0.000000000E+00 -6.648344938E+02  6.648344938E+02  0.000000000E+00  0.00000E+00  9.000E+00
      25     1     1     2     0     0 -3.424143429E+01  9.645203640E+01  2.621378036E+02  3.079232034E+02  1.250000000E+02  0.00000E+00  9.000E+00
      25     1     1     2     0     0 -2.756376318E+02 -1.003860567E+02  1.285268448E+01  3.191295285E+02  1.250000000E+02  0.00000E+00  9.000E+00
       1     1     1     2   502     0  3.098790661E+02  3.934020339E+00 -4.396831542E+02  5.379235896E+02  7.629394531E-06  0.00000E+00  9.000E+00
#rwgt            2          12   1.9489677949251799E-004          10      230438           0
</event>
<event>
      5   9999  3.79277E-02  3.51821E+02 -1.00000E+00  1.03391E-01
      21    -1     0     0   502   511  0.000000000E+00  0.000000000E+00  4.464801141E+02  4.464801141E+02  0.000000000E+00  0.00000E+00  9.000E+00
      21    -1     0     0   501   502  0.000000000E+00  0.000000000E+00 -8.782839232E+02  8.782839232E+02  0.000000000E+00  0.00000E+00  9.000E+00
      25     1     1     2     0     0  7.962798414E+01 -2.920632294E+02 -1.913931304E+02  3.793387354E+02  1.250000000E+02  0.00000E+00  9.000E+00
      25     1     1     2     0     0  2.721916236E+02  2.930336974E+02 -3.812033963E+02  5.664786467E+02  1.250000000E+02  0.00000E+00  9.000E+00
      21     1     1     2   501   511 -3.518196078E+02 -9.704680549E-01  1.407927176E+02  3.789466553E+02  5.394796609E-06  0.00000E+00  9.000E+00
#rwgt            1           1   3.3987659813028336E-002          10      230457           0
</event>
<event>
      5   9999  3.79277E-02  7.00556E+01 -1.00000E+00  1.31203E-01
      21    -1     0     0   512   501  0.000000000E+00  0.000000000E+00  5.769305663E+02  5.769305663E+02  0.000000000E+00  0.00000E+00  9.000E+00
      21    -1     0     0   501   502  0.000000000E+00  0.000000000E+00 -1.896257193E+02  1.896257193E+02  0.000000000E+00  0.00000E+00  9.000E+00
      25     1     1     2     0     0  4.215310898E+01  2.395496940E+02  3.495337437E+01  2.756949018E+02  1.250000000E+02  0.00000E+00  9.000E+00
      25     1     1     2     0     0  2.782329530E+01 -2.362189381E+02  2.512889615E+02  3.678921916E+02  1.250000000E+02  0.00000E+00  9.000E+00
      21     1     1     2   512   502 -6.997640428E+01 -3.330755892E+00  1.010625111E+02  1.229691923E+02  1.907348633E-06  0.00000E+00  9.000E+00
#rwgt            1           1   3.5433616195755330E-002          10      230602           0
</event>
<event>
      5   9999  3.79277E-02  4.61473E+01 -1.00000E+00  1.41092E-01
      21    -1     0     0   502   501  0.000000000E+00  0.000000000E+00  4.009029753E+02  4.009029753E+02  0.000000000E+00  0.00000E+00  9.000E+00
      -1    -1     0     0     0   502  0.000000000E+00  0.000000000E+00 -4.004564964E+02  4.004564964E+02  0.000000000E+00  0.00000E+00  9.000E+00
      25     1     1     2     0     0  1.577450478E+02 -5.239025505E+01  1.058734289E+02  2.333718532E+02  1.250000000E+02  0.00000E+00  9.000E+00
      25     1     1     2     0     0 -1.704802781E+02  9.674550329E+01  1.704528412E+02  2.882748492E+02  1.250000000E+02  0.00000E+00  9.000E+00
      -1     1     1     2     0   501  1.273523024E+01 -4.435524824E+01 -2.758797911E+02  2.797127693E+02  0.000000000E+00  0.00000E+00  9.000E+00
#rwgt            1           1   2.0367822920575929E-002          10      230778           0
</event>
<event>
      5   9999  3.79277E-02  1.85020E+02 -1.00000E+00  1.12893E-01
      21    -1     0     0   502   511  0.000000000E+00  0.000000000E+00  3.138510933E+02  3.138510933E+02  0.000000000E+00  0.00000E+00  9.000E+00
      21    -1     0     0   501   502  0.000000000E+00  0.000000000E+00 -7.587426567E+02  7.587426567E+02  0.000000000E+00  0.00000E+00  9.000E+00
      25     1     1     2     0     0 -1.855964905E+02 -1.271396953E+02 -6.234416146E+02  6.744738736E+02  1.250000000E+02  0.00000E+00  9.000E+00
      25     1     1     2     0     0  1.074226062E+02 -4.055406253E+01  1.009582171E+02  1.974887589E+02  1.250000000E+02  0.00000E+00  9.000E+00
      21     1     1     2   501   511  7.817388431E+01  1.676937578E+02  7.759183411E+01  2.006311175E+02  9.536743164E-07  0.00000E+00  9.000E+00
#rwgt            1           1   5.0024984118049350E-002          10      231049           0
</event>
<event>
      5   9999  3.79277E-02  1.22610E+02 -1.00000E+00  1.19973E-01
      21    -1     0     0   502   501  0.000000000E+00  0.000000000E+00  7.377926597E+01  7.377926597E+01  0.000000000E+00  0.00000E+00  9.000E+00
       1    -1     0     0   501     0  0.000000000E+00  0.000000000E+00 -1.701356125E+03  1.701356125E+03  0.000000000E+00  0.00000E+00  9.000E+00
      25     1     1     2     0     0  1.670084098E+02 -1.151972535E+02 -2.474144088E+02  3.435128904E+02  1.250000000E+02  0.00000E+00  9.000E+00
      25     1     1     2     0     0 -8.485330374E+01  2.418264648E+01 -2.382617320E+02  2.831581475E+02  1.250000000E+02  0.00000E+00  9.000E+00
       1     1     1     2   502     0 -8.215510607E+01  9.101460701E+01 -1.141900718E+03  1.148464353E+03  0.000000000E+00  0.00000E+00  9.000E+00
#rwgt            1           1   3.6253220115129478E-002          10      231107           0
</event>
<event>
      5   9999  3.79277E-02  2.20381E+02 -1.00000E+00  1.10135E-01
      21    -1     0     0   502   501  0.000000000E+00  0.000000000E+00  2.850915617E+02  2.850915617E+02  0.000000000E+00  0.00000E+00  9.000E+00
      21    -1     0     0   501   511  0.000000000E+00  0.000000000E+00 -7.235743079E+02  7.235743079E+02  0.000000000E+00  0.00000E+00  9.000E+00
      25     1     1     2     0     0  9.310684258E+01 -1.378766775E+02  1.292762580E+02  2.449820671E+02  1.250000000E+02  0.00000E+00  9.000E+00
      25     1     1     2     0     0 -1.458750694E+02 -7.609338562E+01 -6.806285503E+01  2.175483658E+02  1.250000000E+02  0.00000E+00  9.000E+00
      21     1     1     2   502   511  5.276822687E+01  2.139700631E+02 -4.996961492E+02  5.461354367E+02  7.629394531E-06  0.00000E+00  9.000E+00
#rwgt            1           1   3.7196001918862666E-002          10      231242           0
</event>
<event>
      5   9999  3.79277E-02  4.37441E+01 -1.00000E+00  1.42471E-01
      21    -1     0     0   502   512  0.000000000E+00  0.000000000E+00  1.470419966E+02  1.470419966E+02  0.000000000E+00  0.00000E+00  9.000E+00
      21    -1     0     0   501   502  0.000000000E+00  0.000000000E+00 -2.139275526E+02  2.139275526E+02  0.000000000E+00  0.00000E+00  9.000E+00
      25     1     1     2     0     0 -1.266478761E+01  3.428064973E+01  1.324557841E+01  1.309045650E+02  1.250000000E+02  0.00000E+00  9.000E+00
      25     1     1     2     0     0  5.419356922E+01 -2.053627611E+01 -1.106625164E+02  1.767197615E+02  1.250000000E+02  0.00000E+00  9.000E+00
      21     1     1     2   501   512 -4.152878160E+01 -1.374437362E+01  3.053138193E+01  5.334522275E+01  9.536743164E-07  0.00000E+00  9.000E+00
#rwgt            1           1   3.6632125841339118E-002          10      231282           0
</event>
<event>
      5   9999  3.79277E-02  1.76278E+01 -1.00000E+00  1.71024E-01
      21    -1     0     0   502   511  0.000000000E+00  0.000000000E+00  1.820892462E+02  1.820892462E+02  0.000000000E+00  0.00000E+00  9.000E+00
      21    -1     0     0   501   502  0.000000000E+00  0.000000000E+00 -2.700218330E+02  2.700218330E+02  0.000000000E+00  0.00000E+00  9.000E+00
      25     1     1     2     0     0 -8.194010486E+01 -3.587773556E+01  6.498750862E+01  1.668825005E+02  1.250000000E+02  0.00000E+00  9.000E+00
      25     1     1     2     0     0  9.287947004E+01  4.970054895E+01 -1.860739261E+02  2.476797256E+02  1.250000000E+02  0.00000E+00  9.000E+00
      21     1     1     2   501   511 -1.093936518E+01 -1.382281339E+01  3.315383062E+01  3.754885305E+01  0.000000000E+00  0.00000E+00  9.000E+00
#rwgt            1           1   3.0633321730097501E-002          10      231516           0
</event>
<event>
      5   9999  3.79277E-02  9.53619E+01 -1.00000E+00  1.24763E-01
      21    -1     0     0   502   501  0.000000000E+00  0.000000000E+00  1.596750155E+02  1.596750155E+02  0.000000000E+00  0.00000E+00  9.000E+00
      21    -1     0     0   501   512  0.000000000E+00  0.000000000E+00 -6.732250629E+02  6.732250629E+02  0.000000000E+00  0.00000E+00  9.000E+00
      25     1     1     2     0     0  6.086371338E+00  8.033077440E+01  7.341180850E+01  1.658444176E+02  1.250000000E+02  0.00000E+00  9.000E+00
      25     1     1     2     0     0 -6.514356666E+01 -1.552049116E+02 -3.109083200E+02  3.749949763E+02  1.250000000E+02  0.00000E+00  9.000E+00
      21     1     1     2   502   512  5.905719533E+01  7.487413717E+01 -2.760535359E+02  2.920606845E+02  6.607249480E-06  0.00000E+00  9.000E+00
#rwgt            1           1   3.8760621024023466E-002          10      231689           0
</event>
<event>
      5   9999  3.79277E-02  1.03419E+02 -1.00000E+00  1.23175E-01
      21    -1     0     0   502   501  0.000000000E+00  0.000000000E+00  1.189402634E+03  1.189402634E+03  0.000000000E+00  0.00000E+00  9.000E+00
      21    -1     0     0   511   502  0.000000000E+00  0.000000000E+00 -1.254168052E+02  1.254168052E+02  0.000000000E+00  0.00000E+00  9.000E+00
      25     1     1     2     0     0 -2.645787817E+02 -4.846938596E+01  4.532987841E+02  5.417157933E+02  1.250000000E+02  0.00000E+00  9.000E+00
      25     1     1     2     0     0  1.647176337E+02  7.536266549E+01  6.304968785E+02  6.678044205E+02  1.250000000E+02  0.00000E+00  9.000E+00
      21     1     1     2   511   501  9.986114795E+01 -2.689327953E+01 -1.980983379E+01  1.052992254E+02  2.132480600E-06  0.00000E+00  9.000E+00
#rwgt            1           1   4.0206113061315892E-002          10      231784           0
</event>
<event>
      5   9999  3.79277E-02  5.96003E+01 -1.00000E+00  1.34859E-01
      21    -1     0     0   512   501  0.000000000E+00  0.000000000E+00  1.142474203E+03  1.142474203E+03  0.000000000E+00  0.00000E+00  9.000E+00
      21    -1     0     0   501   502  0.000000000E+00  0.000000000E+00 -3.420745698E+02  3.420745698E+02  0.000000000E+00  0.00000E+00  9.000E+00
      25     1     1     2     0     0  1.647819827E+02  5.662025178E+01  1.348465580E+02  2.533131440E+02  1.250000000E+02  0.00000E+00  9.000E+00
      25     1     1     2     0     0 -1.936765567E+02 -4.492496256E+00 -2.347079020E+02  3.290039367E+02  1.250000000E+02  0.00000E+00  9.000E+00
      21     1     1     2   512   502  2.889457404E+01 -5.212775553E+01  9.002609768E+02  9.022316918E+02  1.078959322E-05  0.00000E+00  9.000E+00
#rwgt            1           1   3.3801197225547058E-002          10      231870           0
</event>
<event>
      5   9999  3.79277E-02  1.16858E+02 -1.00000E+00  1.20859E-01
      21    -1     0     0   502   501  0.000000000E+00  0.000000000E+00  2.799889049E+02  2.799889049E+02  0.000000000E+00  0.00000E+00  9.000E+00
      21    -1     0     0   501   511  0.000000000E+00  0.000000000E+00 -9.754765155E+02  9.754765155E+02  0.000000000E+00  0.00000E+00  9.000E+00
      25     1     1     2     0     0  3.590853112E+02  2.009362026E+02 -2.219853790E+02  4.839629394E+02  1.250000000E+02  0.00000E+00  9.000E+00
      25     1     1     2     0     0 -3.767772378E+02 -8.542494929E+01 -1.591517541E+02  4.361339126E+02  1.250000000E+02  0.00000E+00  9.000E+00
      21     1     1     2   502   511  1.769192654E+01 -1.155112533E+02 -3.143504776E+02  3.353685684E+02  3.814697266E-06  0.00000E+00  9.000E+00
#rwgt            1           1   8.0327540748402024E-002          10      232003           0
</event>
<event>
      5   9999  3.79277E-02  1.86017E+01 -1.00000E+00  1.69009E-01
       1    -1     0     0   502     0  0.000000000E+00  0.000000000E+00  5.712997106E+02  5.712997106E+02  0.000000000E+00  0.00000E+00  9.000E+00
      21    -1     0     0   501   502  0.000000000E+00  0.000000000E+00 -1.226868028E+02  1.226868028E+02  0.000000000E+00  0.00000E+00  9.000E+00
      25     1     1     2     0     0 -1.930751401E+02 -1.895937451E+01  1.861890112E+02  2.965279337E+02  1.250000000E+02  0.00000E+00  9.000E+00
      25     1     1     2     0     0  1.769028530E+02  9.768107693E+00  1.085846417E+02  2.424987830E+02  1.250000000E+02  0.00000E+00  9.000E+00
       1     1     1     2   501     0  1.617228703E+01  9.191266817E+00  1.538392549E+02  1.549597967E+02  1.907348633E-06  0.00000E+00  9.000E+00
#rwgt            1           1   2.4915315760216886E-002          10      232075           0
</event>
<event>
      5   9999  3.79277E-02  6.82252E+01 -1.00000E+00  1.31788E-01
      21    -1     0     0   502   501  0.000000000E+00  0.000000000E+00  1.002247988E+02  1.002247988E+02  0.000000000E+00  0.00000E+00  9.000E+00
       1    -1     0     0   501     0  0.000000000E+00  0.000000000E+00 -1.990487648E+03  1.990487648E+03  0.000000000E+00  0.00000E+00  9.000E+00
      25     1     1     2     0     0  4.908662875E+01 -1.506984605E+01  4.642116036E+01  1.428863937E+02  1.250000000E+02  0.00000E+00  9.000E+00
      25     1     1     2     0     0  1.902928268E+01  1.893067540E+01 -9.180093669E+02  9.268692905E+02  1.250000000E+02  0.00000E+00  9.000E+00
       1     1     1     2   502     0 -6.811591143E+01 -3.860829346E+00 -1.018674642E+03  1.020956762E+03  0.000000000E+00  0.00000E+00  9.000E+00
#rwgt            1           1   4.2654100686266509E-002          10      232240           0
</event>
<event>
      5   9999  3.79277E-02  6.01632E+01 -1.00000E+00  1.34640E-01
      21    -1     0     0   502   511  0.000000000E+00  0.000000000E+00  7.572193812E+02  7.572193812E+02  0.000000000E+00  0.00000E+00  9.000E+00
      21    -1     0     0   501   502  0.000000000E+00  0.000000000E+00 -7.988382352E+01  7.988382352E+01  0.000000000E+00  0.00000E+00  9.000E+00
      25     1     1     2     0     0  1.220896762E+01  1.066363505E+02  5.122378566E+01  1.725376665E+02  1.250000000E+02  0.00000E+00  9.000E+00
      25     1     1     2     0     0  4.593479350E+01 -9.117948400E+01  4.854868326E+02  5.116113449E+02  1.250000000E+02  0.00000E+00  9.000E+00
      21     1     1     2   501   511 -5.814376112E+01 -1.545686653E+01  1.406249394E+02  1.529541934E+02  3.303624740E-06  0.00000E+00  9.000E+00
#rwgt            1           1   3.1713284238562831E-002          10      232351           0
</event>
<event>
      5   9999  3.79277E-02  1.02036E+01 -1.00000E+00  1.94750E-01
      21    -1     0     0   502   501  0.000000000E+00  0.000000000E+00  9.659546160E+02  9.659546160E+02  0.000000000E+00  0.00000E+00  9.000E+00
      21    -1     0     0   501   512  0.000000000E+00  0.000000000E+00 -1.540083109E+02  1.540083109E+02  0.000000000E+00  0.00000E+00  9.000E+00
      25     1     1     2     0     0  6.411252384E+01 -1.038776238E+02  3.397229867E+02  3.820179107E+02  1.250000000E+02  0.00000E+00  9.000E+00
      25     1     1     2     0     0 -5.976587821E+01  1.131091374E+02  5.916444209E+02  6.180887945E+02  1.250000000E+02  0.00000E+00  9.000E+00
      21     1     1     2   502   512 -4.346645633E+00 -9.231513642E+00 -1.194211024E+02  1.198562217E+02  4.046097457E-06  0.00000E+00  9.000E+00
#rwgt            1           1   3.5319836580400506E-002          10      232487           0
</event>
<event>
      5   9999  3.79277E-02  2.04926E+01 -1.00000E+00  1.65502E-01
       2    -1     0     0   502     0  0.000000000E+00  0.000000000E+00  1.224238350E+03  1.224238350E+03  0.000000000E+00  0.00000E+00  9.000E+00
      21    -1     0     0   501   502  0.000000000E+00  0.000000000E+00 -4.947046826E+01  4.947046826E+01  0.000000000E+00  0.00000E+00  9.000E+00
      25     1     1     2     0     0  1.121356327E+02  8.466833278E+01  5.804372408E+02  6.101438496E+02  1.250000000E+02  0.00000E+00  9.000E+00
      25     1     1     2     0     0 -1.274840543E+02 -9.824678482E+01  2.684398990E+02  3.370305538E+02  1.250000000E+02  0.00000E+00  9.000E+00
       2     1     1     2   501     0  1.534842158E+01  1.357845204E+01  3.258907416E+02  3.265344145E+02  0.000000000E+00  0.00000E+00  9.000E+00
#rwgt            1           1   3.8131288750949476E-002          10      232721           0
</event>
<event>
      5   9999  3.79277E-02  2.23515E+01 -1.00000E+00  1.62482E-01
      21    -1     0     0   511   501  0.000000000E+00  0.000000000E+00  6.283564244E+01  6.283564244E+01  0.000000000E+00  0.00000E+00  9.000E+00
      21    -1     0     0   501   502  0.000000000E+00  0.000000000E+00 -8.771067107E+02  8.771067107E+02  0.000000000E+00  0.00000E+00  9.000E+00
      25     1     1     2     0     0 -1.014610257E+02  1.507484330E+02 -2.970362666E+02  3.699661788E+02  1.250000000E+02  0.00000E+00  9.000E+00
      25     1     1     2     0     0  7.924932050E+01 -1.532446892E+02 -4.926852752E+02  5.367757167E+02  1.250000000E+02  0.00000E+00  9.000E+00
      21     1     1     2   511   502  2.221170516E+01  2.496256201E+00 -2.454952645E+01  3.320045767E+01  3.371747881E-07  0.00000E+00  9.000E+00
#rwgt            2          11   1.0062721657708102E-002          10      232901           0
</event>
<event>
      5   9999  3.79277E-02  4.06792E+01 -1.00000E+00  1.44388E-01
      21    -1     0     0   502   512  0.000000000E+00  0.000000000E+00  1.127660036E+03  1.127660036E+03  0.000000000E+00  0.00000E+00  9.000E+00
      21    -1     0     0   501   502  0.000000000E+00  0.000000000E+00 -4.692154377E+02  4.692154377E+02  0.000000000E+00  0.00000E+00  9.000E+00
      25     1     1     2     0     0  3.256277551E+01  1.182986819E+02 -6.506741733E+01  1.868520305E+02  1.250000000E+02  0.00000E+00  9.000E+00
      25     1     1     2     0     0 -3.614618904E+01 -7.777759789E+01 -3.261050342E+02  3.596184020E+02  1.250000000E+02  0.00000E+00  9.000E+00
      21     1     1     2   501   512  3.583413538E+00 -4.052108405E+01  1.049617050E+03  1.050405041E+03  0.000000000E+00  0.00000E+00  9.000E+00
#rwgt            1           1   3.2685582341195542E-002          10      232936           0
</event>
<event>
      5   9999  3.79277E-02  3.33074E+01 -1.00000E+00  1.49951E-01
      21    -1     0     0   511   501  0.000000000E+00  0.000000000E+00  2.801504956E+02  2.801504956E+02  0.000000000E+00  0.00000E+00  9.000E+00
      21    -1     0     0   501   502  0.000000000E+00  0.000000000E+00 -7.310151241E+02  7.310151241E+02  0.000000000E+00  0.00000E+00  9.000E+00
      25     1     1     2     0     0  1.187723329E+02  3.608918881E+01  1.486572724E+01  1.767916470E+02  1.250000000E+02  0.00000E+00  9.000E+00
      25     1     1     2     0     0 -1.484407858E+02 -2.095102804E+01 -6.337281076E+02  6.631062711E+02  1.250000000E+02  0.00000E+00  9.000E+00
      21     1     1     2   511   502  2.966845285E+01 -1.513816077E+01  1.679977518E+02  1.712677016E+02  3.303624740E-06  0.00000E+00  9.000E+00
#rwgt            1           1   5.1745852172300488E-002          10      233136           0
</event>
<event>
      5   9999  3.79277E-02  3.93391E+01 -1.00000E+00  1.45290E-01
      21    -1     0     0   502   501  0.000000000E+00  0.000000000E+00  1.513117865E+02  1.513117865E+02  0.000000000E+00  0.00000E+00  9.000E+00
      21    -1     0     0   512   502  0.000000000E+00  0.000000000E+00 -2.161213832E+02  2.161213832E+02  0.000000000E+00  0.00000E+00  9.000E+00
      25     1     1     2     0     0 -8.312886353E+01  2.061805529E+01  4.118463140E+01  1.570244759E+02  1.250000000E+02  0.00000E+00  9.000E+00
      25     1     1     2     0     0  4.405663101E+01 -2.519245088E+01 -5.425070534E+01  1.454090277E+02  1.250000000E+02  0.00000E+00  9.000E+00
      21     1     1     2   512   501  3.907223253E+01  4.574395596E+00 -5.174352278E+01  6.499966614E+01  1.168007728E-06  0.00000E+00  9.000E+00
#rwgt            1           1   9.6247332627811225E-002          10      233253           0
</event>
<event>
      5   9999 -3.79277E-02  1.44166E+02 -1.00000E+00  1.17081E-01
       5    -1     0     0   502     0  0.000000000E+00  0.000000000E+00  3.174184201E+02  3.174184201E+02  0.000000000E+00  0.00000E+00  9.000E+00
      21    -1     0     0   501   502  0.000000000E+00  0.000000000E+00 -3.890362529E+02  3.890362529E+02  0.000000000E+00  0.00000E+00  9.000E+00
      25     1     1     2     0     0 -1.973559986E+02  5.733032790E+01 -7.615214659E+01  2.523099406E+02  1.250000000E+02  0.00000E+00  9.000E+00
      25     1     1     2     0     0  1.436004464E+02 -1.910991595E+02 -8.693181735E+01  2.834115697E+02  1.250000000E+02  0.00000E+00  9.000E+00
       5     1     1     2   501     0  5.375555218E+01  1.337688316E+02  9.146613110E+01  1.707331627E+02  1.348699152E-06  0.00000E+00  9.000E+00
#rwgt            1           1  -7.5864669307102506E-002          10      233333           0
</event>
<event>
      5   9999  3.79277E-02  8.08232E+01 -1.00000E+00  1.28135E-01
      21    -1     0     0   502   501  0.000000000E+00  0.000000000E+00  4.527012764E+01  4.527012764E+01  0.000000000E+00  0.00000E+00  9.000E+00
      21    -1     0     0   511   502  0.000000000E+00  0.000000000E+00 -1.423671844E+03  1.423671844E+03  0.000000000E+00  0.00000E+00  9.000E+00
      25     1     1     2     0     0 -7.065021548E+01 -3.881417160E+01 -8.889678459E+02  9.013250379E+02  1.250000000E+02  0.00000E+00  9.000E+00
      25     1     1     2     0     0  1.281878031E+02 -1.794679985E+01 -2.091068567E+02  2.758711257E+02  1.250000000E+02  0.00000E+00  9.000E+00
      21     1     1     2   511   501 -5.753758763E+01  5.676097144E+01 -2.803270140E+02  2.917458082E+02  0.000000000E+00  0.00000E+00  9.000E+00
#rwgt            1           1   5.0980114660862365E-002          10      233461           0
</event>
<event>
      5   9999  3.79277E-02  8.39832E+01 -1.00000E+00  1.27336E-01
      21    -1     0     0   512   501  0.000000000E+00  0.000000000E+00  1.114740570E+02  1.114740570E+02  0.000000000E+00  0.00000E+00  9.000E+00
      21    -1     0     0   501   502  0.000000000E+00  0.000000000E+00 -1.001878714E+03  1.001878714E+03  0.000000000E+00  0.00000E+00  9.000E+00
      25     1     1     2     0     0  2.008916221E+02  1.704258110E+02 -3.751129169E+02  4.751179868E+02  1.250000000E+02  0.00000E+00  9.000E+00
      25     1     1     2     0     0 -1.241583600E+02 -2.045604908E+02 -4.719886485E+02  5.437449559E+02  1.250000000E+02  0.00000E+00  9.000E+00
      21     1     1     2   512   502 -7.673326212E+01  3.413467978E+01 -4.330309123E+01  9.448982797E+01  1.581489940E-06  0.00000E+00  9.000E+00
#rwgt            2          11   3.0543602773385110E-003          10      233948           0
</event>
<event>
      5   9999  3.79277E-02  1.47378E+01 -1.00000E+00  1.78108E-01
      21    -1     0     0   511   501  0.000000000E+00  0.000000000E+00  2.157942629E+02  2.157942629E+02  0.000000000E+00  0.00000E+00  9.000E+00
      21    -1     0     0   501   502  0.000000000E+00  0.000000000E+00 -3.827995006E+02  3.827995006E+02  0.000000000E+00  0.00000E+00  9.000E+00
      25     1     1     2     0     0 -3.116129295E+01 -8.376795307E+01 -2.178432842E+00  1.536809738E+02  1.250000000E+02  0.00000E+00  9.000E+00
      25     1     1     2     0     0  2.194913051E+01  7.226402878E+01 -2.869110271E+02  3.219422179E+02  1.250000000E+02  0.00000E+00  9.000E+00
      21     1     1     2   511   502  9.212162443E+00  1.150392429E+01  1.220842222E+02  1.229705718E+02  1.907348633E-06  0.00000E+00  9.000E+00
#rwgt            1           1   4.4790970687598380E-002          10      234058           0
</event>
<event>
      5   9999  3.79277E-02  2.95358E+02 -1.00000E+00  1.05813E-01
      21    -1     0     0   502   501  0.000000000E+00  0.000000000E+00  1.838919943E+02  1.838919943E+02  0.000000000E+00  0.00000E+00  9.000E+00
       2    -1     0     0   501     0  0.000000000E+00  0.000000000E+00 -1.765122345E+03  1.765122345E+03  0.000000000E+00  0.00000E+00  9.000E+00
      25     1     1     2     0     0 -2.506362236E+02 -1.938670974E+01 -1.019134601E+00  2.807497101E+02  1.250000000E+02  0.00000E+00  9.000E+00
      25     1     1     2     0     0  1.932058704E+01  2.030419574E+02 -7.327050420E+02  7.707665017E+02  1.250000000E+02  0.00000E+00  9.000E+00
       2     1     1     2   502     0  2.313156365E+02 -1.836552477E+02 -8.475061741E+02  8.974981275E+02  1.078959322E-05  0.00000E+00  9.000E+00
#rwgt            2          13   5.4202355743100119E-004          10      234287           0
</event>
<event>
      5   9999  3.79277E-02  5.84731E+01 -1.00000E+00  1.35304E-01
      21    -1     0     0   502   501  0.000000000E+00  0.000000000E+00  4.885436744E+02  4.885436744E+02  0.000000000E+00  0.00000E+00  9.000E+00
      21    -1     0     0   501   511  0.000000000E+00  0.000000000E+00 -1.358116635E+02  1.358116635E+02  0.000000000E+00  0.00000E+00  9.000E+00
      25     1     1     2     0     0  1.291972583E+02 -5.440309156E+01  2.300249049E+02  2.969647871E+02  1.250000000E+02  0.00000E+00  9.000E+00
      25     1     1     2     0     0 -1.817060369E+02  2.867503273E+01  1.442340271E+02  2.650807347E+02  1.250000000E+02  0.00000E+00  9.000E+00
      21     1     1     2   502   511  5.250877862E+01  2.572805883E+01 -2.152692101E+01  6.230981601E+01  1.066240300E-06  0.00000E+00  9.000E+00
#rwgt            1           1   3.1120921053623320E-002          10      234366           0
</event>
<event>
      5   9999  3.79277E-02  2.04759E+01 -1.00000E+00  1.65531E-01
      21    -1     0     0   502   512  0.000000000E+00  0.000000000E+00  7.564694730E+02  7.564694730E+02  0.000000000E+00  0.00000E+00  9.000E+00
      21    -1     0     0   501   502  0.000000000E+00  0.000000000E+00 -9.621222384E+01  9.621222384E+01  0.000000000E+00  0.00000E+00  9.000E+00
      25     1     1     2     0     0  1.595844748E+02  3.183895121E+01  4.468290102E+02  4.916930829E+02  1.250000000E+02  0.00000E+00  9.000E+00
      25     1     1     2     0     0 -1.762385695E+02 -4.375122508E+01  9.372827870E+01  2.395499808E+02  1.250000000E+02  0.00000E+00  9.000E+00
      21     1     1     2   501   512  1.665409466E+01  1.191227387E+01  1.196999602E+02  1.214386331E+02  1.348699152E-06  0.00000E+00  9.000E+00
#rwgt            1           1  0.23190706447124487               10      234468           0
</event>
<event>
      5   9999  3.79277E-02  1.53298E+02 -1.00000E+00  1.16021E-01
      21    -1     0     0   511   501  0.000000000E+00  0.000000000E+00  1.324051603E+02  1.324051603E+02  0.000000000E+00  0.00000E+00  9.000E+00
      21    -1     0     0   501   502  0.000000000E+00  0.000000000E+00 -1.223311818E+03  1.223311818E+03  0.000000000E+00  0.00000E+00  9.000E+00
      25     1     1     2     0     0  1.917838237E+02  1.074358301E+02 -3.392496421E+02  4.231297818E+02  1.250000000E+02  0.00000E+00  9.000E+00
      25     1     1     2     0     0 -2.130625419E+02  4.437785751E+01 -7.370331814E+02  7.785935728E+02  1.250000000E+02  0.00000E+00  9.000E+00
      21     1     1     2   511   502  2.127871825E+01 -1.518136876E+02 -1.462383405E+01  1.539936236E+02  2.584395813E-06  0.00000E+00  9.000E+00
#rwgt            1           1   4.1029329528775242E-002          10      234614           0
</event>
<event>
      5   9999  3.79277E-02  3.34466E+01 -1.00000E+00  1.49830E-01
      21    -1     0     0   502   501  0.000000000E+00  0.000000000E+00  1.962755986E+02  1.962755986E+02  0.000000000E+00  0.00000E+00  9.000E+00
      21    -1     0     0   512   502  0.000000000E+00  0.000000000E+00 -2.400332378E+02  2.400332378E+02  0.000000000E+00  0.00000E+00  9.000E+00
      25     1     1     2     0     0  4.477630611E+01 -1.333641326E+02  4.555818516E+01  1.936271099E+02  1.250000000E+02  0.00000E+00  9.000E+00
      25     1     1     2     0     0 -1.347608518E+01  1.451527685E+02 -7.937465657E+01  2.077889968E+02  1.250000000E+02  0.00000E+00  9.000E+00
      21     1     1     2   512   501 -3.130022093E+01 -1.178863593E+01 -9.941167793E+00  3.489272968E+01  5.196212463E-07  0.00000E+00  9.000E+00
#rwgt            1           1   4.3583792667708586E-002          10      234817           0
</event>
<event>
      5   9999  3.79277E-02  3.76278E+02 -1.00000E+00  1.02491E-01
      21    -1     0     0   502   501  0.000000000E+00  0.000000000E+00  3.709227732E+02  3.709227732E+02  0.000000000E+00  0.00000E+00  9.000E+00
       1    -1     0     0   501     0  0.000000000E+00  0.000000000E+00 -8.250834282E+02  8.250834282E+02  0.000000000E+00  0.00000E+00  9.000E+00
      25     1     1     2     0     0  1.223604292E+02 -5.783510928E+01  9.676782776E+01  2.081009058E+02  1.250000000E+02  0.00000E+00  9.000E+00
      25     1     1     2     0     0  1.551223843E+02  3.119779792E+02 -6.909156857E+01  3.765525972E+02  1.250000000E+02  0.00000E+00  9.000E+00
       1     1     1     2   502     0 -2.774828134E+02 -2.541428699E+02 -4.818369142E+02  6.113526985E+02  5.394796609E-06  0.00000E+00  9.000E+00
#rwgt            2          12   1.0552504819678985E-004          10      234920           0
</event>
<event>
      5   9999  3.79277E-02  8.44080E+01 -1.00000E+00  1.27232E-01
       1    -1     0     0   502     0  0.000000000E+00  0.000000000E+00  5.233988279E+02  5.233988279E+02  0.000000000E+00  0.00000E+00  9.000E+00
      21    -1     0     0   501   502  0.000000000E+00  0.000000000E+00 -7.308637124E+02  7.308637124E+02  0.000000000E+00  0.00000E+00  9.000E+00
      25     1     1     2     0     0  1.050879465E+02 -1.344715031E+02 -3.991672472E+02  4.517582903E+02  1.250000000E+02  0.00000E+00  9.000E+00
      25     1     1     2     0     0 -6.489295790E+01  2.086946597E+02 -2.488136925E+02  3.539743078E+02  1.250000000E+02  0.00000E+00  9.000E+00
       1     1     1     2   501     0 -4.019498855E+01 -7.422315670E+01  4.405160553E+02  4.485299422E+02  7.629394531E-06  0.00000E+00  9.000E+00
#rwgt            1           1   3.6924279433461264E-002          10      234984           0
</event>
<event>
      5   9999  3.79277E-02  2.91510E+01 -1.00000E+00  1.53911E-01
      21    -1     0     0   511   501  0.000000000E+00  0.000000000E+00  1.227309378E+02  1.227309378E+02  0.000000000E+00  0.00000E+00  9.000E+00
      21    -1     0     0   501   502  0.000000000E+00  0.000000000E+00 -1.481988169E+03  1.481988169E+03  0.000000000E+00  0.00000E+00  9.000E+00
      25     1     1     2     0     0  1.189805354E+02 -4.025382856E-01  9.512361081E+00  1.728352246E+02  1.250000000E+02  0.00000E+00  9.000E+00
      25     1     1     2     0     0 -1.172413832E+02 -2.869656593E+01 -1.386775994E+03  1.397620010E+03  1.250000000E+02  0.00000E+00  9.000E+00
      21     1     1     2   511   502 -1.739152188E+00  2.909910421E+01  1.800640099E+01  3.426387300E+01  1.192092896E-06  0.00000E+00  9.000E+00
#rwgt            1           1   4.9607757176239713E-002          10      235114           0
</event>
<event>
      5   9999  3.79277E-02  1.53707E+01 -1.00000E+00  1.76391E-01
      21    -1     0     0   512   501  0.000000000E+00  0.000000000E+00  1.432490298E+02  1.432490298E+02  0.000000000E+00  0.00000E+00  9.000E+00
      21    -1     0     0   501   502  0.000000000E+00  0.000000000E+00 -6.945103573E+02  6.945103573E+02  0.000000000E+00  0.00000E+00  9.000E+00
      25     1     1     2     0     0  2.592750523E+01 -1.815186731E+02 -1.949070665E+02  2.953557665E+02  1.250000000E+02  0.00000E+00  9.000E+00
      25     1     1     2     0     0 -1.193268970E+01  1.878749571E+02 -4.199977769E+02  4.769303106E+02  1.250000000E+02  0.00000E+00  9.000E+00
      21     1     1     2   512   502 -1.399481552E+01 -6.356283958E+00  6.364351588E+01  6.547330999E+01  1.168007728E-06  0.00000E+00  9.000E+00
#rwgt            1           1   3.3698777223780417E-002          10      235306           0
</event>
<event>
      5   9999  3.79277E-02  9.21336E+01 -1.00000E+00  1.25450E-01
      21    -1     0     0   502   501  0.000000000E+00  0.000000000E+00  9.418587308E+02  9.418587308E+02  0.000000000E+00  0.00000E+00  9.000E+00
      21    -1     0     0   501   511  0.000000000E+00  0.000000000E+00 -1.041478645E+02  1.041478645E+02  0.000000000E+00  0.00000E+00  9.000E+00
      25     1     1     2     0     0  1.759047537E+02 -1.418346521E+02  5.224852398E+02  5.828167609E+02  1.250000000E+02  0.00000E+00  9.000E+00
      25     1     1     2     0     0 -1.532367411E+02  5.253316121E+01  3.093154043E+02  3.708668915E+02  1.250000000E+02  0.00000E+00  9.000E+00
      21     1     1     2   502   511 -2.266801261E+01  8.930149091E+01  5.910222178E+00  9.232294298E+01  1.146518234E-06  0.00000E+00  9.000E+00
#rwgt            1           1   4.2205057213771852E-002          10      235470           0
</event>
<event>
      5   9999  3.79277E-02  2.69899E+01 -1.00000E+00  1.56299E-01
      21    -1     0     0   512   501  0.000000000E+00  0.000000000E+00  1.863573258E+02  1.863573258E+02  0.000000000E+00  0.00000E+00  9.000E+00
      21    -1     0     0   501   502  0.000000000E+00  0.000000000E+00 -2.569975042E+02  2.569975042E+02  0.000000000E+00  0.00000E+00  9.000E+00
      25     1     1     2     0     0  1.443387611E+02  4.699485239E+01 -1.215808659E+02  2.311906163E+02  1.250000000E+02  0.00000E+00  9.000E+00
      25     1     1     2     0     0 -1.175713508E+02 -5.045289678E+01  4.200167919E+01  1.837325730E+02  1.250000000E+02  0.00000E+00  9.000E+00
      21     1     1     2   512   502 -2.676741030E+01  3.458044390E+00  8.939008273E+00  2.843164072E+01  6.078504936E-07  0.00000E+00  9.000E+00
#rwgt            1           1   2.1741384436862340E-002          10      235547           0
</event>
<event>
      5   9999  3.79277E-02  1.18288E+02 -1.00000E+00  1.20634E-01
      21    -1     0     0   502   501  0.000000000E+00  0.000000000E+00  3.617015815E+02  3.617015815E+02  0.000000000E+00  0.00000E+00  9.000E+00
      21    -1     0     0   501   511  0.000000000E+00  0.000000000E+00 -6.814907301E+02  6.814907301E+02  0.000000000E+00  0.00000E+00  9.000E+00
      25     1     1     2     0     0  2.426961698E+02 -6.529172245E+01  1.512589566E+02  3.188553148E+02  1.250000000E+02  0.00000E+00  9.000E+00
      25     1     1     2     0     0 -2.021200829E+02  1.764030189E+02 -6.716856327E+01  3.034916290E+02  1.250000000E+02  0.00000E+00  9.000E+00
      21     1     1     2   502   511 -4.057608685E+01 -1.111112965E+02 -4.038795420E+02  4.208453676E+02  0.000000000E+00  0.00000E+00  9.000E+00
#rwgt            1           1   3.6400196328351973E-002          10      235678           0
</event>
<event>
      5   9999  3.79277E-02  2.07385E+01 -1.00000E+00  1.65080E-01
       1    -1     0     0   502     0  0.000000000E+00  0.000000000E+00  8.436829372E+02  8.436829372E+02  0.000000000E+00  0.00000E+00  9.000E+00
      21    -1     0     0   501   502  0.000000000E+00  0.000000000E+00 -9.401607671E+02  9.401607671E+02  0.000000000E+00  0.00000E+00  9.000E+00
      25     1     1     2     0     0  9.340532748E+01  9.328500537E+01 -5.483695807E+02  5.777203860E+02  1.250000000E+02  0.00000E+00  9.000E+00
      25     1     1     2     0     0 -9.251502558E+01 -1.140043522E+02 -3.523250891E+02  4.016391299E+02  1.250000000E+02  0.00000E+00  9.000E+00
       1     1     1     2   501     0 -8.903018972E-01  2.071934678E+01  8.042168398E+02  8.044841884E+02  1.078959322E-05  0.00000E+00  9.000E+00
#rwgt            1           1   3.6706831617010875E-002          10      235756           0
</event>
<event>
      5   9999  3.79277E-02  4.08793E+01 -1.00000E+00  1.44257E-01
      21    -1     0     0   502   501  0.000000000E+00  0.000000000E+00  4.473713474E+02  4.473713474E+02  0.000000000E+00  0.00000E+00  9.000E+00
      21    -1     0     0   511   502  0.000000000E+00  0.000000000E+00 -1.436950521E+02  1.436950521E+02  0.000000000E+00  0.00000E+00  9.000E+00
      25     1     1     2     0     0  1.636490472E+02 -5.968897168E+01  5.700783961E+01  2.218528291E+02  1.250000000E+02  0.00000E+00  9.000E+00
      25     1     1     2     0     0 -1.910006948E+02  2.930791458E+01  2.290521565E+02  3.247000303E+02  1.250000000E+02  0.00000E+00  9.000E+00
      21     1     1     2   511   501  2.735164757E+01  3.038105711E+01  1.761629920E+01  4.451354011E+01  6.743495762E-07  0.00000E+00  9.000E+00
#rwgt            1           1   4.0007317794369252E-002          10      235957           0
</event>
<event>
      5   9999  3.79277E-02  4.11938E+00 -1.00000E+00  2.60497E-01
      21    -1     0     0   502   501  0.000000000E+00  0.000000000E+00  2.038154555E+02  2.038154555E+02  0.000000000E+00  0.00000E+00  9.000E+00
      21    -1     0     0   512   502  0.000000000E+00  0.000000000E+00 -7.962553087E+02  7.962553087E+02  0.000000000E+00  0.00000E+00  9.000E+00
      25     1     1     2     0     0 -1.517767319E+02  5.099960482E+01  1.046545885E+02  2.285054024E+02  1.250000000E+02  0.00000E+00  9.000E+00
      25     1     1     2     0     0  1.525560141E+02 -5.504460773E+01 -2.443522756E+02  3.188044556E+02  1.250000000E+02  0.00000E+00  9.000E+00
      21     1     1     2   512   501 -7.792821933E-01  4.045002912E+00 -4.527421660E+02  4.527609062E+02  5.394796609E-06  0.00000E+00  9.000E+00
#rwgt            1           1   2.6604548435502515E-002          10      236075           0
</event>
<event>
      5   9999  3.79277E-02  6.99641E+01 -1.00000E+00  1.31232E-01
      21    -1     0     0   502   511  0.000000000E+00  0.000000000E+00  4.483840761E+02  4.483840761E+02  0.000000000E+00  0.00000E+00  9.000E+00
      21    -1     0     0   501   502  0.000000000E+00  0.000000000E+00 -1.758189760E+02  1.758189760E+02  0.000000000E+00  0.00000E+00  9.000E+00
      25     1     1     2     0     0  8.292595612E+01 -4.876223563E+01 -1.108074802E+02  1.927635014E+02  1.250000000E+02  0.00000E+00  9.000E+00
      25     1     1     2     0     0 -2.308587995E+01  1.251113617E+01  2.570922750E+02  2.870730294E+02  1.250000000E+02  0.00000E+00  9.000E+00
      21     1     1     2   501   511 -5.984007617E+01  3.625109946E+01  1.262803054E+02  1.443665212E+02  1.907348633E-06  0.00000E+00  9.000E+00
#rwgt            1           1   4.9518372761939815E-002          10      236511           0
</event>
<event>
      5   9999  3.79277E-02  2.11292E+01 -1.00000E+00  1.64425E-01
      21    -1     0     0   502   512  0.000000000E+00  0.000000000E+00  3.549999059E+02  3.549999059E+02  0.000000000E+00  0.00000E+00  9.000E+00
      21    -1     0     0   501   502  0.000000000E+00  0.000000000E+00 -3.391183419E+02  3.391183419E+02  0.000000000E+00  0.00000E+00  9.000E+00
      25     1     1     2     0     0 -1.344437191E+02 -9.702337727E-01  2.053830839E+02  2.754691745E+02  1.250000000E+02  0.00000E+00  9.000E+00
      25     1     1     2     0     0  1.459935070E+02  1.866327838E+01 -2.719518512E+02  3.335344531E+02  1.250000000E+02  0.00000E+00  9.000E+00
      21     1     1     2   501   512 -1.154978784E+01 -1.769304461E+01  8.245033139E+01  8.511462021E+01  9.536743164E-07  0.00000E+00  9.000E+00
#rwgt            1           1   3.9447835490317933E-002          10      236569           0
</event>
<event>
      5   9999  3.79277E-02  2.48771E+01 -1.00000E+00  1.58911E-01
      21    -1     0     0   502   501  0.000000000E+00  0.000000000E+00  8.199324764E+01  8.199324764E+01  0.000000000E+00  0.00000E+00  9.000E+00
      21    -1     0     0   501   511  0.000000000E+00  0.000000000E+00 -9.865780814E+02  9.865780814E+02  0.000000000E+00  0.00000E+00  9.000E+00
      25     1     1     2     0     0 -1.608412261E+02  1.511125332E+02 -3.194916501E+02  4.079274595E+02  1.250000000E+02  0.00000E+00  9.000E+00
      25     1     1     2     0     0  1.804736891E+02 -1.663911877E+02 -4.876500341E+02  5.600752945E+02  1.250000000E+02  0.00000E+00  9.000E+00
      21     1     1     2   502   511 -1.963246292E+01  1.527865451E+01 -9.744314950E+01  1.005685750E+02  0.000000000E+00  0.00000E+00  9.000E+00
#rwgt            1           1   3.8085962709677568E-002          10      236896           0
</event>
<event>
      5   9999 -3.79277E-02  2.04270E+01 -1.00000E+00  1.65616E-01
      21    -1     0     0   512   501  0.000000000E+00  0.000000000E+00  2.722297881E+01  2.722297881E+01  0.000000000E+00  0.00000E+00  9.000E+00
      21    -1     0     0   501   502  0.000000000E+00  0.000000000E+00 -1.755952659E+03  1.755952659E+03  0.000000000E+00  0.00000E+00  9.000E+00
      25     1     1     2     0     0 -1.216346834E+01 -1.279694876E+02 -4.013990433E+02  4.396252173E+02  1.250000000E+02  0.00000E+00  9.000E+00
      25     1     1     2     0     0  3.252493710E+01  1.263341794E+02 -1.267877523E+03  1.280685991E+03  1.250000000E+02  0.00000E+00  9.000E+00
      21     1     1     2   512   502 -2.036146875E+01  1.635308211E+00 -5.945311449E+01  6.286442925E+01  0.000000000E+00  0.00000E+00  9.000E+00
#rwgt            1           1  -7.5151162930759116E-002          10      237112           0
</event>
<event>
      5   9999  3.79277E-02  2.61405E+01 -1.00000E+00  1.57313E-01
      21    -1     0     0   502   511  0.000000000E+00  0.000000000E+00  2.116382068E+02  2.116382068E+02  0.000000000E+00  0.00000E+00  9.000E+00
      21    -1     0     0   501   502  0.000000000E+00  0.000000000E+00 -2.300517974E+02  2.300517974E+02  0.000000000E+00  0.00000E+00  9.000E+00
      25     1     1     2     0     0 -2.460125881E+01 -8.285685339E+01 -1.475182305E+02  2.117949679E+02  1.250000000E+02  0.00000E+00  9.000E+00
      25     1     1     2     0     0  8.037990195E+00  1.030802238E+02  9.907459781E+01  1.900813451E+02  1.250000000E+02  0.00000E+00  9.000E+00
      21     1     1     2   501   511  1.656326861E+01 -2.022337045E+01  3.003004207E+01  3.981369119E+01  4.768371582E-07  0.00000E+00  9.000E+00
#rwgt            1           1   3.7640851627733757E-002          10      237287           0
</event>
<event>
      5   9999  3.79277E-02  4.25984E+01 -1.00000E+00  1.43165E-01
      21    -1     0     0   502   501  0.000000000E+00  0.000000000E+00  9.001336693E+02  9.001336693E+02  0.000000000E+00  0.00000E+00  9.000E+00
      21    -1     0     0   501   512  0.000000000E+00  0.000000000E+00 -1.551933363E+02  1.551933363E+02  0.000000000E+00  0.00000E+00  9.000E+00
      25     1     1     2     0     0 -1.349296752E+02 -1.424458533E+02 -1.903493232E+01  2.334184376E+02  1.250000000E+02  0.00000E+00  9.000E+00
      25     1     1     2     0     0  9.266747072E+01  1.371046222E+02  7.483175033E+02  7.765236786E+02  1.250000000E+02  0.00000E+00  9.000E+00
      21     1     1     2   502   512  4.226220447E+01  5.341231081E+00  1.565776193E+01  4.538488939E+01  1.118282261E-06  0.00000E+00  9.000E+00
#rwgt            1           1   3.8812822893036142E-002          10      237640           0
</event>
<event>
      5   9999  3.79277E-02  7.86899E+01 -1.00000E+00  1.28698E-01
      21    -1     0     0   502   501  0.000000000E+00  0.000000000E+00  1.887497118E+01  1.887497118E+01  0.000000000E+00  0.00000E+00  9.000E+00
      21    -1     0     0   511   502  0.000000000E+00  0.000000000E+00 -2.681105934E+03  2.681105934E+03  0.000000000E+00  0.00000E+00  9.000E+00
      25     1     1     2     0     0 -1.402608799E+02 -3.218956138E+01 -1.010374438E+03  1.028197835E+03  1.250000000E+02  0.00000E+00  9.000E+00
      25     1     1     2     0     0  8.484564411E+01 -2.367856965E+01 -6.914308105E+02  7.081391273E+02  1.250000000E+02  0.00000E+00  9.000E+00
      21     1     1     2   511   501  5.541523583E+01  5.586813103E+01 -9.604257145E+02  9.636439433E+02  1.078959322E-05  0.00000E+00  9.000E+00
#rwgt            1           1  0.14770774592858926               10      237859           0
</event>
<event>
      5   9999  3.79277E-02  6.65358E+01 -1.00000E+00  1.32347E-01
      21    -1     0     0   502   501  0.000000000E+00  0.000000000E+00  1.090293766E+02  1.090293766E+02  0.000000000E+00  0.00000E+00  9.000E+00
      21    -1     0     0   512   502  0.000000000E+00  0.000000000E+00 -9.797125918E+02  9.797125918E+02  0.000000000E+00  0.00000E+00  9.000E+00
      25     1     1     2     0     0  7.993254269E+01  1.719905822E+02 -2.638423167E+02  3.481490196E+02  1.250000000E+02  0.00000E+00  9.000E+00
      25     1     1     2     0     0 -1.048815380E+02 -2.336716731E+02 -2.547270427E+02  3.822478961E+02  1.250000000E+02  0.00000E+00  9.000E+00
      21     1     1     2   512   501  2.494899534E+01  6.168109095E+01 -3.521138558E+02  3.583450527E+02  0.000000000E+00  0.00000E+00  9.000E+00
#rwgt            2          11   8.4159807536784937E-004          10      238061           0
</event>
<event>
      5   9999  3.79277E-02  1.39188E+02 -1.00000E+00  1.17696E-01
      21    -1     0     0   502   511  0.000000000E+00  0.000000000E+00  5.658643922E+02  5.658643922E+02  0.000000000E+00  0.00000E+00  9.000E+00
      21    -1     0     0   501   502  0.000000000E+00  0.000000000E+00 -4.935165277E+02  4.935165277E+02  0.000000000E+00  0.00000E+00  9.000E+00
      25     1     1     2     0     0 -3.809634555E+02  1.712167980E+02 -5.288400089E+01  4.391697439E+02  1.250000000E+02  0.00000E+00  9.000E+00
      25     1     1     2     0     0  3.344482273E+02 -3.024021274E+02  1.053494812E+02  4.796104425E+02  1.250000000E+02  0.00000E+00  9.000E+00
      21     1     1     2   501   511  4.651522825E+01  1.311853293E+02  1.988238421E+01  1.406007336E+02  1.800020799E-06  0.00000E+00  9.000E+00
#rwgt            1           1  0.14563820221249951               10      238096           0
</event>
<event>
      5   9999  3.79277E-02  4.36127E+01 -1.00000E+00  1.42549E-01
      21    -1     0     0   502   501  0.000000000E+00  0.000000000E+00  8.452300904E+02  8.452300904E+02  0.000000000E+00  0.00000E+00  9.000E+00
      21    -1     0     0   512   502  0.000000000E+00  0.000000000E+00 -6.570753673E+01  6.570753673E+01  0.000000000E+00  0.00000E+00  9.000E+00
      25     1     1     2     0     0  7.941207467E+01  7.320072388E+01  2.324301356E+02  2.851550307E+02  1.250000000E+02  0.00000E+00  9.000E+00
      25     1     1     2     0     0 -1.230028068E+02 -7.181584767E+01  5.503356707E+02  5.820494454E+02  1.250000000E+02  0.00000E+00  9.000E+00
      21     1     1     2   512   501  4.359073210E+01 -1.384876215E+00 -3.243252715E+00  4.373315099E+01  1.488326906E-06  0.00000E+00  9.000E+00
#rwgt            1           1   5.0233198254707345E-002          10      238144           0
</event>
<event>
      5   9999  3.79277E-02  1.02540E+02 -1.00000E+00  1.23340E-01
      21    -1     0     0   502   501  0.000000000E+00  0.000000000E+00  7.028694294E+02  7.028694294E+02  0.000000000E+00  0.00000E+00  9.000E+00
      21    -1     0     0   511   502  0.000000000E+00  0.000000000E+00 -8.047211570E+01  8.047211570E+01  0.000000000E+00  0.00000E+00  9.000E+00
      25     1     1     2     0     0  5.525374001E+01 -6.352063519E+01  8.818031497E+01  1.746098933E+02  1.250000000E+02  0.00000E+00  9.000E+00
      25     1     1     2     0     0 -1.606260672E+01 -3.123444266E+01  4.703176248E+02  4.879111251E+02  1.250000000E+02  0.00000E+00  9.000E+00
      21     1     1     2   511   501 -3.919113328E+01  9.475507785E+01  6.389937394E+01  1.208205268E+02  2.336015456E-06  0.00000E+00  9.000E+00
#rwgt            1           1   4.4939115545382234E-002          10      238244           0
</event>
<event>
      5   9999  3.79277E-02  4.36399E+01 -1.00000E+00  1.42533E-01
      21    -1     0     0   502   512  0.000000000E+00  0.000000000E+00  2.592832963E+02  2.592832963E+02  0.000000000E+00  0.00000E+00  9.000E+00
      21    -1     0     0   501   502  0.000000000E+00  0.000000000E+00 -1.176758888E+02  1.176758888E+02  0.000000000E+00  0.00000E+00  9.000E+00
      25     1     1     2     0     0 -4.625250534E+01  4.253115681E+01  1.057934322E+02  1.754008091E+02  1.250000000E+02  0.00000E+00  9.000E+00
      25     1     1     2     0     0  8.382396695E+01 -2.033152476E+01  1.329768164E+01  1.524521455E+02  1.250000000E+02  0.00000E+00  9.000E+00
      21     1     1     2   501   512 -3.757146161E+01 -2.219963204E+01  2.251629365E+01  4.910623046E+01  4.768371582E-07  0.00000E+00  9.000E+00
#rwgt            1           1   9.6367867650373057E-002          10      238402           0
</event>
<event>
      5   9999  3.79277E-02  5.54811E+01 -1.00000E+00  1.36546E-01
      21    -1     0     0   502   501  0.000000000E+00  0.000000000E+00  2.930817595E+02  2.930817595E+02  0.000000000E+00  0.00000E+00  9.000E+00
      21    -1     0     0   501   511  0.000000000E+00  0.000000000E+00 -2.036376186E+02  2.036376186E+02  0.000000000E+00  0.00000E+00  9.000E+00
      25     1     1     2     0     0 -9.783519171E+01  1.420857290E+02 -4.587130983E+01  2.179202978E+02  1.250000000E+02  0.00000E+00  9.000E+00
      25     1     1     2     0     0  4.582343148E+01 -1.227744817E+02  1.302704763E+02  2.230891239E+02  1.250000000E+02  0.00000E+00  9.000E+00
      21     1     1     2   502   511  5.201176023E+01 -1.931124731E+01  5.044974447E+00  5.570995640E+01  1.307231915E-06  0.00000E+00  9.000E+00
#rwgt            1           1   3.5100521363952746E-002          10      238619           0
</event>
<event>
      5   9999  3.79277E-02  1.65104E+01 -1.00000E+00  1.73546E-01
      21    -1     0     0   502   501  0.000000000E+00  0.000000000E+00  2.840069814E+02  2.840069814E+02  0.000000000E+00  0.00000E+00  9.000E+00
      21    -1     0     0   501   512  0.000000000E+00  0.000000000E+00 -2.659679735E+02  2.659679735E+02  0.000000000E+00  0.00000E+00  9.000E+00
      25     1     1     2     0     0 -2.098035975E+02  2.087412490E+01  4.803304833E+01  2.497707996E+02  1.250000000E+02  0.00000E+00  9.000E+00
      25     1     1     2     0     0  2.202447764E+02 -8.084420860E+00  1.344834184E+01  2.537301269E+02  1.250000000E+02  0.00000E+00  9.000E+00
      21     1     1     2   502   512 -1.044117892E+01 -1.278970404E+01 -4.344238221E+01  4.647402843E+01  4.768371582E-07  0.00000E+00  9.000E+00
#rwgt            1           1   3.8884034107376786E-002          10      238689           0
</event>
<event>
      5   9999  3.79277E-02  2.57855E+02 -1.00000E+00  1.07773E-01
      21    -1     0     0   502   511  0.000000000E+00  0.000000000E+00  2.479001254E+03  2.479001254E+03  0.000000000E+00  0.00000E+00  9.000E+00
      21    -1     0     0   501   502  0.000000000E+00  0.000000000E+00 -8.960243834E+01  8.960243834E+01  0.000000000E+00  0.00000E+00  9.000E+00
      25     1     1     2     0     0 -3.489100491E+02 -5.154199798E+01  8.339268810E+02  9.140316421E+02  1.250000000E+02  0.00000E+00  9.000E+00
      25     1     1     2     0     0  1.515203074E+02 -1.143693719E+02  3.201900776E+02  3.926645420E+02  1.250000000E+02  0.00000E+00  9.000E+00
      21     1     1     2   501   511  1.973897418E+02  1.659113699E+02  1.235281857E+03  1.261907508E+03  2.642899792E-05  0.00000E+00  9.000E+00
#rwgt            2          11   5.2906594115440290E-004          10      239114           0
</event>
<event>
      5   9999  3.79277E-02  5.05453E+01 -1.00000E+00  1.38807E-01
      21    -1     0     0   502   501  0.000000000E+00  0.000000000E+00  2.436588999E+02  2.436588999E+02  0.000000000E+00  0.00000E+00  9.000E+00
      21    -1     0     0   501   512  0.000000000E+00  0.000000000E+00 -4.015798556E+02  4.015798556E+02  0.000000000E+00  0.00000E+00  9.000E+00
      25     1     1     2     0     0  5.054795667E+01  1.636819767E+02  1.207324929E+02  2.440250403E+02  1.250000000E+02  0.00000E+00  9.000E+00
      25     1     1     2     0     0 -7.961985524E+01 -1.223340777E+02 -1.021875931E+02  2.176516761E+02  1.250000000E+02  0.00000E+00  9.000E+00
      21     1     1     2   502   512  2.907189858E+01 -4.134789905E+01 -1.764658555E+02  1.835620391E+02  3.814697266E-06  0.00000E+00  9.000E+00
#rwgt            1           1   4.5988212481079621E-002          10      239164           0
</event>
<event>
      5   9999 -3.79277E-02  1.92362E+01 -1.00000E+00  1.67776E-01
      21    -1     0     0   511   501  0.000000000E+00  0.000000000E+00  4.817684386E+02  4.817684386E+02  0.000000000E+00  0.00000E+00  9.000E+00
      21    -1     0     0   501   502  0.000000000E+00  0.000000000E+00 -1.005401010E+02  1.005401010E+02  0.000000000E+00  0.00000E+00  9.000E+00
      25     1     1     2     0     0  8.852113012E+01 -7.208885717E+01  3.192563129E+02  3.613618507E+02  1.250000000E+02  0.00000E+00  9.000E+00
      25     1     1     2     0     0 -1.047503340E+02  6.176192755E+01  2.095802260E+01  1.756456856E+02  1.250000000E+02  0.00000E+00  9.000E+00
      21     1     1     2   511   502  1.622920390E+01  1.032692962E+01  4.101400204E+01  4.530100328E+01  6.743495762E-07  0.00000E+00  9.000E+00
#rwgt            1           1  -8.4588225039622933E-002          10      239273           0
</event>
<event>
      5   9999  3.79277E-02  2.06323E+02 -1.00000E+00  1.11158E-01
      21    -1     0     0   502   512  0.000000000E+00  0.000000000E+00  9.847361595E+01  9.847361595E+01  0.000000000E+00  0.00000E+00  9.000E+00
      21    -1     0     0   501   502  0.000000000E+00  0.000000000E+00 -1.609009951E+03  1.609009951E+03  0.000000000E+00  0.00000E+00  9.000E+00
      25     1     1     2     0     0  1.240056704E+02  1.196065732E+02 -2.900636184E+02  3.597847153E+02  1.250000000E+02  0.00000E+00  9.000E+00
      25     1     1     2     0     0  2.779036216E+01  2.013295611E+01 -1.102369875E+03  1.109964856E+03  1.250000000E+02  0.00000E+00  9.000E+00
      21     1     1     2   501   512 -1.517960325E+02 -1.397395293E+02 -1.181028419E+02  2.377339959E+02  4.473129043E-06  0.00000E+00  9.000E+00
#rwgt            1           1   4.4805939792724417E-002          10      239554           0
</event>
<event>
      5   9999  3.79277E-02  6.05452E+01 -1.00000E+00  1.34494E-01
      21    -1     0     0   511   501  0.000000000E+00  0.000000000E+00  3.996566614E+02  3.996566614E+02  0.000000000E+00  0.00000E+00  9.000E+00
      21    -1     0     0   501   502  0.000000000E+00  0.000000000E+00 -1.854131240E+02  1.854131240E+02  0.000000000E+00  0.00000E+00  9.000E+00
      25     1     1     2     0     0 -5.030359517E+01 -7.223273520E+01 -1.060302105E+02  1.860522111E+02  1.250000000E+02  0.00000E+00  9.000E+00
      25     1     1     2     0     0  1.094806407E+02  5.943437052E+01  2.221026914E+02  2.836777408E+02  1.250000000E+02  0.00000E+00  9.000E+00
      21     1     1     2   511   502 -5.917704549E+01  1.279836469E+01  9.817105658E+01  1.153398335E+02  1.348699152E-06  0.00000E+00  9.000E+00
#rwgt            1           1   3.6313155919945501E-002          10      239590           0
</event>
<event>
      5   9999  3.79277E-02  6.82523E+01 -1.00000E+00  1.31779E-01
      21    -1     0     0   512   501  0.000000000E+00  0.000000000E+00  8.230127996E+01  8.230127996E+01  0.000000000E+00  0.00000E+00  9.000E+00
      21    -1     0     0   501   502  0.000000000E+00  0.000000000E+00 -8.451617634E+02  8.451617634E+02  0.000000000E+00  0.00000E+00  9.000E+00
      25     1     1     2     0     0 -7.697986424E+00  1.386962073E+02 -3.193014678E+02  3.699653015E+02  1.250000000E+02  0.00000E+00  9.000E+00
      25     1     1     2     0     0 -1.660738852E+01 -2.024741763E+02 -4.240136128E+02  4.865019437E+02  1.250000000E+02  0.00000E+00  9.000E+00
      21     1     1     2   512   502  2.430537494E+01  6.377796906E+01 -1.954540283E+01  7.099579819E+01  7.152557373E-07  0.00000E+00  9.000E+00
#rwgt            1           1   1.4208558854616856E-002          10      239865           0
</event>
<event>
      5   9999  3.79277E-02  2.03473E+01 -1.00000E+00  1.65755E-01
      21    -1     0     0   502   501  0.000000000E+00  0.000000000E+00  9.908358866E+02  9.908358866E+02  0.000000000E+00  0.00000E+00  9.000E+00
      21    -1     0     0   501   511  0.000000000E+00  0.000000000E+00 -6.597413580E+01  6.597413580E+01  0.000000000E+00  0.00000E+00  9.000E+00
      25     1     1     2     0     0 -1.363089434E+02  1.104125665E+02  4.101185760E+02  4.632421713E+02  1.250000000E+02  0.00000E+00  9.000E+00
      25     1     1     2     0     0  1.556357216E+02 -1.040496643E+02  5.246742687E+02  5.709263514E+02  1.250000000E+02  0.00000E+00  9.000E+00
      21     1     1     2   502   511 -1.932677826E+01 -6.362902187E+00 -9.931093932E+00  2.264149970E+01  5.717076687E-07  0.00000E+00  9.000E+00
#rwgt            1           1   3.9272894477974558E-002          10      239967           0
</event>
<event>
      5   9999  3.79277E-02  5.25833E+01 -1.00000E+00  1.37839E-01
      21    -1     0     0   502   501  0.000000000E+00  0.000000000E+00  6.655961468E+02  6.655961468E+02  0.000000000E+00  0.00000E+00  9.000E+00
      21    -1     0     0   501   512  0.000000000E+00  0.000000000E+00 -8.285357804E+01  8.285357804E+01  0.000000000E+00  0.00000E+00  9.000E+00
      25     1     1     2     0     0 -6.447444996E+01  2.336045391E+01  8.193430677E+01  1.644411631E+02  1.250000000E+02  0.00000E+00  9.000E+00
      25     1     1     2     0     0  4.211814535E+01 -7.095458582E+01  5.091897686E+02  5.307614454E+02  1.250000000E+02  0.00000E+00  9.000E+00
      21     1     1     2   502   512  2.235630461E+01  4.759413191E+01 -8.381506607E+00  5.324711637E+01  6.637292341E-07  0.00000E+00  9.000E+00
#rwgt            1           1   4.8370264144410612E-002          10      240124           0
</event>
<event>
      5   9999  3.79277E-02  5.85240E+00 -1.00000E+00  2.27165E-01
      21    -1     0     0   511   501  0.000000000E+00  0.000000000E+00  5.172160472E+02  5.172160472E+02  0.000000000E+00  0.00000E+00  9.000E+00
      21    -1     0     0   501   502  0.000000000E+00  0.000000000E+00 -8.703259510E+01  8.703259510E+01  0.000000000E+00  0.00000E+00  9.000E+00
      25     1     1     2     0     0  7.156778179E+01 -1.263308077E+02  1.222702710E+02  2.272805305E+02  1.250000000E+02  0.00000E+00  9.000E+00
      25     1     1     2     0     0 -6.691850295E+01  1.298853529E+02  2.342000676E+02  3.030230397E+02  1.250000000E+02  0.00000E+00  9.000E+00
      21     1     1     2   511   502 -4.649278844E+00 -3.554545199E+00  7.371311351E+01  7.394507210E+01  0.000000000E+00  0.00000E+00  9.000E+00
#rwgt            1           1   3.5452277100885353E-002          10      240200           0
</event>
<event>
      5   9999  3.79277E-02  7.19796E+01 -1.00000E+00  1.30610E-01
      21    -1     0     0   502   501  0.000000000E+00  0.000000000E+00  9.129072804E+01  9.129072804E+01  0.000000000E+00  0.00000E+00  9.000E+00
       1    -1     0     0   501     0  0.000000000E+00  0.000000000E+00 -5.586419216E+02  5.586419216E+02  0.000000000E+00  0.00000E+00  9.000E+00
      25     1     1     2     0     0  2.150467412E+01 -2.400569620E+01 -2.842557208E+02  3.121939129E+02  1.250000000E+02  0.00000E+00  9.000E+00
      25     1     1     2     0     0 -6.930274999E+01 -2.981251927E+01 -5.494217270E+00  1.461055916E+02  1.250000000E+02  0.00000E+00  9.000E+00
       1     1     1     2   502     0  4.779807587E+01  5.381821546E+01 -1.776012554E+02  1.916331451E+02  1.907348633E-06  0.00000E+00  9.000E+00
#rwgt            1           1   5.4203971370781305E-002          10      240679           0
</event>
<event>
      5   9999  3.79277E-02  2.10788E+02 -1.00000E+00  1.10824E-01
      21    -1     0     0   511   501  0.000000000E+00  0.000000000E+00  1.535564985E+02  1.535564985E+02  0.000000000E+00  0.00000E+00  9.000E+00
      21    -1     0     0   501   502  0.000000000E+00  0.000000000E+00 -1.724508979E+03  1.724508979E+03  0.000000000E+00  0.00000E+00  9.000E+00
      25     1     1     2     0     0  2.006590541E+02  2.346951584E+02 -1.234063830E+03  1.278234880E+03  1.250000000E+02  0.00000E+00  9.000E+00
      25     1     1     2     0     0 -1.032775533E+02 -4.775003436E+01 -3.499544358E+02  3.886379110E+02  1.250000000E+02  0.00000E+00  9.000E+00
      21     1     1     2   511   502 -9.738150082E+01 -1.869451240E+02  1.306578474E+01  2.111926865E+02  5.207140367E-06  0.00000E+00  9.000E+00
#rwgt            2          11   2.6487168181922580E-003          10      240748           0
</event>
<event>
      5   9999  3.79277E-02  5.99213E+01 -1.00000E+00  1.34734E-01
      21    -1     0     0   502   512  0.000000000E+00  0.000000000E+00  9.397645855E+02  9.397645855E+02  0.000000000E+00  0.00000E+00  9.000E+00
      21    -1     0     0   501   502  0.000000000E+00  0.000000000E+00 -9.057468019E+01  9.057468019E+01  0.000000000E+00  0.00000E+00  9.000E+00
      25     1     1     2     0     0 -1.455552031E+01  1.468639364E+02  3.931022383E+02  4.381041528E+02  1.250000000E+02  0.00000E+00  9.000E+00
      25     1     1     2     0     0  6.821279655E+01 -1.735370552E+02  1.273711259E+02  2.581017219E+02  1.250000000E+02  0.00000E+00  9.000E+00
      21     1     1     2   501   512 -5.365727624E+01  2.667311875E+01  3.287165411E+02  3.341333910E+02  0.000000000E+00  0.00000E+00  9.000E+00
#rwgt            1           1  0.27897298404164456               10      240768           0
</event>
<event>
      5   9999  3.79277E-02  2.44560E+01 -1.00000E+00  1.59470E-01
       1    -1     0     0   502     0  0.000000000E+00  0.000000000E+00  8.713530607E+02  8.713530607E+02  0.000000000E+00  0.00000E+00  9.000E+00
      21    -1     0     0   501   502  0.000000000E+00  0.000000000E+00 -9.071456069E+01  9.071456069E+01  0.000000000E+00  0.00000E+00  9.000E+00
      25     1     1     2     0     0  1.636226549E+01 -2.295968547E+02  3.095908946E+02  4.055292362E+02  1.250000000E+02  0.00000E+00  9.000E+00
      25     1     1     2     0     0 -1.221834104E+00  2.103910969E+02  3.165568536E+02  4.001239159E+02  1.250000000E+02  0.00000E+00  9.000E+00
       1     1     1     2   501     0 -1.514043139E+01  1.920575772E+01  1.544907518E+02  1.564144692E+02  2.697398305E-06  0.00000E+00  9.000E+00
#rwgt            1           1   3.2030962038607377E-002          10      240951           0
</event>
<event>
      5   9999  3.79277E-02  5.66923E+00 -1.00000E+00  2.29366E-01
      21    -1     0     0   511   501  0.000000000E+00  0.000000000E+00  7.615107477E+02  7.615107477E+02  0.000000000E+00  0.00000E+00  9.000E+00
      21    -1     0     0   501   502  0.000000000E+00  0.000000000E+00 -1.394526587E+02  1.394526587E+02  0.000000000E+00  0.00000E+00  9.000E+00
      25     1     1     2     0     0  8.388439729E+01 -1.544036551E+02  2.194050590E+01  2.167566991E+02  1.250000000E+02  0.00000E+00  9.000E+00
      25     1     1     2     0     0 -8.560750934E+01  1.490026358E+02  2.266118424E+02  3.106579441E+02  1.250000000E+02  0.00000E+00  9.000E+00
      21     1     1     2   511   502  1.723112055E+00  5.401019313E+00  3.735057406E+02  3.735487631E+02  7.629394531E-06  0.00000E+00  9.000E+00
#rwgt            1           1   2.5026228020884212E-002          10      241168           0
</event>
<event>
      5   9999  3.79277E-02  2.28457E+01 -1.00000E+00  1.61739E-01
      21    -1     0     0   502   501  0.000000000E+00  0.000000000E+00  2.334062782E+02  2.334062782E+02  0.000000000E+00  0.00000E+00  9.000E+00
      21    -1     0     0   512   502  0.000000000E+00  0.000000000E+00 -2.163417975E+02  2.163417975E+02  0.000000000E+00  0.00000E+00  9.000E+00
      25     1     1     2     0     0 -1.378889577E+02  4.614363448E+01 -4.379848451E+01  1.966873328E+02  1.250000000E+02  0.00000E+00  9.000E+00
      25     1     1     2     0     0  1.518101451E+02 -6.425788020E+01  8.142003344E+01  2.223277247E+02  1.250000000E+02  0.00000E+00  9.000E+00
      21     1     1     2   512   501 -1.392118741E+01  1.811424572E+01 -2.055706824E+01  3.073301826E+01  4.129530925E-07  0.00000E+00  9.000E+00
#rwgt            1           1   5.3977455142300977E-002          10      241534           0
</event>
<event>
      5   9999  3.79277E-02  3.41248E+01 -1.00000E+00  1.49253E-01
      21    -1     0     0   502   501  0.000000000E+00  0.000000000E+00  2.265309937E+02  2.265309937E+02  0.000000000E+00  0.00000E+00  9.000E+00
      21    -1     0     0   501   511  0.000000000E+00  0.000000000E+00 -3.925677117E+02  3.925677117E+02  0.000000000E+00  0.00000E+00  9.000E+00
      25     1     1     2     0     0  1.362953281E+01 -1.700726504E+02 -1.999070534E+02  2.910297246E+02  1.250000000E+02  0.00000E+00  9.000E+00
      25     1     1     2     0     0  1.879379729E+01  1.594317071E+02  1.194516049E+02  2.359350800E+02  1.250000000E+02  0.00000E+00  9.000E+00
      21     1     1     2   502   511 -3.242333010E+01  1.064094328E+01 -8.558126942E+01  9.213390084E+01  0.000000000E+00  0.00000E+00  9.000E+00
#rwgt            1           1   4.4955717010828317E-002          10      241654           0
</event>
<event>
      5   9999 -3.79277E-02  4.78506E+01 -1.00000E+00  1.40173E-01
      21    -1     0     0   512   501  0.000000000E+00  0.000000000E+00  5.146086647E+02  5.146086647E+02  0.000000000E+00  0.00000E+00  9.000E+00
      21    -1     0     0   501   502  0.000000000E+00  0.000000000E+00 -9.964284318E+01  9.964284318E+01  0.000000000E+00  0.00000E+00  9.000E+00
      25     1     1     2     0     0 -1.669222180E+02  7.279249402E+01  1.955719901E+02  2.950172492E+02  1.250000000E+02  0.00000E+00  9.000E+00
      25     1     1     2     0     0  1.266336423E+02 -4.697563944E+01  1.726058668E+02  2.523104740E+02  1.250000000E+02  0.00000E+00  9.000E+00
      21     1     1     2   512   502  4.028857573E+01 -2.581685458E+01  4.678796465E+01  6.692378464E+01  6.743495762E-07  0.00000E+00  9.000E+00
#rwgt            1           1  -1.9302151319493508E-002          10      241764           0
</event>
<event>
      5   9999  3.79277E-02  1.11594E+02 -1.00000E+00  1.21723E-01
      21    -1     0     0   502   511  0.000000000E+00  0.000000000E+00  1.149863075E+03  1.149863075E+03  0.000000000E+00  0.00000E+00  9.000E+00
      21    -1     0     0   501   502  0.000000000E+00  0.000000000E+00 -9.938980776E+01  9.938980776E+01  0.000000000E+00  0.00000E+00  9.000E+00
      25     1     1     2     0     0 -1.320795034E+02  3.921294031E+01  2.196355409E+02  2.878322788E+02  1.250000000E+02  0.00000E+00  9.000E+00
      25     1     1     2     0     0  2.210929713E+02 -1.065161667E+02  2.565519223E+02  3.763929922E+02  1.250000000E+02  0.00000E+00  9.000E+00
      21     1     1     2   501   511 -8.901346791E+01  6.730322642E+01  5.742858043E+02  5.850276120E+02  0.000000000E+00  0.00000E+00  9.000E+00
#rwgt            1           1   3.0955699352549181E-002          10      241999           0
</event>
<event>
      5   9999  3.79277E-02  1.35950E+01 -1.00000E+00  1.81504E-01
      21    -1     0     0   502   501  0.000000000E+00  0.000000000E+00  1.152727888E+02  1.152727888E+02  0.000000000E+00  0.00000E+00  9.000E+00
      21    -1     0     0   501   512  0.000000000E+00  0.000000000E+00 -6.358391110E+02  6.358391110E+02  0.000000000E+00  0.00000E+00  9.000E+00
      25     1     1     2     0     0  1.156370055E+02 -9.865328376E+01 -9.814746908E+01  2.199143313E+02  1.250000000E+02  0.00000E+00  9.000E+00
      25     1     1     2     0     0 -1.292296345E+02  9.890852683E+01 -1.399073364E+02  2.483591308E+02  1.250000000E+02  0.00000E+00  9.000E+00
      21     1     1     2   502   512  1.359262901E+01 -2.552430687E-01 -2.825115167E+02  2.828384376E+02  5.394796609E-06  0.00000E+00  9.000E+00
#rwgt            1           1   4.3324145360521420E-002          10      242077           0
</event>
<event>
      5   9999  3.79277E-02  9.87366E+00 -1.00000E+00  1.96398E-01
      21    -1     0     0   502   501  0.000000000E+00  0.000000000E+00  3.391234130E+01  3.391234130E+01  0.000000000E+00  0.00000E+00  9.000E+00
       1    -1     0     0   501     0  0.000000000E+00  0.000000000E+00 -2.492867893E+03  2.492867893E+03  0.000000000E+00  0.00000E+00  9.000E+00
      25     1     1     2     0     0 -6.791783759E+00  2.052676137E+02 -5.729624560E+02  6.213629354E+02  1.250000000E+02  0.00000E+00  9.000E+00
      25     1     1     2     0     0  4.628743871E+00 -1.956337939E+02 -1.385260255E+03  1.404587121E+03  1.250000000E+02  0.00000E+00  9.000E+00
       1     1     1     2   502     0  2.163039888E+00 -9.633819786E+00 -5.007328408E+02  5.008301779E+02  7.629394531E-06  0.00000E+00  9.000E+00
#rwgt            1           1   9.0329476455721661E-002          10      242324           0
</event>
<event>
      5   9999  3.79277E-02  6.68830E+00 -1.00000E+00  2.18388E-01
      21    -1     0     0   511   501  0.000000000E+00  0.000000000E+00  1.968692632E+02  1.968692632E+02  0.000000000E+00  0.00000E+00  9.000E+00
      21    -1     0     0   501   502  0.000000000E+00  0.000000000E+00 -2.410423892E+02  2.410423892E+02  0.000000000E+00  0.00000E+00  9.000E+00
      25     1     1     2     0     0  3.374759834E+01  1.310566626E+02 -1.215361664E+02  2.207052082E+02  1.250000000E+02  0.00000E+00  9.000E+00
      25     1     1     2     0     0 -3.590923579E+01 -1.373860163E+02  5.979090426E+01  1.984044932E+02  1.250000000E+02  0.00000E+00  9.000E+00
      21     1     1     2   511   502  2.161637455E+00  6.329353703E+00  1.757213605E+01  1.880195096E+01  2.384185791E-07  0.00000E+00  9.000E+00
#rwgt            1           1   4.0127084984564708E-002          10      242564           0
</event>
<event>
      5   9999  3.79277E-02  1.05287E+02 -1.00000E+00  1.22830E-01
       2    -1     0     0   502     0  0.000000000E+00  0.000000000E+00  1.177320101E+03  1.177320101E+03  0.000000000E+00  0.00000E+00  9.000E+00
      21    -1     0     0   501   502  0.000000000E+00  0.000000000E+00 -6.743663976E+01  6.743663976E+01  0.000000000E+00  0.00000E+00  9.000E+00
      25     1     1     2     0     0 -9.413408019E+01  1.618571110E+02  4.363365570E+02  4.909924036E+02  1.250000000E+02  0.00000E+00  9.000E+00
      25     1     1     2     0     0  9.356792218E+01 -5.657188361E+01  1.638126897E+02  2.332700825E+02  1.250000000E+02  0.00000E+00  9.000E+00
       2     1     1     2   501     0  5.661580133E-01 -1.052852274E+02  5.097342141E+02  5.204942542E+02  5.394796609E-06  0.00000E+00  9.000E+00
#rwgt            1           1   4.4255977263787251E-002          10      242935           0
</event>
<event>
      5   9999  3.79277E-02  7.74578E+01 -1.00000E+00  1.29032E-01
      21    -1     0     0   511   501  0.000000000E+00  0.000000000E+00  1.821049505E+03  1.821049505E+03  0.000000000E+00  0.00000E+00  9.000E+00
      21    -1     0     0   501   502  0.000000000E+00  0.000000000E+00 -4.511607710E+01  4.511607710E+01  0.000000000E+00  0.00000E+00  9.000E+00
      25     1     1     2     0     0  1.746424308E+01 -8.069108605E+01  6.047827598E+02  6.230595780E+02  1.250000000E+02  0.00000E+00  9.000E+00
      25     1     1     2     0     0  4.884259776E+01  1.207299375E+02  2.021655205E+02  2.710299150E+02  1.250000000E+02  0.00000E+00  9.000E+00
      21     1     1     2   511   502 -6.630684084E+01 -4.003885141E+01  9.689851472E+02  9.720760887E+02  1.078959322E-05  0.00000E+00  9.000E+00
#rwgt            1           1   4.2624049024057906E-002          10      243072           0
</event>
<event>
      5   9999  3.79277E-02  9.63751E+01 -1.00000E+00  1.24553E-01
      -2    -1     0     0     0   501  0.000000000E+00  0.000000000E+00  1.581052851E+02  1.581052851E+02  0.000000000E+00  0.00000E+00  9.000E+00
      21    -1     0     0   501   502  0.000000000E+00  0.000000000E+00 -1.033435107E+03  1.033435107E+03  0.000000000E+00  0.00000E+00  9.000E+00
      25     1     1     2     0     0  4.093867895E+01  2.034873530E+02 -6.106820577E+02  6.569936483E+02  1.250000000E+02  0.00000E+00  9.000E+00
      25     1     1     2     0     0 -9.540303096E+01 -1.239776491E+02 -3.516783899E+02  4.046910991E+02  1.250000000E+02  0.00000E+00  9.000E+00
      -2     1     1     2     0   502  5.446435201E+01 -7.950970398E+01  8.703062567E+01  1.298556447E+02  1.907348633E-06  0.00000E+00  9.000E+00
#rwgt            1           1   3.6077237650650518E-002          10      243184           0
</event>
<event>
      5   9999  3.79277E-02  6.71188E+01 -1.00000E+00  1.32152E-01
      21    -1     0     0   502   501  0.000000000E+00  0.000000000E+00  1.747793011E+01  1.747793011E+01  0.000000000E+00  0.00000E+00  9.000E+00
      21    -1     0     0   511   502  0.000000000E+00  0.000000000E+00 -3.343267538E+03  3.343267538E+03  0.000000000E+00  0.00000E+00  9.000E+00
      25     1     1     2     0     0 -9.373179296E+01 -5.941937773E+01 -1.968517256E+03  1.975601554E+03  1.250000000E+02  0.00000E+00  9.000E+00
      25     1     1     2     0     0  1.371945668E+02  8.273368461E+00 -6.923744919E+02  7.168669576E+02  1.250000000E+02  0.00000E+00  9.000E+00
      21     1     1     2   511   501 -4.346277383E+01  5.114600927E+01 -6.648978595E+02  6.682769565E+02  1.078959322E-05  0.00000E+00  9.000E+00
#rwgt            1           1   6.1126680552231381E-002          10      243365           0
</event>
<event>
      5   9999  3.79277E-02  6.82639E+01 -1.00000E+00  1.31775E-01
      21    -1     0     0   512   501  0.000000000E+00  0.000000000E+00  1.042644577E+03  1.042644577E+03  0.000000000E+00  0.00000E+00  9.000E+00
      21    -1     0     0   501   502  0.000000000E+00  0.000000000E+00 -7.203801492E+01  7.203801492E+01  0.000000000E+00  0.00000E+00  9.000E+00
      25     1     1     2     0     0  1.377363901E+02 -1.433233318E+02  5.441056083E+02  5.926118490E+02  1.250000000E+02  0.00000E+00  9.000E+00
      25     1     1     2     0     0 -7.057070374E+01  1.555187193E+02  2.230721596E+02  3.074938775E+02  1.250000000E+02  0.00000E+00  9.000E+00
      21     1     1     2   512   502 -6.716568634E+01 -1.219538746E+01  2.034287944E+02  2.145768657E+02  3.814697266E-06  0.00000E+00  9.000E+00
#rwgt            1           1   5.1974112819405179E-002          10      243444           0
</event>
<event>
      5   9999  3.79277E-02  3.43000E+01 -1.00000E+00  1.49106E-01
      21    -1     0     0   511   501  0.000000000E+00  0.000000000E+00  3.170196490E+02  3.170196490E+02  0.000000000E+00  0.00000E+00  9.000E+00
      21    -1     0     0   501   502  0.000000000E+00  0.000000000E+00 -2.151882407E+02  2.151882407E+02  0.000000000E+00  0.00000E+00  9.000E+00
      25     1     1     2     0     0 -1.123038441E+01 -6.395326128E+01 -1.532172544E+02  2.081265678E+02  1.250000000E+02  0.00000E+00  9.000E+00
      25     1     1     2     0     0  1.860294022E+01  9.745157607E+01  2.358656107E+02  2.847814344E+02  1.250000000E+02  0.00000E+00  9.000E+00
      21     1     1     2   511   502 -7.372555808E+00 -3.349831479E+01  1.918305202E+01  3.929988750E+01  3.371747881E-07  0.00000E+00  9.000E+00
#rwgt            1           1   3.5481578508598809E-002          10      243549           0
</event>
<event>
      5   9999  3.79277E-02  4.19605E+01 -1.00000E+00  1.43563E-01
      21    -1     0     0   502   512  0.000000000E+00  0.000000000E+00  1.140196098E+02  1.140196098E+02  0.000000000E+00  0.00000E+00  9.000E+00
      21    -1     0     0   501   502  0.000000000E+00  0.000000000E+00 -4.406989534E+02  4.406989534E+02  0.000000000E+00  0.00000E+00  9.000E+00
      25     1     1     2     0     0 -1.288603018E+02 -2.997037127E+01 -1.415246891E+02  2.305589689E+02  1.250000000E+02  0.00000E+00  9.000E+00
      25     1     1     2     0     0  1.633327209E+02  6.046898290E+00 -1.922527300E+02  2.816030094E+02  1.250000000E+02  0.00000E+00  9.000E+00
      21     1     1     2   501   512 -3.447241915E+01  2.392347298E+01  7.098075474E+00  4.255658488E+01  9.536743164E-07  0.00000E+00  9.000E+00
#rwgt            1           1   3.8829735216699211E-002          10      243696           0
</event>
<event>
      5   9999  3.79277E-02  9.41085E+01 -1.00000E+00  1.25026E-01
      21    -1     0     0   502   501  0.000000000E+00  0.000000000E+00  2.382866471E+02  2.382866471E+02  0.000000000E+00  0.00000E+00  9.000E+00
      21    -1     0     0   511   502  0.000000000E+00  0.000000000E+00 -2.708721536E+02  2.708721536E+02  0.000000000E+00  0.00000E+00  9.000E+00
      25     1     1     2     0     0  1.591973749E+02  6.215480495E+01 -5.792830487E+01  2.195169981E+02  1.250000000E+02  0.00000E+00  9.000E+00
      25     1     1     2     0     0 -8.175744419E+01 -1.156287686E+02  4.341264139E+01  1.938142132E+02  1.250000000E+02  0.00000E+00  9.000E+00
      21     1     1     2   511   501 -7.743993070E+01  5.347396369E+01 -1.806984305E+01  9.582758938E+01  1.192092896E-06  0.00000E+00  9.000E+00
#rwgt            1           1   3.2788897699502689E-002          10      243811           0
</event>
<event>
      5   9999  3.79277E-02  4.18250E+01 -1.00000E+00  1.43649E-01
      21    -1     0     0   502   501  0.000000000E+00  0.000000000E+00  1.797192325E+02  1.797192325E+02  0.000000000E+00  0.00000E+00  9.000E+00
      21    -1     0     0   501   512  0.000000000E+00  0.000000000E+00 -2.775971362E+02  2.775971362E+02  0.000000000E+00  0.00000E+00  9.000E+00
      25     1     1     2     0     0 -2.395383784E+01 -1.266624491E+02 -1.093816435E+02  2.102534335E+02  1.250000000E+02  0.00000E+00  9.000E+00
      25     1     1     2     0     0  5.480410561E+01  9.842074894E+01  6.392199987E+01  1.800032107E+02  1.250000000E+02  0.00000E+00  9.000E+00
      21     1     1     2   502   512 -3.085026777E+01  2.824170015E+01 -5.241826007E+01  6.705972441E+01  0.000000000E+00  0.00000E+00  9.000E+00
#rwgt            1           1   4.7069611437671618E-002          10      243875           0
</event>
<event>
      5   9999  3.79277E-02  1.76076E+01 -1.00000E+00  1.71067E-01
      21    -1     0     0   502   501  0.000000000E+00  0.000000000E+00  6.233287778E+02  6.233287778E+02  0.000000000E+00  0.00000E+00  9.000E+00
      21    -1     0     0   501   511  0.000000000E+00  0.000000000E+00 -1.006721220E+02  1.006721220E+02  0.000000000E+00  0.00000E+00  9.000E+00
      25     1     1     2     0     0 -5.298763440E+01  1.386906599E+02  9.686381723E+01  2.169110132E+02  1.250000000E+02  0.00000E+00  9.000E+00
      25     1     1     2     0     0  7.024302908E+01 -1.421949331E+02  4.402200218E+02  4.843264908E+02  1.250000000E+02  0.00000E+00  9.000E+00
      21     1     1     2   502   511 -1.725539468E+01  3.504273183E+00 -1.442718320E+01  2.276339586E+01  0.000000000E+00  0.00000E+00  9.000E+00
#rwgt            1           1   4.1814304056880768E-002          10      244195           0
</event>
<event>
      5   9999  3.79277E-02  2.30139E+01 -1.00000E+00  1.61491E-01
      21    -1     0     0   502   512  0.000000000E+00  0.000000000E+00  2.776539878E+02  2.776539878E+02  0.000000000E+00  0.00000E+00  9.000E+00
      21    -1     0     0   501   502  0.000000000E+00  0.000000000E+00 -1.695423616E+02  1.695423616E+02  0.000000000E+00  0.00000E+00  9.000E+00
      25     1     1     2     0     0  1.867282447E+01  1.076664445E+02 -7.692650138E+01  1.829847651E+02  1.250000000E+02  0.00000E+00  9.000E+00
      25     1     1     2     0     0  4.026565744E+00 -1.038744321E+02  1.440911476E+02  2.172403500E+02  1.250000000E+02  0.00000E+00  9.000E+00
      21     1     1     2   501   512 -2.269939022E+01 -3.792012392E+00  4.094698006E+01  4.697123429E+01  4.768371582E-07  0.00000E+00  9.000E+00
#rwgt            1           1   3.6678316936682158E-002          10      244397           0
</event>
<event>
      5   9999  3.79277E-02  4.62673E+01 -1.00000E+00  1.41026E-01
      21    -1     0     0   511   501  0.000000000E+00  0.000000000E+00  9.426356820E+02  9.426356820E+02  0.000000000E+00  0.00000E+00  9.000E+00
      21    -1     0     0   501   502  0.000000000E+00  0.000000000E+00 -8.988526501E+01  8.988526501E+01  0.000000000E+00  0.00000E+00  9.000E+00
      25     1     1     2     0     0 -1.642433430E+02  8.689741802E+01  1.371893748E+02  2.626270388E+02  1.250000000E+02  0.00000E+00  9.000E+00
      25     1     1     2     0     0  1.629102804E+02 -4.064935458E+01  4.049178229E+02  4.558240590E+02  1.250000000E+02  0.00000E+00  9.000E+00
      21     1     1     2   511   502  1.333062568E+00 -4.624806344E+01  3.106432193E+02  3.140698491E+02  5.394796609E-06  0.00000E+00  9.000E+00
#rwgt            1           1   5.4740520262735223E-002          10      244558           0
</event>
<event>
      5   9999  3.79277E-02  7.62082E+01 -1.00000E+00  1.29379E-01
      21    -1     0     0   502   501  0.000000000E+00  0.000000000E+00  9.092999226E+01  9.092999226E+01  0.000000000E+00  0.00000E+00  9.000E+00
      21    -1     0     0   501   512  0.000000000E+00  0.000000000E+00 -1.299238774E+03  1.299238774E+03  0.000000000E+00  0.00000E+00  9.000E+00
      25     1     1     2     0     0 -1.395500276E+02  1.716543947E+02 -3.941599601E+02  4.689632348E+02  1.250000000E+02  0.00000E+00  9.000E+00
      25     1     1     2     0     0  6.818940013E+01 -1.449084604E+02 -1.495873894E+02  2.522888093E+02  1.250000000E+02  0.00000E+00  9.000E+00
      21     1     1     2   502   512  7.136062744E+01 -2.674593423E+01 -6.645614326E+02  6.689167227E+02  1.078959322E-05  0.00000E+00  9.000E+00
#rwgt            1           1   3.8143571225830543E-002          10      244667           0
</event>
<event>
      5   9999  3.79277E-02  8.16628E+01 -1.00000E+00  1.27919E-01
      21    -1     0     0   511   501  0.000000000E+00  0.000000000E+00  7.785652970E+01  7.785652970E+01  0.000000000E+00  0.00000E+00  9.000E+00
      21    -1     0     0   501   502  0.000000000E+00  0.000000000E+00 -1.463677313E+03  1.463677313E+03  0.000000000E+00  0.00000E+00  9.000E+00
      25     1     1     2     0     0 -1.569309422E+02 -1.036227503E+02 -1.211815389E+03  1.232674544E+03  1.250000000E+02  0.00000E+00  9.000E+00
      25     1     1     2     0     0  1.149195696E+02  3.359514926E+01 -1.264491967E+02  2.143584402E+02  1.250000000E+02  0.00000E+00  9.000E+00
      21     1     1     2   511   502  4.201137257E+01  7.002760099E+01 -4.755619805E+01  9.450085872E+01  2.523185073E-06  0.00000E+00  9.000E+00
#rwgt            1           1   4.3877240252806510E-002          10      244759           0
</event>
<event>
      5   9999  3.79277E-02  4.53981E+01 -1.00000E+00  1.41511E-01
      21    -1     0     0   502   501  0.000000000E+00  0.000000000E+00  7.905131081E+02  7.905131081E+02  0.000000000E+00  0.00000E+00  9.000E+00
      21    -1     0     0   501   512  0.000000000E+00  0.000000000E+00 -1.853380139E+02  1.853380139E+02  0.000000000E+00  0.00000E+00  9.000E+00
      25     1     1     2     0     0 -2.812798299E+02 -1.054173711E+02  3.208332310E+02  4.569355829E+02  1.250000000E+02  0.00000E+00  9.000E+00
      25     1     1     2     0     0  3.266212297E+02  1.031481707E+02  2.986511260E+02  4.713156775E+02  1.250000000E+02  0.00000E+00  9.000E+00
      21     1     1     2   502   512 -4.534139982E+01  2.269200395E+00 -1.430926279E+01  4.759986144E+01  4.460403188E-07  0.00000E+00  9.000E+00
#rwgt            1           1   2.5660254134963159E-002          10      244968           0
</event>
<event>
      5   9999  3.79277E-02  4.50352E+01 -1.00000E+00  1.41717E-01
      21    -1     0     0   511   501  0.000000000E+00  0.000000000E+00  1.487270162E+02  1.487270162E+02  0.000000000E+00  0.00000E+00  9.000E+00
      21    -1     0     0   501   502  0.000000000E+00  0.000000000E+00 -3.422699779E+02  3.422699779E+02  0.000000000E+00  0.00000E+00  9.000E+00
      25     1     1     2     0     0  2.520371867E+01  1.098712977E+01 -2.681152423E+02  2.970971686E+02  1.250000000E+02  0.00000E+00  9.000E+00
      25     1     1     2     0     0  1.433340745E+01 -3.255057416E+01  7.250201136E+01  1.488170961E+02  1.250000000E+02  0.00000E+00  9.000E+00
      21     1     1     2   511   502 -3.953712613E+01  2.156344439E+01  2.070269247E+00  4.508272941E+01  2.682209015E-07  0.00000E+00  9.000E+00
#rwgt            1           1   5.6362458518771058E-002          10      245173           0
</event>
<event>
      5   9999  3.79277E-02  1.40732E+01 -1.00000E+00  1.80033E-01
      21    -1     0     0   512   501  0.000000000E+00  0.000000000E+00  1.031750638E+03  1.031750638E+03  0.000000000E+00  0.00000E+00  9.000E+00
      21    -1     0     0   501   502  0.000000000E+00  0.000000000E+00 -3.520164880E+01  3.520164880E+01  0.000000000E+00  0.00000E+00  9.000E+00
      25     1     1     2     0     0 -3.225149121E+00  1.244022964E+02  3.571605474E+02  3.983402937E+02  1.250000000E+02  0.00000E+00  9.000E+00
      25     1     1     2     0     0  1.725416191E+01 -1.232873806E+02  5.363835600E+02  5.646501641E+02  1.250000000E+02  0.00000E+00  9.000E+00
      21     1     1     2   512   502 -1.402901279E+01 -1.114915712E+00  1.030048817E+02  1.039618290E+02  0.000000000E+00  0.00000E+00  9.000E+00
#rwgt            1           1   1.9082381080419337E-002          10      245287           0
</event>
<event>
      5   9999  3.79277E-02  9.74932E+00 -1.00000E+00  1.97040E-01
      21    -1     0     0   502   501  0.000000000E+00  0.000000000E+00  2.913574431E+01  2.913574431E+01  0.000000000E+00  0.00000E+00  9.000E+00
      21    -1     0     0   511   502  0.000000000E+00  0.000000000E+00 -2.096687134E+03  2.096687134E+03  0.000000000E+00  0.00000E+00  9.000E+00
      25     1     1     2     0     0 -8.727142985E+01  9.407003249E+01 -3.166792959E+02  3.638354710E+02  1.250000000E+02  0.00000E+00  9.000E+00
      25     1     1     2     0     0  9.457235568E+01 -1.005311282E+02 -1.599780590E+03  1.610581689E+03  1.250000000E+02  0.00000E+00  9.000E+00
      21     1     1     2   511   501 -7.300925826E+00  6.461095681E+00 -1.510915030E+02  1.514057183E+02  0.000000000E+00  0.00000E+00  9.000E+00
#rwgt            1           1  0.12823675502784732               10      245550           0
</event>
<event>
      5   9999  3.79277E-02  1.32572E+02 -1.00000E+00  1.18560E-01
      21    -1     0     0   502   501  0.000000000E+00  0.000000000E+00  1.275304804E+02  1.275304804E+02  0.000000000E+00  0.00000E+00  9.000E+00
      21    -1     0     0   501   512  0.000000000E+00  0.000000000E+00 -8.974440229E+02  8.974440229E+02  0.000000000E+00  0.00000E+00  9.000E+00
      25     1     1     2     0     0 -1.863672764E+02  1.164464056E+02 -3.891802160E+02  4.640891807E+02  1.250000000E+02  0.00000E+00  9.000E+00
      25     1     1     2     0     0  2.025340012E+02  1.513663713E+01 -1.168479050E+02  2.655702776E+02  1.250000000E+02  0.00000E+00  9.000E+00
      21     1     1     2   502   512 -1.616672482E+01 -1.315830428E+02 -2.638854214E+02  2.953150450E+02  3.814697266E-06  0.00000E+00  9.000E+00
#rwgt            1           1   4.0466703309881030E-002          10      245790           0
</event>
<event>
      5   9999  3.79277E-02  4.01685E+01 -1.00000E+00  1.44727E-01
      21    -1     0     0   502   501  0.000000000E+00  0.000000000E+00  1.439399977E+02  1.439399977E+02  0.000000000E+00  0.00000E+00  9.000E+00
      21    -1     0     0   501   511  0.000000000E+00  0.000000000E+00 -3.057753890E+02  3.057753890E+02  0.000000000E+00  0.00000E+00  9.000E+00
      25     1     1     2     0     0 -1.179440011E+02  3.072774772E+01 -1.712930168E+02  2.445838905E+02  1.250000000E+02  0.00000E+00  9.000E+00
      25     1     1     2     0     0  8.650486532E+01 -5.725935871E+00  3.683886709E+01  1.565183063E+02  1.250000000E+02  0.00000E+00  9.000E+00
      21     1     1     2   502   511  3.143913573E+01 -2.500181185E+01 -2.738124157E+01  4.861318999E+01  4.768371582E-07  0.00000E+00  9.000E+00
#rwgt            1           1   3.0455616266912847E-002          10      245924           0
</event>
<event>
      5   9999  3.79277E-02  1.25152E+01 -1.00000E+00  1.85129E-01
      21    -1     0     0   502   501  0.000000000E+00  0.000000000E+00  2.345206814E+03  2.345206814E+03  0.000000000E+00  0.00000E+00  9.000E+00
      21    -1     0     0   512   502  0.000000000E+00  0.000000000E+00 -1.885086000E+01  1.885086000E+01  0.000000000E+00  0.00000E+00  9.000E+00
      25     1     1     2     0     0 -4.631096133E+01 -1.555969048E+02  1.043165193E+03  1.063096290E+03  1.250000000E+02  0.00000E+00  9.000E+00
      25     1     1     2     0     0  4.901180350E+01  1.433766316E+02  1.252624191E+03  1.267931930E+03  1.250000000E+02  0.00000E+00  9.000E+00
      21     1     1     2   512   501 -2.700842169E+00  1.222027316E+01  3.056656957E+01  3.302945352E+01  6.743495762E-07  0.00000E+00  9.000E+00
#rwgt            1           1   8.6025399475166450E-002          10      246050           0
</event>
<event>
      5   9999  3.79277E-02  8.93364E+01 -1.00000E+00  1.26071E-01
      21    -1     0     0   502   501  0.000000000E+00  0.000000000E+00  9.014573301E+02  9.014573301E+02  0.000000000E+00  0.00000E+00  9.000E+00
      21    -1     0     0   511   502  0.000000000E+00  0.000000000E+00 -1.462567044E+02  1.462567044E+02  0.000000000E+00  0.00000E+00  9.000E+00
      25     1     1     2     0     0  4.635612893E+00 -2.287178571E+02  5.737060732E+01  2.669264574E+02  1.250000000E+02  0.00000E+00  9.000E+00
      25     1     1     2     0     0  3.658108114E+01  1.494577241E+02  6.497803088E+02  6.793491271E+02  1.250000000E+02  0.00000E+00  9.000E+00
      21     1     1     2   511   501 -4.121669403E+01  7.926013302E+01  4.804970949E+01  1.014384500E+02  6.743495762E-07  0.00000E+00  9.000E+00
#rwgt            1           1   4.6103022676086423E-002          10      246235           0
</event>
<event>
      5   9999  3.79277E-02  5.49534E+00 -1.00000E+00  2.31566E-01
      21    -1     0     0   502   501  0.000000000E+00  0.000000000E+00  8.267166289E+01  8.267166289E+01  0.000000000E+00  0.00000E+00  9.000E+00
      21    -1     0     0   501   512  0.000000000E+00  0.000000000E+00 -3.442936450E+02  3.442936450E+02  0.000000000E+00  0.00000E+00  9.000E+00
      25     1     1     2     0     0  9.518089514E+01  2.800406314E+01 -1.697527332E+02  2.329906023E+02  1.250000000E+02  0.00000E+00  9.000E+00
      25     1     1     2     0     0 -9.405784878E+01 -3.338342223E+01 -7.583207225E+01  1.770221313E+02  1.250000000E+02  0.00000E+00  9.000E+00
      21     1     1     2   502   512 -1.123046366E+00  5.379359090E+00 -1.603717667E+01  1.695257423E+01  2.384185791E-07  0.00000E+00  9.000E+00
#rwgt            1           1   3.5316429343082295E-002          10      246334           0
</event>
<event>
      5   9999  3.79277E-02  3.75910E+01 -1.00000E+00  1.46533E-01
      21    -1     0     0   502   501  0.000000000E+00  0.000000000E+00  6.838510822E+02  6.838510822E+02  0.000000000E+00  0.00000E+00  9.000E+00
      21    -1     0     0   511   502  0.000000000E+00  0.000000000E+00 -2.796414426E+02  2.796414426E+02  0.000000000E+00  0.00000E+00  9.000E+00
      25     1     1     2     0     0 -1.964410241E+02  3.452873107E+00  3.947581735E+01  2.361870836E+02  1.250000000E+02  0.00000E+00  9.000E+00
      25     1     1     2     0     0  1.896525943E+02  3.352011926E+01  5.195335355E+02  5.680068657E+02  1.250000000E+02  0.00000E+00  9.000E+00
      21     1     1     2   511   501  6.788429793E+00 -3.697299237E+01 -1.547997133E+02  1.592985755E+02  3.303624740E-06  0.00000E+00  9.000E+00
#rwgt            1           1   3.7005233545206975E-002          10      246682           0
</event>
<event>
      5   9999  3.79277E-02  3.53751E+01 -1.00000E+00  1.48229E-01
      21    -1     0     0   512   501  0.000000000E+00  0.000000000E+00  7.515362389E+01  7.515362389E+01  0.000000000E+00  0.00000E+00  9.000E+00
      21    -1     0     0   501   502  0.000000000E+00  0.000000000E+00 -1.408559019E+03  1.408559019E+03  0.000000000E+00  0.00000E+00  9.000E+00
      25     1     1     2     0     0  2.840848564E+01 -1.180513600E+02 -1.267052999E+03  1.278980636E+03  1.250000000E+02  0.00000E+00  9.000E+00
      25     1     1     2     0     0 -2.220703384E+00  9.426911745E+01 -4.310777921E+01  1.624034441E+02  1.250000000E+02  0.00000E+00  9.000E+00
      21     1     1     2   512   502 -2.618778226E+01  2.378224256E+01 -2.324461717E+01  4.232856279E+01  6.743495762E-07  0.00000E+00  9.000E+00
#rwgt            1           1   3.4090720590115774E-002          10      246960           0
</event>
<event>
      5   9999 -3.79277E-02  6.63200E+01 -1.00000E+00  1.32420E-01
       2    -1     0     0   502     0  0.000000000E+00  0.000000000E+00  7.516180185E+02  7.516180185E+02  0.000000000E+00  0.00000E+00  9.000E+00
      21    -1     0     0   501   502  0.000000000E+00  0.000000000E+00 -1.684339867E+02  1.684339867E+02  0.000000000E+00  0.00000E+00  9.000E+00
      25     1     1     2     0     0  1.784785564E+02 -5.654403088E+01  1.384051542E+02  2.642589814E+02  1.250000000E+02  0.00000E+00  9.000E+00
      25     1     1     2     0     0 -1.129082294E+02  4.660076310E+01 -2.920287916E+01  1.771939828E+02  1.250000000E+02  0.00000E+00  9.000E+00
       2     1     1     2   501     0 -6.557032707E+01  9.943267774E+00  4.739817568E+02  4.785990411E+02  5.394796609E-06  0.00000E+00  9.000E+00
#rwgt            1           1  -6.5642057184917987E-002          10      247116           0
</event>
<event>
      5   9999  3.79277E-02  1.83631E+01 -1.00000E+00  1.69488E-01
      21    -1     0     0   502   501  0.000000000E+00  0.000000000E+00  3.901484552E+02  3.901484552E+02  0.000000000E+00  0.00000E+00  9.000E+00
      21    -1     0     0   501   511  0.000000000E+00  0.000000000E+00 -1.649030471E+02  1.649030471E+02  0.000000000E+00  0.00000E+00  9.000E+00
      25     1     1     2     0     0 -6.747318759E+01 -1.195320529E+02  1.936675838E+02  2.682772367E+02  1.250000000E+02  0.00000E+00  9.000E+00
      25     1     1     2     0     0  6.746665907E+01  1.011689197E+02  1.100309871E+02  2.062006754E+02  1.250000000E+02  0.00000E+00  9.000E+00
      21     1     1     2   502   511  6.528520464E-03  1.836313313E+01 -7.845316281E+01  8.057359031E+01  9.536743164E-07  0.00000E+00  9.000E+00
#rwgt            1           1   3.1276954629244014E-002          10      247384           0
</event>
<event>
      5   9999  3.79277E-02  2.37949E+01 -1.00000E+00  1.60375E-01
      21    -1     0     0   502   501  0.000000000E+00  0.000000000E+00  8.389446568E+01  8.389446568E+01  0.000000000E+00  0.00000E+00  9.000E+00
       2    -1     0     0   501     0  0.000000000E+00  0.000000000E+00 -1.242512905E+03  1.242512905E+03  0.000000000E+00  0.00000E+00  9.000E+00
      25     1     1     2     0     0 -8.147555641E+01  1.656202376E+02 -1.901191473E+02  2.929822854E+02  1.250000000E+02  0.00000E+00  9.000E+00
      25     1     1     2     0     0  8.227285702E+01 -1.418386750E+02 -2.972773148E+02  3.617814735E+02  1.250000000E+02  0.00000E+00  9.000E+00
       2     1     1     2   502     0 -7.973006058E-01 -2.378156259E+01 -6.712219773E+02  6.716436118E+02  1.321449896E-05  0.00000E+00  9.000E+00
#rwgt            1           1   7.4264336528301736E-002          10      247589           0
</event>
<event>
      5   9999  3.79277E-02  1.76506E+01 -1.00000E+00  1.70975E-01
      21    -1     0     0   502   501  0.000000000E+00  0.000000000E+00  1.195901096E+02  1.195901096E+02  0.000000000E+00  0.00000E+00  9.000E+00
      21    -1     0     0   511   502  0.000000000E+00  0.000000000E+00 -4.344094418E+02  4.344094418E+02  0.000000000E+00  0.00000E+00  9.000E+00
      25     1     1     2     0     0 -1.762088675E+02 -1.020197809E+01 -1.008302529E+02  2.386323223E+02  1.250000000E+02  0.00000E+00  9.000E+00
      25     1     1     2     0     0  1.601986994E+02  1.763295303E+01 -1.620133570E+02  2.604762411E+02  1.250000000E+02  0.00000E+00  9.000E+00
      21     1     1     2   511   501  1.601016807E+01 -7.430974939E+00 -5.197572215E+01  5.489098800E+01  1.168007728E-06  0.00000E+00  9.000E+00
#rwgt            1           1   4.0867114226394531E-002          10      247757           0
</event>
<event>
      5   9999  3.79277E-02  1.94934E+02 -1.00000E+00  1.12055E-01
      21    -1     0     0   502   501  0.000000000E+00  0.000000000E+00  4.439170060E+02  4.439170060E+02  0.000000000E+00  0.00000E+00  9.000E+00
      21    -1     0     0   512   502  0.000000000E+00  0.000000000E+00 -1.937324358E+03  1.937324358E+03  0.000000000E+00  0.00000E+00  9.000E+00
      25     1     1     2     0     0 -4.518680451E+01  3.058878529E+01  3.122135083E+02  3.407048515E+02  1.250000000E+02  0.00000E+00  9.000E+00
      25     1     1     2     0     0 -9.747695311E+00 -2.176220368E+02 -2.851308409E+01  2.527693898E+02  1.250000000E+02  0.00000E+00  9.000E+00
      21     1     1     2   512   501  5.493449982E+01  1.870332515E+02 -1.777107776E+03  1.787767123E+03  0.000000000E+00  0.00000E+00  9.000E+00
#rwgt            1           1   4.3133108795832355E-002          10      248009           0
</event>
<event>
      5   9999 -3.79277E-02  1.43456E+01 -1.00000E+00  1.79228E-01
      21    -1     0     0   502   501  0.000000000E+00  0.000000000E+00  5.346667927E+01  5.346667927E+01  0.000000000E+00  0.00000E+00  9.000E+00
      21    -1     0     0   501   511  0.000000000E+00  0.000000000E+00 -4.009089560E+02  4.009089560E+02  0.000000000E+00  0.00000E+00  9.000E+00
      25     1     1     2     0     0  7.266711487E+00  5.211432256E+01 -1.786325016E+02  2.242839235E+02  1.250000000E+02  0.00000E+00  9.000E+00
      25     1     1     2     0     0 -2.125482882E+01 -5.529695446E+01 -1.346495290E+02  1.930414893E+02  1.250000000E+02  0.00000E+00  9.000E+00
      21     1     1     2   502   511  1.398811733E+01  3.182631902E+00 -3.416024613E+01  3.705022251E+01  0.000000000E+00  0.00000E+00  9.000E+00
#rwgt            1           1  -7.9161138612884097E-002          10      248171           0
</event>
<event>
      5   9999  3.79277E-02  1.50968E+01 -1.00000E+00  1.77121E-01
      21    -1     0     0   512   501  0.000000000E+00  0.000000000E+00  1.108351243E+02  1.108351243E+02  0.000000000E+00  0.00000E+00  9.000E+00
      21    -1     0     0   501   502  0.000000000E+00  0.000000000E+00 -4.317304759E+02  4.317304759E+02  0.000000000E+00  0.00000E+00  9.000E+00
      25     1     1     2     0     0 -1.199545043E+02 -8.823235810E+01 -2.337537083E+02  3.040391887E+02  1.250000000E+02  0.00000E+00  9.000E+00
      25     1     1     2     0     0  1.264702941E+02  1.018507031E+02 -8.880643504E+01  2.233380485E+02  1.250000000E+02  0.00000E+00  9.000E+00
      21     1     1     2   512   502 -6.515789809E+00 -1.361834502E+01  1.664791838E+00  1.518836298E+01  1.618680431E-07  0.00000E+00  9.000E+00
#rwgt            1           1   3.2469561316174324E-002          10      248379           0
</event>
<event>
      5   9999  3.79277E-02  7.62236E+01 -1.00000E+00  1.29374E-01
      21    -1     0     0   511   501  0.000000000E+00  0.000000000E+00  7.720967358E+02  7.720967358E+02  0.000000000E+00  0.00000E+00  9.000E+00
      21    -1     0     0   501   502  0.000000000E+00  0.000000000E+00 -5.305450090E+02  5.305450090E+02  0.000000000E+00  0.00000E+00  9.000E+00
      25     1     1     2     0     0 -2.571559426E+01 -1.429336603E+02 -4.616119711E+02  4.998018957E+02  1.250000000E+02  0.00000E+00  9.000E+00
      25     1     1     2     0     0 -2.898001706E+01  8.984479428E+01  8.160486452E+01  1.766246935E+02  1.250000000E+02  0.00000E+00  9.000E+00
      21     1     1     2   511   502  5.469561131E+01  5.308886606E+01  6.215588335E+02  6.262151556E+02  1.321449896E-05  0.00000E+00  9.000E+00
#rwgt            1           1   4.6410463704613603E-002          10      248641           0
</event>
<event>
      5   9999  3.79277E-02  5.19535E+01 -1.00000E+00  1.38132E-01
      21    -1     0     0   502   501  0.000000000E+00  0.000000000E+00  1.119262209E+03  1.119262209E+03  0.000000000E+00  0.00000E+00  9.000E+00
      21    -1     0     0   512   502  0.000000000E+00  0.000000000E+00 -8.232138568E+01  8.232138568E+01  0.000000000E+00  0.00000E+00  9.000E+00
      25     1     1     2     0     0  4.377965964E+01 -1.053528249E+02  9.496670706E+02  9.646286443E+02  1.250000000E+02  0.00000E+00  9.000E+00
      25     1     1     2     0     0 -8.369689695E+01  7.209959244E+01  5.435675485E+01  1.754513568E+02  1.250000000E+02  0.00000E+00  9.000E+00
      21     1     1     2   512   501  3.991723731E+01  3.325323249E+01  3.291699818E+01  6.150359400E+01  4.768371582E-07  0.00000E+00  9.000E+00
#rwgt            1           1   2.4809428911632538E-002          10      248922           0
</event>
<event>
      5   9999  3.79277E-02  1.29870E+02  7.55638E-03  1.18929E-01
      -2    -1     0     0     0   501  0.000000000E+00  0.000000000E+00  2.355871575E+02  2.355871575E+02  0.000000000E+00  0.00000E+00  9.000E+00
       2    -1     0     0   502     0  0.000000000E+00  0.000000000E+00 -4.429030107E+02  4.429030107E+02  0.000000000E+00  0.00000E+00  9.000E+00
      25     1     1     2     0     0 -4.397372195E+01  1.720314765E+02 -5.818088551E+01  2.248077680E+02  1.250000000E+02  0.00000E+00  9.000E+00
      25     1     1     2     0     0 -8.484656542E+01 -1.885130445E+02  1.773497704E+01  2.422305452E+02  1.250000000E+02  0.00000E+00  9.000E+00
      21     1     1     2   502   501  1.288202874E+02  1.648156794E+01 -1.668699447E+02  2.114518550E+02  0.000000000E+00  0.00000E+00  9.000E+00
#rwgt            3           4   1.7248617626525280E-005          10      249067           0
</event>
<event>
      5   9999  3.79277E-02  2.66205E+01 -1.00000E+00  1.56735E-01
      21    -1     0     0   511   501  0.000000000E+00  0.000000000E+00  4.649111073E+02  4.649111073E+02  0.000000000E+00  0.00000E+00  9.000E+00
      21    -1     0     0   501   502  0.000000000E+00  0.000000000E+00 -9.094866621E+01  9.094866621E+01  0.000000000E+00  0.00000E+00  9.000E+00
      25     1     1     2     0     0  1.338431510E+02  9.338462665E+00  8.440466364E+01  2.018671425E+02  1.250000000E+02  0.00000E+00  9.000E+00
      25     1     1     2     0     0 -1.236812386E+02  1.526609738E+01  2.595221902E+02  3.138580407E+02  1.250000000E+02  0.00000E+00  9.000E+00
      21     1     1     2   511   502 -1.016191241E+01 -2.460456005E+01  3.003558724E+01  4.013459031E+01  6.743495762E-07  0.00000E+00  9.000E+00
#rwgt            1           1   3.6530868415453145E-002          10      249086           0
</event>
<event>
      5   9999  3.79277E-02  2.72400E+01 -1.00000E+00  1.56009E-01
      21    -1     0     0   502   501  0.000000000E+00  0.000000000E+00  2.239224287E+02  2.239224287E+02  0.000000000E+00  0.00000E+00  9.000E+00
      21    -1     0     0   512   502  0.000000000E+00  0.000000000E+00 -2.095272991E+02  2.095272991E+02  0.000000000E+00  0.00000E+00  9.000E+00
      25     1     1     2     0     0  7.218121948E+01 -2.993211941E+01 -1.222592264E+01  1.479206997E+02  1.250000000E+02  0.00000E+00  9.000E+00
      25     1     1     2     0     0 -9.603008775E+01  4.309454354E+01  1.105470043E+02  1.972930754E+02  1.250000000E+02  0.00000E+00  9.000E+00
      21     1     1     2   512   501  2.384886827E+01 -1.316242413E+01 -8.392595199E+01  8.823595267E+01  1.348699152E-06  0.00000E+00  9.000E+00
#rwgt            1           1   3.8784014024036452E-002          10      249191           0
</event>
<event>
      5   9999  3.79277E-02  2.47633E+02 -1.00000E+00  1.08372E-01
      21    -1     0     0   502   501  0.000000000E+00  0.000000000E+00  5.898213341E+02  5.898213341E+02  0.000000000E+00  0.00000E+00  9.000E+00
      21    -1     0     0   511   502  0.000000000E+00  0.000000000E+00 -8.631745433E+02  8.631745433E+02  0.000000000E+00  0.00000E+00  9.000E+00
      25     1     1     2     0     0 -1.782642393E+02  2.499388057E+02  3.350447071E+02  4.713040435E+02  1.250000000E+02  0.00000E+00  9.000E+00
      25     1     1     2     0     0  1.907738835E+01 -6.025031548E+01  1.371866715E+02  1.960592515E+02  1.250000000E+02  0.00000E+00  9.000E+00
      21     1     1     2   511   501  1.591868509E+02 -1.896884903E+02 -7.455845879E+02  7.856325824E+02  0.000000000E+00  0.00000E+00  9.000E+00
#rwgt            2          11   2.3220634561805266E-003          10      249313           0
</event>
<event>
      5   9999  3.79277E-02  2.90014E+01 -1.00000E+00  1.54068E-01
      21    -1     0     0   502   501  0.000000000E+00  0.000000000E+00  1.435532483E+02  1.435532483E+02  0.000000000E+00  0.00000E+00  9.000E+00
      21    -1     0     0   501   512  0.000000000E+00  0.000000000E+00 -3.437407909E+02  3.437407909E+02  0.000000000E+00  0.00000E+00  9.000E+00
      25     1     1     2     0     0  6.558384243E+01 -1.262883876E+02 -1.541903127E+02  2.442327778E+02  1.250000000E+02  0.00000E+00  9.000E+00
      25     1     1     2     0     0 -7.895693976E+01  1.005543299E+02  1.096780982E+01  1.791386738E+02  1.250000000E+02  0.00000E+00  9.000E+00
      21     1     1     2   502   512  1.337309733E+01  2.573405768E+01 -5.696503976E+01  6.392258765E+01  0.000000000E+00  0.00000E+00  9.000E+00
#rwgt            1           1   1.2210839979531908E-002          10      249363           0
</event>
<event>
      5   9999  3.79277E-02  4.04574E+01 -1.00000E+00  1.44535E-01
      21    -1     0     0   502   501  0.000000000E+00  0.000000000E+00  4.226637812E+02  4.226637812E+02  0.000000000E+00  0.00000E+00  9.000E+00
      21    -1     0     0   511   502  0.000000000E+00  0.000000000E+00 -1.410853812E+03  1.410853812E+03  0.000000000E+00  0.00000E+00  9.000E+00
      25     1     1     2     0     0  2.152523535E+02 -1.389524977E+02  1.704964655E+02  3.321677544E+02  1.250000000E+02  0.00000E+00  9.000E+00
      25     1     1     2     0     0 -2.342279381E+02  1.032211758E+02  5.236047803E+01  2.896272739E+02  1.250000000E+02  0.00000E+00  9.000E+00
      21     1     1     2   511   501  1.897558458E+01  3.573132191E+01 -1.211046974E+03  1.211722565E+03  2.157918644E-05  0.00000E+00  9.000E+00
#rwgt            1           1   4.0432855611887544E-002          10      249512           0
</event>
<event>
      5   9999  3.79277E-02  1.60797E+01 -1.00000E+00  1.74586E-01
      21    -1     0     0   502   501  0.000000000E+00  0.000000000E+00  3.376481895E+02  3.376481895E+02  0.000000000E+00  0.00000E+00  9.000E+00
      21    -1     0     0   512   502  0.000000000E+00  0.000000000E+00 -6.896548334E+02  6.896548334E+02  0.000000000E+00  0.00000E+00  9.000E+00
      25     1     1     2     0     0 -1.692680474E+02 -7.870400408E+01  4.290856708E+01  2.287184672E+02  1.250000000E+02  0.00000E+00  9.000E+00
      25     1     1     2     0     0  1.639513353E+02  9.387932420E+01  1.381103685E+02  2.653164935E+02  1.250000000E+02  0.00000E+00  9.000E+00
      21     1     1     2   512   501  5.316712061E+00 -1.517532012E+01 -5.330255794E+02  5.332680621E+02  7.629394531E-06  0.00000E+00  9.000E+00
#rwgt            1           1   3.0667318783100160E-002          10      249652           0
</event>
<event>
      5   9999  3.79277E-02  8.13012E+01 -1.00000E+00  1.28011E-01
      21    -1     0     0   502   501  0.000000000E+00  0.000000000E+00  4.323153621E+02  4.323153621E+02  0.000000000E+00  0.00000E+00  9.000E+00
      21    -1     0     0   501   511  0.000000000E+00  0.000000000E+00 -2.556516671E+02  2.556516671E+02  0.000000000E+00  0.00000E+00  9.000E+00
      25     1     1     2     0     0  1.232928914E+02 -8.050092280E+01  2.737610112E+02  3.350397393E+02  1.250000000E+02  0.00000E+00  9.000E+00
      25     1     1     2     0     0 -2.031883676E+02  9.555394984E+01 -6.190115443E+01  2.643346799E+02  1.250000000E+02  0.00000E+00  9.000E+00
      21     1     1     2   502   511  7.989547622E+01 -1.505302704E+01 -3.519616181E+01  8.859261002E+01  1.784161275E-06  0.00000E+00  9.000E+00
#rwgt            1           1   1.6132606459392507E-002          10      249829           0
</event>
<event>
      5   9999  3.79277E-02  1.71654E+01 -1.00000E+00  1.72039E-01
      -3    -1     0     0     0   501  0.000000000E+00  0.000000000E+00  8.389367682E+02  8.389367682E+02  0.000000000E+00  0.00000E+00  9.000E+00
      21    -1     0     0   501   502  0.000000000E+00  0.000000000E+00 -1.423836532E+02  1.423836532E+02  0.000000000E+00  0.00000E+00  9.000E+00
      25     1     1     2     0     0  1.271572738E+01 -7.899269297E+01  4.112776708E+01  1.540065859E+02  1.250000000E+02  0.00000E+00  9.000E+00
      25     1     1     2     0     0 -2.600965662E+01  8.985186638E+01 -1.484047342E+01  1.568282493E+02  1.250000000E+02  0.00000E+00  9.000E+00
      -3     1     1     2     0   502  1.329392924E+01 -1.085917341E+01  6.702658213E+02  6.704855863E+02  7.629394531E-06  0.00000E+00  9.000E+00
#rwgt            1           1   3.0478013653492755E-002          10      250001           0
</event>
<event>
      5   9999  3.79277E-02  4.61777E+01 -1.00000E+00  1.41075E-01
      21    -1     0     0   502   501  0.000000000E+00  0.000000000E+00  6.019555361E+02  6.019555361E+02  0.000000000E+00  0.00000E+00  9.000E+00
      21    -1     0     0   501   511  0.000000000E+00  0.000000000E+00 -1.050488106E+02  1.050488106E+02  0.000000000E+00  0.00000E+00  9.000E+00
      25     1     1     2     0     0  1.422593914E+01 -1.417557215E+02  3.101714998E+01  1.920524031E+02  1.250000000E+02  0.00000E+00  9.000E+00
      25     1     1     2     0     0 -2.345293728E+01  9.650924806E+01  4.222162367E+02  4.513929837E+02  1.250000000E+02  0.00000E+00  9.000E+00
      21     1     1     2   502   511  9.226998133E+00  4.524647348E+01  4.367333891E+01  6.355895994E+01  1.261592536E-06  0.00000E+00  9.000E+00
#rwgt            1           1   2.2184686967283977E-002          10      250158           0
</event>
<event>
      5   9999  3.79277E-02  7.72222E+01 -1.00000E+00  1.29097E-01
      21    -1     0     0   502   501  0.000000000E+00  0.000000000E+00  4.126030807E+02  4.126030807E+02  0.000000000E+00  0.00000E+00  9.000E+00
      21    -1     0     0   501   512  0.000000000E+00  0.000000000E+00 -4.104450595E+02  4.104450595E+02  0.000000000E+00  0.00000E+00  9.000E+00
      25     1     1     2     0     0 -1.591211782E+01 -1.547378440E+01  3.390915270E+02  3.620783025E+02  1.250000000E+02  0.00000E+00  9.000E+00
      25     1     1     2     0     0  1.519635940E+01  9.269267524E+01 -5.050248068E+01  1.643117827E+02  1.250000000E+02  0.00000E+00  9.000E+00
      21     1     1     2   502   512  7.157584213E-01 -7.721889084E+01 -2.864310251E+02  2.966580549E+02  0.000000000E+00  0.00000E+00  9.000E+00
#rwgt            2          11   1.8729535123113571E-003          10      250347           0
</event>
<event>
      5   9999  3.79277E-02  8.29093E+01 -1.00000E+00  1.27603E-01
      21    -1     0     0   502   501  0.000000000E+00  0.000000000E+00  7.329602630E+01  7.329602630E+01  0.000000000E+00  0.00000E+00  9.000E+00
      21    -1     0     0   511   502  0.000000000E+00  0.000000000E+00 -6.014462025E+02  6.014462025E+02  0.000000000E+00  0.00000E+00  9.000E+00
      25     1     1     2     0     0  5.042962909E+01  1.001206048E+02 -2.263112801E+02  2.817961648E+02  1.250000000E+02  0.00000E+00  9.000E+00
      25     1     1     2     0     0 -9.315473235E+01 -2.906773297E+01 -1.419172601E+02  2.128103522E+02  1.250000000E+02  0.00000E+00  9.000E+00
      21     1     1     2   511   501  4.272510326E+01 -7.105287179E+01 -1.599216360E+02  1.801357119E+02  1.907348633E-06  0.00000E+00  9.000E+00
#rwgt            1           1   5.1483751690153054E-002          10      250382           0
</event>
<event>
      5   9999  3.79277E-02  1.42599E+01 -1.00000E+00  1.79479E-01
      21    -1     0     0   512   501  0.000000000E+00  0.000000000E+00  1.837697512E+02  1.837697512E+02  0.000000000E+00  0.00000E+00  9.000E+00
      21    -1     0     0   501   502  0.000000000E+00  0.000000000E+00 -1.802690521E+03  1.802690521E+03  0.000000000E+00  0.00000E+00  9.000E+00
      25     1     1     2     0     0  4.251784027E+02  7.440181505E+01 -2.275458404E+02  5.037007184E+02  1.250000000E+02  0.00000E+00  9.000E+00
      25     1     1     2     0     0 -4.109186690E+02 -7.446702886E+01 -1.399862489E+03  1.466164888E+03  1.250000000E+02  0.00000E+00  9.000E+00
      21     1     1     2   512   502 -1.425973375E+01  6.521380917E-02  8.487559632E+00  1.659466565E+01  3.576278687E-07  0.00000E+00  9.000E+00
#rwgt            1           1  0.18569022515082539               10      250547           0
</event>
<event>
      5   9999  3.79277E-02  6.58175E+01 -1.00000E+00  1.32590E-01
      21    -1     0     0   502   501  0.000000000E+00  0.000000000E+00  2.010989651E+02  2.010989651E+02  0.000000000E+00  0.00000E+00  9.000E+00
      21    -1     0     0   511   502  0.000000000E+00  0.000000000E+00 -5.711393650E+02  5.711393650E+02  0.000000000E+00  0.00000E+00  9.000E+00
      25     1     1     2     0     0 -8.840171904E+01  2.118289241E+02 -1.243510145E+02  2.894383040E+02  1.250000000E+02  0.00000E+00  9.000E+00
      25     1     1     2     0     0  3.183470082E+01 -1.781820392E+02  8.591875878E+00  2.201388371E+02  1.250000000E+02  0.00000E+00  9.000E+00
      21     1     1     2   511   501  5.656701822E+01 -3.364688490E+01 -2.542812613E+02  2.626611891E+02  4.672030912E-06  0.00000E+00  9.000E+00
#rwgt            1           1   3.0491139526930545E-002          10      251086           0
</event>
<event>
      5   9999  3.79277E-02  6.35221E+01 -1.00000E+00  1.33393E-01
      -2    -1     0     0     0   501  0.000000000E+00  0.000000000E+00  1.341040929E+03  1.341040929E+03  0.000000000E+00  0.00000E+00  9.000E+00
      21    -1     0     0   501   502  0.000000000E+00  0.000000000E+00 -9.306341581E+01  9.306341581E+01  0.000000000E+00  0.00000E+00  9.000E+00
      25     1     1     2     0     0 -3.539187286E+01 -9.865047182E+01  1.280780876E+01  1.636262211E+02  1.250000000E+02  0.00000E+00  9.000E+00
      25     1     1     2     0     0  9.791896944E+01  8.745157742E+01  4.874625009E+02  5.200774873E+02  1.250000000E+02  0.00000E+00  9.000E+00
      -2     1     1     2     0   502 -6.252709658E+01  1.119889440E+01  7.477072036E+02  7.504006366E+02  1.078959322E-05  0.00000E+00  9.000E+00
#rwgt            1           1   3.2773685938142616E-002          10      251144           0
</event>
<event>
      5   9999  3.79277E-02  9.02872E+01 -1.00000E+00  1.25857E-01
      21    -1     0     0   502   501  0.000000000E+00  0.000000000E+00  1.771452206E+02  1.771452206E+02  0.000000000E+00  0.00000E+00  9.000E+00
       2    -1     0     0   501     0  0.000000000E+00  0.000000000E+00 -1.074741260E+03  1.074741260E+03  0.000000000E+00  0.00000E+00  9.000E+00
      25     1     1     2     0     0  6.181368357E+01  3.571016689E+01 -2.680376218E+02  3.042454834E+02  1.250000000E+02  0.00000E+00  9.000E+00
      25     1     1     2     0     0 -9.928255887E+01 -1.178555332E+02  9.323052476E+01  2.192347691E+02  1.250000000E+02  0.00000E+00  9.000E+00
       2     1     1     2   502     0  3.746887531E+01  8.214536636E+01 -7.227889428E+02  7.284062284E+02  0.000000000E+00  0.00000E+00  9.000E+00
#rwgt            1           1   5.1607489293811343E-002          10      251229           0
</event>
<event>
      5   9999  3.79277E-02  2.71639E+01 -1.00000E+00  1.56097E-01
      21    -1     0     0   502   501  0.000000000E+00  0.000000000E+00  2.325718526E+01  2.325718526E+01  0.000000000E+00  0.00000E+00  9.000E+00
      21    -1     0     0   501   511  0.000000000E+00  0.000000000E+00 -1.443695320E+03  1.443695320E+03  0.000000000E+00  0.00000E+00  9.000E+00
      25     1     1     2     0     0  5.245535270E+01  5.809774634E+01 -8.886671925E+02  9.008225637E+02  1.250000000E+02  0.00000E+00  9.000E+00
      25     1     1     2     0     0 -6.999140817E+01 -3.735248628E+01 -3.195861150E+02  3.522134159E+02  1.250000000E+02  0.00000E+00  9.000E+00
      21     1     1     2   502   511  1.753605547E+01 -2.074526006E+01 -2.121848276E+02  2.139165260E+02  0.000000000E+00  0.00000E+00  9.000E+00
#rwgt            1           1   3.0054193790933777E-002          10      251362           0
</event>
<event>
      5   9999  3.79277E-02  1.10707E+02 -1.00000E+00  1.21873E-01
      21    -1     0     0   502   501  0.000000000E+00  0.000000000E+00  8.500692132E+02  8.500692132E+02  0.000000000E+00  0.00000E+00  9.000E+00
      21    -1     0     0   512   502  0.000000000E+00  0.000000000E+00 -1.333829643E+02  1.333829643E+02  0.000000000E+00  0.00000E+00  9.000E+00
      25     1     1     2     0     0  1.261789395E+02  5.121759967E+01  6.219124638E+02  6.488023427E+02  1.250000000E+02  0.00000E+00  9.000E+00
      25     1     1     2     0     0 -3.861391943E+01 -1.189550392E+02 -1.661751725E+01  1.776020214E+02  1.250000000E+02  0.00000E+00  9.000E+00
      21     1     1     2   512   501 -8.756502006E+01  6.773743954E+01  1.113913024E+02  1.570478134E+02  0.000000000E+00  0.00000E+00  9.000E+00
#rwgt            1           1   4.3439086743054509E-002          10      251545           0
</event>
<event>
      5   9999  3.79277E-02  1.64741E+02 -1.00000E+00  1.14803E-01
      21    -1     0     0   511   501  0.000000000E+00  0.000000000E+00  7.394876926E+02  7.394876926E+02  0.000000000E+00  0.00000E+00  9.000E+00
      21    -1     0     0   501   502  0.000000000E+00  0.000000000E+00 -1.093971297E+02  1.093971297E+02  0.000000000E+00  0.00000E+00  9.000E+00
      25     1     1     2     0     0  7.101609431E+01 -1.470812699E+00  1.098416702E+02  1.809299352E+02  1.250000000E+02  0.00000E+00  9.000E+00
      25     1     1     2     0     0 -1.887054267E+02 -1.138057502E+02  2.943505579E+02  3.883667568E+02  1.250000000E+02  0.00000E+00  9.000E+00
      21     1     1     2   511   502  1.176893324E+02  1.152765629E+02  2.258983349E+02  2.795881303E+02  5.394796609E-06  0.00000E+00  9.000E+00
#rwgt            1           1   4.0412335901726840E-002          10      251649           0
</event>
<event>
      5   9999 -3.79277E-02  4.14113E+01 -1.00000E+00  1.43912E-01
      21    -1     0     0   502   512  0.000000000E+00  0.000000000E+00  2.837302081E+02  2.837302081E+02  0.000000000E+00  0.00000E+00  9.000E+00
      21    -1     0     0   501   502  0.000000000E+00  0.000000000E+00 -2.809157644E+03  2.809157644E+03  0.000000000E+00  0.00000E+00  9.000E+00
      25     1     1     2     0     0  7.645929469E+01 -9.396316922E+01 -7.337838001E+02  7.541477085E+02  1.250000000E+02  0.00000E+00  9.000E+00
      25     1     1     2     0     0 -5.711958704E+01  1.305810921E+02 -2.059245340E+03  2.067953200E+03  1.250000000E+02  0.00000E+00  9.000E+00
      21     1     1     2   501   512 -1.933970765E+01 -3.661792290E+01  2.676017042E+02  2.707869433E+02  5.394796609E-06  0.00000E+00  9.000E+00
#rwgt            1           1  -4.7024393599338086E-003          10      251713           0
</event>
<event>
      5   9999  3.79277E-02  3.59056E+01 -1.00000E+00  1.47810E-01
      21    -1     0     0   502   501  0.000000000E+00  0.000000000E+00  5.152227417E+02  5.152227417E+02  0.000000000E+00  0.00000E+00  9.000E+00
      21    -1     0     0   511   502  0.000000000E+00  0.000000000E+00 -1.029114638E+02  1.029114638E+02  0.000000000E+00  0.00000E+00  9.000E+00
      25     1     1     2     0     0  2.239970005E+01  1.824652390E+02  1.745553680E+02  2.826479905E+02  1.250000000E+02  0.00000E+00  9.000E+00
      25     1     1     2     0     0 -4.052703093E+01 -1.514715066E+02  2.071103415E+02  2.882806811E+02  1.250000000E+02  0.00000E+00  9.000E+00
      21     1     1     2   511   501  1.812733088E+01 -3.099373242E+01  3.064556832E+01  4.720553391E+01  3.371747881E-07  0.00000E+00  9.000E+00
#rwgt            1           1   3.6522855782371945E-002          10      251882           0
</event>
<event>
      5   9999  3.79277E-02  1.11181E+02 -1.00000E+00  1.21792E-01
      21    -1     0     0   502   512  0.000000000E+00  0.000000000E+00  1.026719792E+02  1.026719792E+02  0.000000000E+00  0.00000E+00  9.000E+00
      21    -1     0     0   501   502  0.000000000E+00  0.000000000E+00 -1.061165146E+03  1.061165146E+03  0.000000000E+00  0.00000E+00  9.000E+00
      25     1     1     2     0     0  1.494936404E+02 -1.676553544E+02 -5.232447512E+02  5.829809054E+02  1.250000000E+02  0.00000E+00  9.000E+00
      25     1     1     2     0     0 -1.155271491E+02  6.179013033E+01 -4.333476728E+02  4.696591827E+02  1.250000000E+02  0.00000E+00  9.000E+00
      21     1     1     2   501   512 -3.396649136E+01  1.058652241E+02 -1.900742647E+00  1.111970370E+02  1.886865972E-06  0.00000E+00  9.000E+00
#rwgt            1           1   3.3366553023600615E-002          10      251975           0
</event>
<event>
      5   9999  3.79277E-02  9.16429E+00 -1.00000E+00  2.00243E-01
      21    -1     0     0   502   501  0.000000000E+00  0.000000000E+00  1.026039828E+03  1.026039828E+03  0.000000000E+00  0.00000E+00  9.000E+00
      21    -1     0     0   511   502  0.000000000E+00  0.000000000E+00 -8.501819403E+01  8.501819403E+01  0.000000000E+00  0.00000E+00  9.000E+00
      25     1     1     2     0     0 -5.758996509E+01  2.295990344E+02  2.539680844E+02  3.689947270E+02  1.250000000E+02  0.00000E+00  9.000E+00
      25     1     1     2     0     0  6.673083185E+01 -2.289442329E+02  6.763548175E+02  7.279761705E+02  1.250000000E+02  0.00000E+00  9.000E+00
      21     1     1     2   511   501 -9.140866761E+00 -6.548014523E-01  1.069873238E+01  1.408712478E+01  2.064765462E-07  0.00000E+00  9.000E+00
#rwgt            1           1   3.2687994026458056E-002          10      252038           0
</event>
<event>
      5   9999  3.79277E-02  1.19857E+02 -1.00000E+00  1.20390E-01
      21    -1     0     0   502   501  0.000000000E+00  0.000000000E+00  6.642460446E+02  6.642460446E+02  0.000000000E+00  0.00000E+00  9.000E+00
      21    -1     0     0   501   512  0.000000000E+00  0.000000000E+00 -1.114695827E+02  1.114695827E+02  0.000000000E+00  0.00000E+00  9.000E+00
      25     1     1     2     0     0  1.721817793E+01 -1.728387753E+02  3.508875302E+02  4.109948500E+02  1.250000000E+02  0.00000E+00  9.000E+00
      25     1     1     2     0     0 -6.824832639E+01  6.438759135E+01  1.873502724E+02  2.439850826E+02  1.250000000E+02  0.00000E+00  9.000E+00
      21     1     1     2   502   512  5.103014846E+01  1.084511839E+02  1.453865925E+01  1.207356946E+02  3.371747881E-07  0.00000E+00  9.000E+00
#rwgt            1           1   5.3985561490328904E-002          10      252378           0
</event>
<event>
      5   9999  3.79277E-02  5.49545E+01 -1.00000E+00  1.36774E-01
      21    -1     0     0   502   501  0.000000000E+00  0.000000000E+00  2.985281740E+02  2.985281740E+02  0.000000000E+00  0.00000E+00  9.000E+00
      21    -1     0     0   511   502  0.000000000E+00  0.000000000E+00 -9.788797553E+01  9.788797553E+01  0.000000000E+00  0.00000E+00  9.000E+00
      25     1     1     2     0     0  1.397806439E+01  6.950216686E+01  6.698592880E+01  1.585498412E+02  1.250000000E+02  0.00000E+00  9.000E+00
      25     1     1     2     0     0  2.713111472E+01 -3.303253302E+01  1.256739626E+02  1.823353791E+02  1.250000000E+02  0.00000E+00  9.000E+00
      21     1     1     2   511   501 -4.110917912E+01 -3.646963385E+01  7.980307146E+00  5.553092924E+01  9.078709013E-07  0.00000E+00  9.000E+00
#rwgt            1           1   3.0534100205861007E-002          10      252416           0
</event>
<event>
      5   9999  3.79277E-02  4.51442E+01 -1.00000E+00  1.41655E-01
      21    -1     0     0   512   501  0.000000000E+00  0.000000000E+00  4.717466143E+02  4.717466143E+02  0.000000000E+00  0.00000E+00  9.000E+00
      21    -1     0     0   501   502  0.000000000E+00  0.000000000E+00 -1.038174387E+02  1.038174387E+02  0.000000000E+00  0.00000E+00  9.000E+00
      25     1     1     2     0     0 -3.350846888E+01  6.695524904E+01  3.489637240E+02  3.781620069E+02  1.250000000E+02  0.00000E+00  9.000E+00
      25     1     1     2     0     0  2.605318947E+01 -2.243091810E+01 -2.759878764E+01  1.325466252E+02  1.250000000E+02  0.00000E+00  9.000E+00
      21     1     1     2   512   502  7.455279409E+00 -4.452433093E+01  4.656423934E+01  6.485542091E+01  1.168007728E-06  0.00000E+00  9.000E+00
#rwgt            1           1   4.1422680931572052E-002          10      252564           0
</event>
<event>
      5   9999  3.79277E-02  5.63113E+01 -1.00000E+00  1.36193E-01
      21    -1     0     0   502   511  0.000000000E+00  0.000000000E+00  2.422999424E+02  2.422999424E+02  0.000000000E+00  0.00000E+00  9.000E+00
      21    -1     0     0   501   502  0.000000000E+00  0.000000000E+00 -7.684460501E+02  7.684460501E+02  0.000000000E+00  0.00000E+00  9.000E+00
      25     1     1     2     0     0  1.609121011E+02 -8.916528000E+01 -1.931774059E+02  2.945940624E+02  1.250000000E+02  0.00000E+00  9.000E+00
      25     1     1     2     0     0 -1.170657676E+02  5.383172443E+01 -5.045665326E+02  5.355507766E+02  1.250000000E+02  0.00000E+00  9.000E+00
      21     1     1     2   501   511 -4.384633352E+01  3.533355558E+01  1.715978308E+02  1.806011535E+02  3.814697266E-06  0.00000E+00  9.000E+00
#rwgt            1           1   4.3923729566522518E-002          10      252678           0
</event>
<event>
      5   9999  3.79277E-02  3.18796E+01 -1.00000E+00  1.51229E-01
      21    -1     0     0   502   512  0.000000000E+00  0.000000000E+00  5.461096538E+02  5.461096538E+02  0.000000000E+00  0.00000E+00  9.000E+00
      21    -1     0     0   501   502  0.000000000E+00  0.000000000E+00 -1.408977000E+02  1.408977000E+02  0.000000000E+00  0.00000E+00  9.000E+00
      25     1     1     2     0     0  1.478324776E+02  7.959320179E+01  3.300857264E+02  3.908594453E+02  1.250000000E+02  0.00000E+00  9.000E+00
      25     1     1     2     0     0 -1.774491993E+02 -9.138988292E+01  2.512340118E+01  2.368470273E+02  1.250000000E+02  0.00000E+00  9.000E+00
      21     1     1     2   501   512  2.961672168E+01  1.179668113E+01  5.000282617E+01  5.930088122E+01  0.000000000E+00  0.00000E+00  9.000E+00
#rwgt            1           1   3.2667168919552861E-002          10      252787           0
</event>
<event>
      5   9999  3.79277E-02  1.96697E+01 -1.00000E+00  1.66968E-01
      21    -1     0     0   502   501  0.000000000E+00  0.000000000E+00  5.263168950E+02  5.263168950E+02  0.000000000E+00  0.00000E+00  9.000E+00
      21    -1     0     0   511   502  0.000000000E+00  0.000000000E+00 -4.720474554E+02  4.720474554E+02  0.000000000E+00  0.00000E+00  9.000E+00
      25     1     1     2     0     0 -8.063460319E+01  1.824979650E+02 -3.071321760E+02  3.869917570E+02  1.250000000E+02  0.00000E+00  9.000E+00
      25     1     1     2     0     0  9.178922266E+01 -1.662970049E+02  4.587738185E+02  5.120335651E+02  1.250000000E+02  0.00000E+00  9.000E+00
      21     1     1     2   511   501 -1.115461947E+01 -1.620096009E+01 -9.737220292E+01  9.933902830E+01  0.000000000E+00  0.00000E+00  9.000E+00
#rwgt            1           1   3.5048624794124496E-002          10      252924           0
</event>
<event>
      5   9999  3.79277E-02  2.65475E+01 -1.00000E+00  1.56822E-01
      21    -1     0     0   502   501  0.000000000E+00  0.000000000E+00  2.880113469E+02  2.880113469E+02  0.000000000E+00  0.00000E+00  9.000E+00
      21    -1     0     0   501   512  0.000000000E+00  0.000000000E+00 -2.485961240E+02  2.485961240E+02  0.000000000E+00  0.00000E+00  9.000E+00
      25     1     1     2     0     0  1.454078536E+02  8.273578130E+01 -2.602802020E+00  2.088550406E+02  1.250000000E+02  0.00000E+00  9.000E+00
      25     1     1     2     0     0 -1.609478689E+02 -1.042597278E+02  1.105882787E+02  2.542224906E+02  1.250000000E+02  0.00000E+00  9.000E+00
      21     1     1     2   502   512  1.554001535E+01  2.152394654E+01 -6.857025371E+01  7.352993979E+01  9.536743164E-07  0.00000E+00  9.000E+00
#rwgt            1           1   2.5999833716522459E-002          10      253215           0
</event>
<event>
      5   9999  3.79277E-02  3.19074E+01 -1.00000E+00  1.51203E-01
      21    -1     0     0   502   501  0.000000000E+00  0.000000000E+00  5.518001408E+02  5.518001408E+02  0.000000000E+00  0.00000E+00  9.000E+00
      21    -1     0     0   501   511  0.000000000E+00  0.000000000E+00 -1.601956345E+03  1.601956345E+03  0.000000000E+00  0.00000E+00  9.000E+00
      25     1     1     2     0     0 -6.442738437E+01 -2.162894747E+02  2.519734759E+02  3.606212103E+02  1.250000000E+02  0.00000E+00  9.000E+00
      25     1     1     2     0     0  3.432943702E+01  2.056972485E+02  1.850919372E+02  3.055714213E+02  1.250000000E+02  0.00000E+00  9.000E+00
      21     1     1     2   502   511  3.009794735E+01  1.059222621E+01 -1.487221617E+03  1.487563854E+03  0.000000000E+00  0.00000E+00  9.000E+00
#rwgt            1           1   7.6854876936089431E-002          10      253377           0
</event>
<event>
      5   9999  3.79277E-02  8.95492E+00 -1.00000E+00  2.01467E-01
      21    -1     0     0   502   512  0.000000000E+00  0.000000000E+00  7.777739315E+01  7.777739315E+01  0.000000000E+00  0.00000E+00  9.000E+00
      21    -1     0     0   501   502  0.000000000E+00  0.000000000E+00 -1.026034341E+03  1.026034341E+03  0.000000000E+00  0.00000E+00  9.000E+00
      25     1     1     2     0     0 -5.022970890E+01  2.267542356E+02 -3.656348474E+02  4.508373860E+02  1.250000000E+02  0.00000E+00  9.000E+00
      25     1     1     2     0     0  4.986554180E+01 -2.357017465E+02 -5.839281752E+02  6.439246846E+02  1.250000000E+02  0.00000E+00  9.000E+00
      21     1     1     2   501   512  3.641671077E-01  8.947510952E+00  1.306075210E+00  9.049663108E+00  2.767767850E-07  0.00000E+00  9.000E+00
#rwgt            1           1   4.3257319732041867E-002          10      253497           0
</event>
<event>
      5   9999  3.79277E-02  1.03167E+02 -1.00000E+00  1.23222E-01
      21    -1     0     0   502   511  0.000000000E+00  0.000000000E+00  2.560404795E+03  2.560404795E+03  0.000000000E+00  0.00000E+00  9.000E+00
      21    -1     0     0   501   502  0.000000000E+00  0.000000000E+00 -7.393792997E+01  7.393792997E+01  0.000000000E+00  0.00000E+00  9.000E+00
      25     1     1     2     0     0 -5.262078959E+01  2.622444252E+01  6.231909548E+02  6.383170333E+02  1.250000000E+02  0.00000E+00  9.000E+00
      25     1     1     2     0     0 -1.648072686E+01 -1.028304115E+02  3.701833576E+01  1.668564205E+02  1.250000000E+02  0.00000E+00  9.000E+00
      21     1     1     2   501   511  6.910151645E+01  7.660596902E+01  1.826257575E+03  1.829169272E+03  0.000000000E+00  0.00000E+00  9.000E+00
#rwgt            1           1   3.5996594081921074E-002          10      253879           0
</event>
<event>
      5   9999  3.79277E-02  5.02574E+01 -1.00000E+00  1.38948E-01
      21    -1     0     0   502   512  0.000000000E+00  0.000000000E+00  3.060457551E+02  3.060457551E+02  0.000000000E+00  0.00000E+00  9.000E+00
      21    -1     0     0   501   502  0.000000000E+00  0.000000000E+00 -5.044357347E+02  5.044357347E+02  0.000000000E+00  0.00000E+00  9.000E+00
      25     1     1     2     0     0 -3.730928317E+01 -9.101886009E+01 -9.495640804E+01  1.852515450E+02  1.250000000E+02  0.00000E+00  9.000E+00
      25     1     1     2     0     0  5.848625364E+01  4.544095225E+01 -3.471796714E+02  3.763565414E+02  1.250000000E+02  0.00000E+00  9.000E+00
      21     1     1     2   501   512 -2.117697047E+01  4.557790784E+01  2.437460999E+02  2.488734035E+02  0.000000000E+00  0.00000E+00  9.000E+00
#rwgt            1           1   4.6010232742838837E-002          10      253980           0
</event>
<event>
      5   9999  3.79277E-02  3.61674E+01 -1.00000E+00  1.47606E-01
      21    -1     0     0   502   511  0.000000000E+00  0.000000000E+00  6.033243191E+02  6.033243191E+02  0.000000000E+00  0.00000E+00  9.000E+00
      21    -1     0     0   501   502  0.000000000E+00  0.000000000E+00 -1.530721597E+02  1.530721597E+02  0.000000000E+00  0.00000E+00  9.000E+00
      25     1     1     2     0     0 -1.011054106E+02 -1.181197493E+02  4.405359301E+02  4.836026105E+02  1.250000000E+02  0.00000E+00  9.000E+00
      25     1     1     2     0     0  1.190879985E+02  8.673972886E+01 -5.304181992E+01  2.003600923E+02  1.250000000E+02  0.00000E+00  9.000E+00
      21     1     1     2   501   511 -1.798258781E+01  3.138002045E+01  6.275804927E+01  7.243377593E+01  6.743495762E-07  0.00000E+00  9.000E+00
#rwgt            1           1   4.0837354016738311E-002          10      254071           0
</event>
<event>
      5   9999 -3.79277E-02  9.35327E+01 -1.00000E+00  1.25148E-01
      21    -1     0     0   502   512  0.000000000E+00  0.000000000E+00  5.469561972E+02  5.469561972E+02  0.000000000E+00  0.00000E+00  9.000E+00
      21    -1     0     0   501   502  0.000000000E+00  0.000000000E+00 -6.263262003E+02  6.263262003E+02  0.000000000E+00  0.00000E+00  9.000E+00
      25     1     1     2     0     0  7.545672625E+01 -1.707336222E+02 -3.743294525E+02  4.365675507E+02  1.250000000E+02  0.00000E+00  9.000E+00
      25     1     1     2     0     0 -9.871091309E+01  8.013773983E+01 -1.795708085E+02  2.530544941E+02  1.250000000E+02  0.00000E+00  9.000E+00
      21     1     1     2   501   512  2.325418684E+01  9.059588241E+01  4.745302580E+02  4.836603528E+02  7.629394531E-06  0.00000E+00  9.000E+00
#rwgt            1           1  -8.6591937448567746E-002          10      254261           0
</event>
<event>
      5   9999  3.79277E-02  4.86148E+01 -1.00000E+00  1.39775E-01
      21    -1     0     0   502   501  0.000000000E+00  0.000000000E+00  4.154664762E+01  4.154664762E+01  0.000000000E+00  0.00000E+00  9.000E+00
      21    -1     0     0   511   502  0.000000000E+00  0.000000000E+00 -1.262102680E+03  1.262102680E+03  0.000000000E+00  0.00000E+00  9.000E+00
      25     1     1     2     0     0  1.251939699E+02 -8.438777007E-01 -3.064753172E+02  3.538733704E+02  1.250000000E+02  0.00000E+00  9.000E+00
      25     1     1     2     0     0 -1.642669319E+02  2.976963163E+01 -7.108920845E+02  7.408524898E+02  1.250000000E+02  0.00000E+00  9.000E+00
      21     1     1     2   511   501  3.907296201E+01 -2.892575393E+01 -2.031886306E+02  2.089234674E+02  2.697398305E-06  0.00000E+00  9.000E+00
#rwgt            1           1   4.0102687335752812E-002          10      254413           0
</event>
<event>
      5   9999  3.79277E-02  2.04775E+02 -1.00000E+00  1.11276E-01
      21    -1     0     0   502   501  0.000000000E+00  0.000000000E+00  1.065765457E+02  1.065765457E+02  0.000000000E+00  0.00000E+00  9.000E+00
       2    -1     0     0   501     0  0.000000000E+00  0.000000000E+00 -1.517439500E+03  1.517439500E+03  0.000000000E+00  0.00000E+00  9.000E+00
      25     1     1     2     0     0  7.747140703E+01 -2.528508990E+00 -3.192354180E+02  3.514889250E+02  1.250000000E+02  0.00000E+00  9.000E+00
      25     1     1     2     0     0  4.021042192E+01  1.701103548E+02 -6.332001450E+01  2.240286479E+02  1.250000000E+02  0.00000E+00  9.000E+00
       2     1     1     2   502     0 -1.176818289E+02 -1.675818459E+02 -1.028307521E+03  1.048498472E+03  1.525878906E-05  0.00000E+00  9.000E+00
#rwgt            1           1   4.6626647321000171E-002          10      254538           0
</event>
<event>
      5   9999  3.79277E-02  3.41776E+01 -1.00000E+00  1.49208E-01
      21    -1     0     0   502   501  0.000000000E+00  0.000000000E+00  1.638720217E+02  1.638720217E+02  0.000000000E+00  0.00000E+00  9.000E+00
      21    -1     0     0   501   511  0.000000000E+00  0.000000000E+00 -4.005361957E+02  4.005361957E+02  0.000000000E+00  0.00000E+00  9.000E+00
      25     1     1     2     0     0 -9.817229399E+01  4.685622173E+01  7.547046684E+01  1.820826631E+02  1.250000000E+02  0.00000E+00  9.000E+00
      25     1     1     2     0     0  1.113281804E+02 -7.840036477E+01 -2.793511317E+02  3.349666188E+02  1.250000000E+02  0.00000E+00  9.000E+00
      21     1     1     2   502   511 -1.315588636E+01  3.154414304E+01 -3.278350912E+01  4.735893555E+01  4.768371582E-07  0.00000E+00  9.000E+00
#rwgt            1           1   4.2697065776233646E-002          10      254804           0
</event>
<event>
      5   9999  3.79277E-02  5.03064E+01 -1.00000E+00  1.38924E-01
      21    -1     0     0   502   501  0.000000000E+00  0.000000000E+00  1.045478337E+03  1.045478337E+03  0.000000000E+00  0.00000E+00  9.000E+00
      21    -1     0     0   501   512  0.000000000E+00  0.000000000E+00 -3.146459410E+02  3.146459410E+02  0.000000000E+00  0.00000E+00  9.000E+00
      25     1     1     2     0     0 -1.592004655E+01  8.248234697E+01  7.915196385E+01  1.701376467E+02  1.250000000E+02  0.00000E+00  9.000E+00
      25     1     1     2     0     0  5.773983451E+01 -5.452097764E+01  9.124597505E+02  9.243993844E+02  1.250000000E+02  0.00000E+00  9.000E+00
      21     1     1     2   502   512 -4.181978797E+01 -2.796136933E+01 -2.607793184E+02  2.655872470E+02  3.814697266E-06  0.00000E+00  9.000E+00
#rwgt            1           1   4.3635392671422898E-002          10      254984           0
</event>
<event>
      5   9999  3.79277E-02  1.84858E+01 -1.00000E+00  1.69241E-01
      21    -1     0     0   502   501  0.000000000E+00  0.000000000E+00  9.097597437E+02  9.097597437E+02  0.000000000E+00  0.00000E+00  9.000E+00
      21    -1     0     0   511   502  0.000000000E+00  0.000000000E+00 -6.134408519E+01  6.134408519E+01  0.000000000E+00  0.00000E+00  9.000E+00
      25     1     1     2     0     0 -1.474755623E+02 -9.139677694E+01  4.719493273E+02  5.181347120E+02  1.250000000E+02  0.00000E+00  9.000E+00
      25     1     1     2     0     0  1.658418221E+02  8.929813222E+01  3.695957672E+02  4.332478477E+02  1.250000000E+02  0.00000E+00  9.000E+00
      21     1     1     2   511   501 -1.836625976E+01  2.098644716E+00  6.870564034E+00  1.972126916E+01  2.920019320E-07  0.00000E+00  9.000E+00
#rwgt            1           1   4.4445817488734961E-002          10      255188           0
</event>
<event>
      5   9999  3.79277E-02  6.73844E+01 -1.00000E+00  1.32064E-01
      21    -1     0     0   502   501  0.000000000E+00  0.000000000E+00  1.467207151E+03  1.467207151E+03  0.000000000E+00  0.00000E+00  9.000E+00
      21    -1     0     0   501   512  0.000000000E+00  0.000000000E+00 -3.271401403E+01  3.271401403E+01  0.000000000E+00  0.00000E+00  9.000E+00
      25     1     1     2     0     0 -1.748049599E+00  9.198903388E+01  4.546640388E+02  4.804262963E+02  1.250000000E+02  0.00000E+00  9.000E+00
      25     1     1     2     0     0 -7.367394276E+00 -1.587540142E+02  8.438469809E+02  8.677325871E+02  1.250000000E+02  0.00000E+00  9.000E+00
      21     1     1     2   502   512  9.115443874E+00  6.676498034E+01  1.359821178E+02  1.517622821E+02  2.697398305E-06  0.00000E+00  9.000E+00
#rwgt            1           1   5.4517174208138085E-002          10      255752           0
</event>
<event>
      5   9999  3.79277E-02  2.49725E+01 -1.00000E+00  1.58787E-01
      21    -1     0     0   511   501  0.000000000E+00  0.000000000E+00  1.115244420E+02  1.115244420E+02  0.000000000E+00  0.00000E+00  9.000E+00
      21    -1     0     0   501   502  0.000000000E+00  0.000000000E+00 -7.191463367E+02  7.191463367E+02  0.000000000E+00  0.00000E+00  9.000E+00
      25     1     1     2     0     0 -1.810320128E+02 -5.329268310E+01 -6.253224752E+01  2.348360741E+02  1.250000000E+02  0.00000E+00  9.000E+00
      25     1     1     2     0     0  1.568264306E+02  4.715118119E+01 -5.243605474E+02  5.633797537E+02  1.250000000E+02  0.00000E+00  9.000E+00
      21     1     1     2   511   502  2.420558215E+01  6.141501914E+00 -2.072909981E+01  3.245495081E+01  7.907449699E-07  0.00000E+00  9.000E+00
#rwgt            2          11   1.1153889234222399E-002          10      255886           0
</event>
<event>
      5   9999  3.79277E-02  3.77875E+01 -1.00000E+00  1.46390E-01
      21    -1     0     0   512   501  0.000000000E+00  0.000000000E+00  4.323733580E+02  4.323733580E+02  0.000000000E+00  0.00000E+00  9.000E+00
      21    -1     0     0   501   502  0.000000000E+00  0.000000000E+00 -4.749408560E+02  4.749408560E+02  0.000000000E+00  0.00000E+00  9.000E+00
      25     1     1     2     0     0 -1.835260580E+02 -5.503832919E+01 -1.692513690E+02  2.845734660E+02  1.250000000E+02  0.00000E+00  9.000E+00
      25     1     1     2     0     0  1.575322946E+02  2.761172695E+01 -2.052448105E+02  2.886680854E+02  1.250000000E+02  0.00000E+00  9.000E+00
      21     1     1     2   512   502  2.599376348E+01  2.742660224E+01  3.319286815E+02  3.340726625E+02  0.000000000E+00  0.00000E+00  9.000E+00
#rwgt            1           1   3.9350368139931681E-002          10      255966           0
</event>
<event>
      5   9999  3.79277E-02  2.02313E+01 -1.00000E+00  1.65958E-01
      21    -1     0     0   502   511  0.000000000E+00  0.000000000E+00  4.650110926E+02  4.650110926E+02  0.000000000E+00  0.00000E+00  9.000E+00
      21    -1     0     0   501   502  0.000000000E+00  0.000000000E+00 -8.911006994E+01  8.911006994E+01  0.000000000E+00  0.00000E+00  9.000E+00
      25     1     1     2     0     0 -8.568156951E+01  6.668502277E+01  1.046561947E+02  1.958727717E+02  1.250000000E+02  0.00000E+00  9.000E+00
      25     1     1     2     0     0  1.025014560E+02 -7.792759253E+01  1.459000367E+02  2.312813846E+02  1.250000000E+02  0.00000E+00  9.000E+00
      21     1     1     2   501   511 -1.681988653E+01  1.124256975E+01  1.253447913E+02  1.269670062E+02  1.348699152E-06  0.00000E+00  9.000E+00
#rwgt            1           1   1.7456988886774504E-002          10      256109           0
</event>
<event>
      5   9999  3.79277E-02  1.72408E+02 -1.00000E+00  1.14047E-01
      21    -1     0     0   502   501  0.000000000E+00  0.000000000E+00  2.722276584E+02  2.722276584E+02  0.000000000E+00  0.00000E+00  9.000E+00
      21    -1     0     0   501   512  0.000000000E+00  0.000000000E+00 -5.082657510E+02  5.082657510E+02  0.000000000E+00  0.00000E+00  9.000E+00
      25     1     1     2     0     0 -9.897596091E+01  1.063886930E+02  5.713134795E+01  2.000094642E+02  1.250000000E+02  0.00000E+00  9.000E+00
      25     1     1     2     0     0  1.622122164E+02  5.400373396E+01  3.029207478E+01  2.139434884E+02  1.250000000E+02  0.00000E+00  9.000E+00
      21     1     1     2   502   512 -6.323625550E+01 -1.603924269E+02 -3.234615153E+02  3.665404569E+02  6.607249480E-06  0.00000E+00  9.000E+00
#rwgt            1           1   2.7863058375247874E-002          10      256243           0
</event>
<event>
      5   9999  3.79277E-02  1.36596E+01 -1.00000E+00  1.81301E-01
      21    -1     0     0   502   511  0.000000000E+00  0.000000000E+00  1.593432200E+02  1.593432200E+02  0.000000000E+00  0.00000E+00  9.000E+00
      21    -1     0     0   501   502  0.000000000E+00  0.000000000E+00 -3.619576063E+02  3.619576063E+02  0.000000000E+00  0.00000E+00  9.000E+00
      25     1     1     2     0     0  6.338384505E+01  1.628925850E+02 -3.131500542E+01  2.171569378E+02  1.250000000E+02  0.00000E+00  9.000E+00
      25     1     1     2     0     0 -7.349384178E+01 -1.537071546E+02 -1.878138291E+02  2.827123424E+02  1.250000000E+02  0.00000E+00  9.000E+00
      21     1     1     2   501   511  1.010999674E+01 -9.185430378E+00  1.651444825E+01  2.143154606E+01  3.371747881E-07  0.00000E+00  9.000E+00
#rwgt            1           1   3.1186520975629923E-002          10      256306           0
</event>
<event>
      5   9999  3.79277E-02  7.78129E+01 -1.00000E+00  1.28935E-01
      21    -1     0     0   502   501  0.000000000E+00  0.000000000E+00  3.255599942E+02  3.255599942E+02  0.000000000E+00  0.00000E+00  9.000E+00
      21    -1     0     0   501   512  0.000000000E+00  0.000000000E+00 -2.413977549E+02  2.413977549E+02  0.000000000E+00  0.00000E+00  9.000E+00
      25     1     1     2     0     0 -2.023492431E+02  3.027808529E+01 -5.998857940E+01  2.471550288E+02  1.250000000E+02  0.00000E+00  9.000E+00
      25     1     1     2     0     0  1.452017126E+02  2.253292797E+01  1.460532843E+02  2.419665928E+02  1.250000000E+02  0.00000E+00  9.000E+00
      21     1     1     2   502   512  5.714753051E+01 -5.281101326E+01 -1.902465638E+00  7.783612748E+01  1.949035428E-06  0.00000E+00  9.000E+00
#rwgt            1           1   3.6714578629204221E-002          10      256466           0
</event>
<event>
      5   9999  3.79277E-02  2.34226E+01 -1.00000E+00  1.60901E-01
      21    -1     0     0   502   501  0.000000000E+00  0.000000000E+00  3.407917128E+02  3.407917128E+02  0.000000000E+00  0.00000E+00  9.000E+00
      21    -1     0     0   501   511  0.000000000E+00  0.000000000E+00 -5.474564754E+02  5.474564754E+02  0.000000000E+00  0.00000E+00  9.000E+00
      25     1     1     2     0     0  2.147259964E+02  1.918432070E+02  3.374915440E+01  3.157135965E+02  1.250000000E+02  0.00000E+00  9.000E+00
      25     1     1     2     0     0 -2.144442280E+02 -2.152640971E+02  2.427352883E+00  3.285663563E+02  1.250000000E+02  0.00000E+00  9.000E+00
      21     1     1     2   502   511 -2.817683655E-01  2.342089011E+01 -2.428412699E+02  2.439682353E+02  2.697398305E-06  0.00000E+00  9.000E+00
#rwgt            1           1   3.6838883424523808E-002          10      256572           0
</event>
<event>
      5   9999  3.79277E-02  9.10838E+01 -1.00000E+00  1.25680E-01
      21    -1     0     0   502   501  0.000000000E+00  0.000000000E+00  2.246666413E+02  2.246666413E+02  0.000000000E+00  0.00000E+00  9.000E+00
      21    -1     0     0   501   512  0.000000000E+00  0.000000000E+00 -3.015579430E+02  3.015579430E+02  0.000000000E+00  0.00000E+00  9.000E+00
      25     1     1     2     0     0 -9.908234701E+01  1.668486829E+02 -1.552665477E+01  2.313479446E+02  1.250000000E+02  0.00000E+00  9.000E+00
      25     1     1     2     0     0  1.131450367E+01 -1.424959152E+02 -9.647787022E+00  1.901346461E+02  1.250000000E+02  0.00000E+00  9.000E+00
      21     1     1     2   502   512  8.776784334E+01 -2.435276769E+01 -5.171685996E+01  1.047419936E+02  1.651812370E-06  0.00000E+00  9.000E+00
#rwgt            1           1   3.4774068795288993E-002          10      256700           0
</event>
<event>
      5   9999  3.79277E-02  2.08203E+02 -1.00000E+00  1.11016E-01
      21    -1     0     0   502   511  0.000000000E+00  0.000000000E+00  4.023076051E+02  4.023076051E+02  0.000000000E+00  0.00000E+00  9.000E+00
      21    -1     0     0   501   502  0.000000000E+00  0.000000000E+00 -2.570007076E+02  2.570007076E+02  0.000000000E+00  0.00000E+00  9.000E+00
      25     1     1     2     0     0 -2.044648979E+02 -1.355886511E+02 -2.085219579E+01  2.761340089E+02  1.250000000E+02  0.00000E+00  9.000E+00
      25     1     1     2     0     0  5.158524199E+01 -5.748629023E+00  8.431994075E+01  1.594645300E+02  1.250000000E+02  0.00000E+00  9.000E+00
      21     1     1     2   501   511  1.528796560E+02  1.413372802E+02  8.183915259E+01  2.237097737E+02  3.568322551E-06  0.00000E+00  9.000E+00
#rwgt            1           1   4.2038444087060249E-002          10      256856           0
</event>
<event>
      5   9999  3.79277E-02  4.83470E+01 -1.00000E+00  1.39914E-01
      21    -1     0     0   502   501  0.000000000E+00  0.000000000E+00  6.581760980E+01  6.581760980E+01  0.000000000E+00  0.00000E+00  9.000E+00
      21    -1     0     0   501   512  0.000000000E+00  0.000000000E+00 -1.005775859E+03  1.005775859E+03  0.000000000E+00  0.00000E+00  9.000E+00
      25     1     1     2     0     0  8.781889847E+00 -1.975207972E+02 -3.777022649E+02  4.442697242E+02  1.250000000E+02  0.00000E+00  9.000E+00
      25     1     1     2     0     0  3.008668632E+01  1.687689236E+02 -3.471314926E+02  4.068334197E+02  1.250000000E+02  0.00000E+00  9.000E+00
      21     1     1     2   502   512 -3.886857616E+01  2.875187358E+01 -2.151244917E+02  2.204903249E+02  2.697398305E-06  0.00000E+00  9.000E+00
#rwgt            1           1   3.9716339736939756E-002          10      256993           0
</event>
<event>
      5   9999  3.79277E-02  5.01286E+01 -1.00000E+00  1.39012E-01
      21    -1     0     0   502   501  0.000000000E+00  0.000000000E+00  2.336673371E+02  2.336673371E+02  0.000000000E+00  0.00000E+00  9.000E+00
      21    -1     0     0   511   502  0.000000000E+00  0.000000000E+00 -4.781352948E+02  4.781352948E+02  0.000000000E+00  0.00000E+00  9.000E+00
      25     1     1     2     0     0  1.480323493E+02  1.678524428E+01 -2.599138949E+02  3.246160095E+02  1.250000000E+02  0.00000E+00  9.000E+00
      25     1     1     2     0     0 -1.086472497E+02  1.422586826E+01  1.621126688E+02  2.321898309E+02  1.250000000E+02  0.00000E+00  9.000E+00
      21     1     1     2   511   501 -3.938509961E+01 -3.101111254E+01 -1.466667317E+02  1.549967915E+02  1.907348633E-06  0.00000E+00  9.000E+00
#rwgt            1           1   4.4595615255955075E-002          10      257121           0
</event>
<event>
      5   9999  3.79277E-02  4.31599E+01 -1.00000E+00  1.42822E-01
      21    -1     0     0   502   501  0.000000000E+00  0.000000000E+00  1.043904052E+03  1.043904052E+03  0.000000000E+00  0.00000E+00  9.000E+00
      21    -1     0     0   501   512  0.000000000E+00  0.000000000E+00 -5.931900614E+01  5.931900614E+01  0.000000000E+00  0.00000E+00  9.000E+00
      25     1     1     2     0     0 -6.561744035E+01 -1.520581719E+02  4.976632866E+02  5.391855738E+02  1.250000000E+02  0.00000E+00  9.000E+00
      25     1     1     2     0     0  6.257265051E+01  1.951105115E+02  4.318582469E+02  4.940748867E+02  1.250000000E+02  0.00000E+00  9.000E+00
      21     1     1     2   502   512  3.044789844E+00 -4.305233954E+01  5.506351274E+01  6.996259801E+01  6.743495762E-07  0.00000E+00  9.000E+00
#rwgt            1           1   4.8956397446629912E-002          10      257382           0
</event>
<event>
      5   9999  3.79277E-02  4.98465E+01 -1.00000E+00  1.39152E-01
      21    -1     0     0   502   511  0.000000000E+00  0.000000000E+00  7.444474205E+01  7.444474205E+01  0.000000000E+00  0.00000E+00  9.000E+00
      21    -1     0     0   501   502  0.000000000E+00  0.000000000E+00 -3.275789703E+03  3.275789703E+03  0.000000000E+00  0.00000E+00  9.000E+00
      25     1     1     2     0     0 -1.567849860E+02  1.367311789E+02 -1.963470138E+03  1.978412729E+03  1.250000000E+02  0.00000E+00  9.000E+00
      25     1     1     2     0     0  1.875978729E+02 -9.754901300E+01 -1.281958423E+03  1.305278197E+03  1.250000000E+02  0.00000E+00  9.000E+00
      21     1     1     2   501   511 -3.081288691E+01 -3.918216585E+01  4.408359988E+01  6.654351883E+01  2.523185073E-06  0.00000E+00  9.000E+00
#rwgt            1           1   2.7705835016295009E-002          10      257783           0
</event>
<event>
      5   9999  3.79277E-02  4.76545E+01 -1.00000E+00  1.40277E-01
      21    -1     0     0   502   501  0.000000000E+00  0.000000000E+00  2.242518939E+02  2.242518939E+02  0.000000000E+00  0.00000E+00  9.000E+00
       2    -1     0     0   501     0  0.000000000E+00  0.000000000E+00 -2.438585452E+03  2.438585452E+03  0.000000000E+00  0.00000E+00  9.000E+00
      25     1     1     2     0     0  1.044838908E+02 -1.087495568E+02  3.401806243E+00  1.959079423E+02  1.250000000E+02  0.00000E+00  9.000E+00
      25     1     1     2     0     0 -1.329845663E+02  7.055706590E+01  4.736750626E+01  2.013252967E+02  1.250000000E+02  0.00000E+00  9.000E+00
       2     1     1     2   502     0  2.850067551E+01  3.819249092E+01 -2.265102871E+03  2.265604107E+03  0.000000000E+00  0.00000E+00  9.000E+00
#rwgt            1           1   3.6699026329896113E-002          10      258041           0
</event>
<event>
      5   9999  3.79277E-02  8.81018E+01 -1.00000E+00  1.26354E-01
      21    -1     0     0   502   511  0.000000000E+00  0.000000000E+00  8.043719202E+01  8.043719202E+01  0.000000000E+00  0.00000E+00  9.000E+00
      21    -1     0     0   501   502  0.000000000E+00  0.000000000E+00 -1.488702113E+03  1.488702113E+03  0.000000000E+00  0.00000E+00  9.000E+00
      25     1     1     2     0     0 -3.562604755E+01 -1.486410905E+02 -4.836432304E+02  5.223975147E+02  1.250000000E+02  0.00000E+00  9.000E+00
      25     1     1     2     0     0  9.210395655E+00  6.459268295E+01 -9.456996611E+02  9.561536984E+02  1.250000000E+02  0.00000E+00  9.000E+00
      21     1     1     2   501   511  2.641565189E+01  8.404840755E+01  2.107797083E+01  9.058809155E+01  2.949074954E-06  0.00000E+00  9.000E+00
#rwgt            1           1   4.1767680966683367E-002          10      258179           0
</event>
<event>
      5   9999  3.79277E-02  4.86517E+01 -1.00000E+00  1.39756E-01
      21    -1     0     0   502   501  0.000000000E+00  0.000000000E+00  5.862337695E+02  5.862337695E+02  0.000000000E+00  0.00000E+00  9.000E+00
      21    -1     0     0   501   512  0.000000000E+00  0.000000000E+00 -5.390432095E+02  5.390432095E+02  0.000000000E+00  0.00000E+00  9.000E+00
      25     1     1     2     0     0 -1.095918519E+01 -1.776270106E+02  1.033629658E+02  2.407911156E+02  1.250000000E+02  0.00000E+00  9.000E+00
      25     1     1     2     0     0  3.801985223E+01  1.371954276E+02  3.911020089E+02  4.345732112E+02  1.250000000E+02  0.00000E+00  9.000E+00
      21     1     1     2   502   512 -2.706066704E+01  4.043158297E+01 -4.472744147E+02  4.499126523E+02  5.394796609E-06  0.00000E+00  9.000E+00
#rwgt            1           1   4.1518075202918683E-002          10      258286           0
</event>
<event>
      5   9999  3.79277E-02  8.23030E+01 -1.00000E+00  1.27756E-01
      21    -1     0     0   511   501  0.000000000E+00  0.000000000E+00  5.164585384E+02  5.164585384E+02  0.000000000E+00  0.00000E+00  9.000E+00
      21    -1     0     0   501   502  0.000000000E+00  0.000000000E+00 -7.716660186E+02  7.716660186E+02  0.000000000E+00  0.00000E+00  9.000E+00
      25     1     1     2     0     0  1.788890917E+02 -9.018834864E+01 -1.719018176E+02  2.920795787E+02  1.250000000E+02  0.00000E+00  9.000E+00
      25     1     1     2     0     0 -2.008900328E+02  1.694962058E+02 -4.960734574E+02  5.751518445E+02  1.250000000E+02  0.00000E+00  9.000E+00
      21     1     1     2   511   502  2.200094107E+01 -7.930785721E+01  4.127677948E+02  4.208931338E+02  0.000000000E+00  0.00000E+00  9.000E+00
#rwgt            1           1   3.6480076553423738E-002          10      258403           0
</event>
<event>
      5   9999  3.79277E-02  1.20439E+02 -1.00000E+00  1.20301E-01
      21    -1     0     0   502   501  0.000000000E+00  0.000000000E+00  1.795933641E+02  1.795933641E+02  0.000000000E+00  0.00000E+00  9.000E+00
      21    -1     0     0   501   512  0.000000000E+00  0.000000000E+00 -5.292173456E+02  5.292173456E+02  0.000000000E+00  0.00000E+00  9.000E+00
      25     1     1     2     0     0 -8.503881720E+01 -5.106504485E+01  2.474194636E+01  1.614818973E+02  1.250000000E+02  0.00000E+00  9.000E+00
      25     1     1     2     0     0  6.029310684E+01  1.689344709E+02 -8.620552768E+01  2.350117171E+02  1.250000000E+02  0.00000E+00  9.000E+00
      21     1     1     2   502   512  2.474571037E+01 -1.178694260E+02 -2.881604002E+02  3.123170953E+02  6.607249480E-06  0.00000E+00  9.000E+00
#rwgt            1           1   4.7128088207795155E-002          10      258525           0
</event>
<event>
      5   9999  3.79277E-02  8.64967E+00 -1.00000E+00  2.03334E-01
      21    -1     0     0   511   501  0.000000000E+00  0.000000000E+00  1.843526404E+02  1.843526404E+02  0.000000000E+00  0.00000E+00  9.000E+00
      21    -1     0     0   501   502  0.000000000E+00  0.000000000E+00 -9.818552756E+02  9.818552756E+02  0.000000000E+00  0.00000E+00  9.000E+00
      25     1     1     2     0     0  7.222403886E+01 -1.931111330E+02 -7.761656525E+02  8.127523249E+02  1.250000000E+02  0.00000E+00  9.000E+00
      25     1     1     2     0     0 -7.109444016E+01  2.016867255E+02 -1.052221000E+02  2.691257048E+02  1.250000000E+02  0.00000E+00  9.000E+00
      21     1     1     2   511   502 -1.129598700E+00 -8.575592502E+00  8.388511742E+01  8.432988619E+01  1.651812370E-06  0.00000E+00  9.000E+00
#rwgt            1           1   4.6291596389787963E-002          10      258674           0
</event>
<event>
      5   9999  3.79277E-02  9.19442E+01 -1.00000E+00  1.25491E-01
      -2    -1     0     0     0   501  0.000000000E+00  0.000000000E+00  9.343583282E+01  9.343583282E+01  0.000000000E+00  0.00000E+00  9.000E+00
      21    -1     0     0   501   502  0.000000000E+00  0.000000000E+00 -1.205933818E+03  1.205933818E+03  0.000000000E+00  0.00000E+00  9.000E+00
      25     1     1     2     0     0 -2.215073472E+02 -5.692337973E+00 -4.465721776E+02  5.139548787E+02  1.250000000E+02  0.00000E+00  9.000E+00
      25     1     1     2     0     0  1.303692021E+02  1.784062486E+01 -6.692378235E+02  6.934109035E+02  1.250000000E+02  0.00000E+00  9.000E+00
      -2     1     1     2     0   502  9.113814502E+01 -1.214828689E+01  3.312016044E+00  9.200386841E+01  2.146181093E-06  0.00000E+00  9.000E+00
#rwgt            1           1  0.10480062722539535               10      259050           0
</event>
<event>
      5   9999 -3.79277E-02  4.25379E+01 -1.00000E+00  1.43202E-01
      21    -1     0     0   502   511  0.000000000E+00  0.000000000E+00  4.667921783E+02  4.667921783E+02  0.000000000E+00  0.00000E+00  9.000E+00
      21    -1     0     0   501   502  0.000000000E+00  0.000000000E+00 -1.763023898E+02  1.763023898E+02  0.000000000E+00  0.00000E+00  9.000E+00
      25     1     1     2     0     0 -8.588460477E+01  1.885176023E+02 -1.711016836E+01  2.425547558E+02  1.250000000E+02  0.00000E+00  9.000E+00
      25     1     1     2     0     0  9.299720595E+01 -1.465785099E+02  2.605016480E+02  3.370754344E+02  1.250000000E+02  0.00000E+00  9.000E+00
      21     1     1     2   501   511 -7.112601184E+00 -4.193909244E+01  4.709830884E+01  6.346437793E+01  1.168007728E-06  0.00000E+00  9.000E+00
#rwgt            1           1  -3.0140915336762865E-002          10      259132           0
</event>
<event>
      5   9999  3.79277E-02  9.15737E+01 -1.00000E+00  1.25572E-01
      21    -1     0     0   502   501  0.000000000E+00  0.000000000E+00  7.463573294E+01  7.463573294E+01  0.000000000E+00  0.00000E+00  9.000E+00
      21    -1     0     0   501   512  0.000000000E+00  0.000000000E+00 -7.859106949E+02  7.859106949E+02  0.000000000E+00  0.00000E+00  9.000E+00
      25     1     1     2     0     0  8.297446616E+01  6.152736701E+01 -5.817215700E+01  1.722770408E+02  1.250000000E+02  0.00000E+00  9.000E+00
      25     1     1     2     0     0 -1.005199086E+01 -6.137275458E+00 -3.694659467E+02  3.902163431E+02  1.250000000E+02  0.00000E+00  9.000E+00
      21     1     1     2   502   512 -7.292247531E+01 -5.539009155E+01 -2.836368582E+02  2.980530439E+02  3.814697266E-06  0.00000E+00  9.000E+00
#rwgt            1           1   1.7060141191077835E-002          10      259294           0
</event>
<event>
      5   9999  3.79277E-02  1.59927E+01 -1.00000E+00  1.74801E-01
      21    -1     0     0   511   501  0.000000000E+00  0.000000000E+00  1.547459348E+02  1.547459348E+02  0.000000000E+00  0.00000E+00  9.000E+00
      21    -1     0     0   501   502  0.000000000E+00  0.000000000E+00 -6.956947521E+02  6.956947521E+02  0.000000000E+00  0.00000E+00  9.000E+00
      25     1     1     2     0     0  1.417816721E+02  2.039087123E+02 -2.475091072E+02  3.722453003E+02  1.250000000E+02  0.00000E+00  9.000E+00
      25     1     1     2     0     0 -1.442944951E+02 -1.881146633E+02 -3.377016987E+02  4.311327698E+02  1.250000000E+02  0.00000E+00  9.000E+00
      21     1     1     2   511   502  2.512823053E+00 -1.579404898E+01  4.426198863E+01  4.706261681E+01  4.768371582E-07  0.00000E+00  9.000E+00
#rwgt            1           1   3.5944007156912559E-002          10      259385           0
</event>
<event>
      5   9999  3.79277E-02  1.19396E+02 -1.00000E+00  1.20461E-01
      21    -1     0     0   502   501  0.000000000E+00  0.000000000E+00  9.510375961E+01  9.510375961E+01  0.000000000E+00  0.00000E+00  9.000E+00
       2    -1     0     0   501     0  0.000000000E+00  0.000000000E+00 -1.167014798E+03  1.167014798E+03  0.000000000E+00  0.00000E+00  9.000E+00
      25     1     1     2     0     0  5.318456363E+01 -1.222791942E+01 -4.353224603E+00  1.364627069E+02  1.250000000E+02  0.00000E+00  9.000E+00
      25     1     1     2     0     0 -1.063642412E+02  1.191261058E+02 -4.107967822E+02  4.581303058E+02  1.250000000E+02  0.00000E+00  9.000E+00
       2     1     1     2   502     0  5.317967752E+01 -1.068981864E+02 -6.567610320E+02  6.675255452E+02  1.078959322E-05  0.00000E+00  9.000E+00
#rwgt            1           1   3.2851125754201689E-002          10      259625           0
</event>
<event>
      5   9999  3.79277E-02  2.12450E+02 -1.00000E+00  1.10702E-01
      21    -1     0     0   502   501  0.000000000E+00  0.000000000E+00  3.676611601E+02  3.676611601E+02  0.000000000E+00  0.00000E+00  9.000E+00
       1    -1     0     0   501     0  0.000000000E+00  0.000000000E+00 -1.610647950E+03  1.610647950E+03  0.000000000E+00  0.00000E+00  9.000E+00
      25     1     1     2     0     0  1.066136452E+01  9.778891882E+01  1.914481246E+02  2.489050456E+02  1.250000000E+02  0.00000E+00  9.000E+00
      25     1     1     2     0     0 -1.767216381E+02  3.472173687E+01  5.408337901E+01  2.258011255E+02  1.250000000E+02  0.00000E+00  9.000E+00
       1     1     1     2   502     0  1.660602736E+02 -1.325106557E+02 -1.488518294E+03  1.503602939E+03  2.157918644E-05  0.00000E+00  9.000E+00
#rwgt            1           1   4.2003325987275276E-002          10      259689           0
</event>
<event>
      5   9999  3.79277E-02  4.55343E+00 -1.00000E+00  2.50878E-01
      21    -1     0     0   502   511  0.000000000E+00  0.000000000E+00  1.743161780E+02  1.743161780E+02  0.000000000E+00  0.00000E+00  9.000E+00
      21    -1     0     0   501   502  0.000000000E+00  0.000000000E+00 -5.596185673E+02  5.596185673E+02  0.000000000E+00  0.00000E+00  9.000E+00
      25     1     1     2     0     0 -1.926098480E+02 -3.955419974E+01 -7.593262675E+01  2.450588747E+02  1.250000000E+02  0.00000E+00  9.000E+00
      25     1     1     2     0     0  1.963353071E+02  3.693606106E+01 -3.642334762E+02  4.338235248E+02  1.250000000E+02  0.00000E+00  9.000E+00
      21     1     1     2   501   511 -3.725459126E+00  2.618138682E+00  5.486371373E+01  5.505234582E+01  6.743495762E-07  0.00000E+00  9.000E+00
#rwgt            2          11   3.0051588519567718E-004          10      259766           0
</event>
<event>
      5   9999  3.79277E-02  1.55421E+01 -1.00000E+00  1.75943E-01
      21    -1     0     0   502   501  0.000000000E+00  0.000000000E+00  5.237882313E+02  5.237882313E+02  0.000000000E+00  0.00000E+00  9.000E+00
      21    -1     0     0   512   502  0.000000000E+00  0.000000000E+00 -2.481305636E+02  2.481305636E+02  0.000000000E+00  0.00000E+00  9.000E+00
      25     1     1     2     0     0 -3.389993222E+01 -2.123317397E+02  4.139155157E+02  4.828923557E+02  1.250000000E+02  0.00000E+00  9.000E+00
      25     1     1     2     0     0  3.113931717E+01  1.970368191E+02 -1.175294472E+02  2.631184831E+02  1.250000000E+02  0.00000E+00  9.000E+00
      21     1     1     2   512   501  2.760615047E+00  1.529492052E+01 -2.072840083E+01  2.590795612E+01  0.000000000E+00  0.00000E+00  9.000E+00
#rwgt            1           1   3.8140596093539987E-002          10      259861           0
</event>
<event>
      5   9999  3.79277E-02  4.46129E+01 -1.00000E+00  1.41960E-01
      21    -1     0     0   502   501  0.000000000E+00  0.000000000E+00  1.919147067E+02  1.919147067E+02  0.000000000E+00  0.00000E+00  9.000E+00
       1    -1     0     0   501     0  0.000000000E+00  0.000000000E+00 -3.322903097E+02  3.322903097E+02  0.000000000E+00  0.00000E+00  9.000E+00
      25     1     1     2     0     0  2.657616909E+01  1.212314620E+02 -5.532899290E+01  1.846338473E+02  1.250000000E+02  0.00000E+00  9.000E+00
      25     1     1     2     0     0 -5.143345554E+01 -1.582777334E+02  3.539903668E+01  2.111287120E+02  1.250000000E+02  0.00000E+00  9.000E+00
       1     1     1     2   502     0  2.485728645E+01  3.704627145E+01 -1.204456468E+02  1.284424570E+02  1.907348633E-06  0.00000E+00  9.000E+00
#rwgt            1           1   3.2650304762862466E-002          10      260054           0
</event>
<event>
      5   9999  3.79277E-02  4.16798E+01 -1.00000E+00  1.43741E-01
      21    -1     0     0   511   501  0.000000000E+00  0.000000000E+00  3.926328699E+02  3.926328699E+02  0.000000000E+00  0.00000E+00  9.000E+00
      21    -1     0     0   501   502  0.000000000E+00  0.000000000E+00 -2.745747598E+02  2.745747598E+02  0.000000000E+00  0.00000E+00  9.000E+00
      25     1     1     2     0     0 -2.312349215E+01  1.270433887E+02 -1.526071034E+02  2.357724465E+02  1.250000000E+02  0.00000E+00  9.000E+00
      25     1     1     2     0     0  1.066304855E+00 -9.167833353E+01 -2.568470860E+00  1.550408039E+02  1.250000000E+02  0.00000E+00  9.000E+00
      21     1     1     2   511   502  2.205718730E+01 -3.536505521E+01  2.732336843E+02  2.763943793E+02  0.000000000E+00  0.00000E+00  9.000E+00
#rwgt            1           1   2.3914413078312075E-002          10      260175           0
</event>
<event>
      5   9999  3.79277E-02  2.20056E+01 -1.00000E+00  1.63016E-01
      21    -1     0     0   502   501  0.000000000E+00  0.000000000E+00  1.769503367E+03  1.769503367E+03  0.000000000E+00  0.00000E+00  9.000E+00
      21    -1     0     0   512   502  0.000000000E+00  0.000000000E+00 -8.495992139E+01  8.495992139E+01  0.000000000E+00  0.00000E+00  9.000E+00
      25     1     1     2     0     0 -5.256820668E+01  8.641635221E+01  1.259413535E+02  2.042484438E+02  1.250000000E+02  0.00000E+00  9.000E+00
      25     1     1     2     0     0  5.946939734E+01 -1.073118328E+02  1.596668003E+03  1.606245980E+03  1.250000000E+02  0.00000E+00  9.000E+00
      21     1     1     2   512   501 -6.901190663E+00  2.089548061E+01 -3.806591014E+01  4.396886463E+01  2.523185073E-06  0.00000E+00  9.000E+00
#rwgt            1           1   7.2838373939291948E-002          10      260326           0
</event>
<event>
      5   9999  3.79277E-02  8.29880E+01 -1.00000E+00  1.27583E-01
      21    -1     0     0   511   501  0.000000000E+00  0.000000000E+00  2.521923248E+03  2.521923248E+03  0.000000000E+00  0.00000E+00  9.000E+00
      21    -1     0     0   501   502  0.000000000E+00  0.000000000E+00 -2.879825813E+01  2.879825813E+01  0.000000000E+00  0.00000E+00  9.000E+00
      25     1     1     2     0     0  5.020829403E+01  6.572957771E+01  2.278416230E+02  2.727234045E+02  1.250000000E+02  0.00000E+00  9.000E+00
      25     1     1     2     0     0 -4.982620697E+01  1.725750598E+01  1.819860234E+03  1.824910065E+03  1.250000000E+02  0.00000E+00  9.000E+00
      21     1     1     2   511   502 -3.820870557E-01 -8.298708369E+01  4.454231321E+02  4.530880363E+02  7.629394531E-06  0.00000E+00  9.000E+00
#rwgt            1           1  0.12464309259102542               10      260506           0
</event>
<event>
      5   9999  3.79277E-02  7.94876E+01 -1.00000E+00  1.28485E-01
      21    -1     0     0   502   501  0.000000000E+00  0.000000000E+00  6.951385831E+02  6.951385831E+02  0.000000000E+00  0.00000E+00  9.000E+00
      21    -1     0     0   501   512  0.000000000E+00  0.000000000E+00 -4.939729225E+02  4.939729225E+02  0.000000000E+00  0.00000E+00  9.000E+00
      25     1     1     2     0     0  1.500687289E+02 -2.321892038E+02  5.954708361E+02  6.683135240E+02  1.250000000E+02  0.00000E+00  9.000E+00
      25     1     1     2     0     0 -1.342687787E+02  1.542877014E+02 -2.047325158E+02  3.152351547E+02  1.250000000E+02  0.00000E+00  9.000E+00
      21     1     1     2   502   512 -1.579995020E+01  7.790150245E+01 -1.895726597E+02  2.055628269E+02  2.697398305E-06  0.00000E+00  9.000E+00
#rwgt            1           1  0.17859062306891654               10      260631           0
</event>
<event>
      5   9999  3.79277E-02  1.13925E+01 -1.00000E+00  1.89432E-01
      21    -1     0     0   502   511  0.000000000E+00  0.000000000E+00  2.979426151E+02  2.979426151E+02  0.000000000E+00  0.00000E+00  9.000E+00
      21    -1     0     0   501   502  0.000000000E+00  0.000000000E+00 -1.251683513E+02  1.251683513E+02  0.000000000E+00  0.00000E+00  9.000E+00
      25     1     1     2     0     0 -1.091382898E+02 -2.230081279E+01 -4.987867798E+00  1.675063323E+02  1.250000000E+02  0.00000E+00  9.000E+00
      25     1     1     2     0     0  1.170572099E+02  1.411061493E+01  1.706561269E+02  2.421776486E+02  1.250000000E+02  0.00000E+00  9.000E+00
      21     1     1     2   501   511 -7.918920061E+00  8.190197854E+00  7.106004668E+00  1.342698545E+01  1.192092896E-07  0.00000E+00  9.000E+00
#rwgt            1           1   2.3124112193949446E-002          10      260893           0
</event>
<event>
      5   9999  3.79277E-02  2.04991E+01 -1.00000E+00  1.65491E-01
      21    -1     0     0   502   501  0.000000000E+00  0.000000000E+00  6.571800850E+02  6.571800850E+02  0.000000000E+00  0.00000E+00  9.000E+00
      21    -1     0     0   512   502  0.000000000E+00  0.000000000E+00 -5.808870120E+01  5.808870120E+01  0.000000000E+00  0.00000E+00  9.000E+00
      25     1     1     2     0     0  5.406451110E+01  1.321495968E+02  2.773659290E+02  3.360704478E+02  1.250000000E+02  0.00000E+00  9.000E+00
      25     1     1     2     0     0 -5.614390543E+01 -1.117562537E+02  3.057904466E+02  3.532341937E+02  1.250000000E+02  0.00000E+00  9.000E+00
      21     1     1     2   512   501  2.079394325E+00 -2.039334312E+01  1.593500814E+01  2.596414468E+01  1.685873940E-07  0.00000E+00  9.000E+00
#rwgt            1           1   2.6173265046075693E-002          10      261123           0
</event>
<event>
      5   9999  3.79277E-02  2.23685E+02 -1.00000E+00  1.09907E-01
      21    -1     0     0   502   511  0.000000000E+00  0.000000000E+00  3.629942577E+02  3.629942577E+02  0.000000000E+00  0.00000E+00  9.000E+00
      21    -1     0     0   501   502  0.000000000E+00  0.000000000E+00 -3.862438520E+02  3.862438520E+02  0.000000000E+00  0.00000E+00  9.000E+00
      25     1     1     2     0     0  3.318870498E+00  2.507942394E+02 -1.381571323E+01  2.805791142E+02  1.250000000E+02  0.00000E+00  9.000E+00
      25     1     1     2     0     0 -3.058874892E+01 -2.877735688E+01 -1.536776806E+02  2.024984873E+02  1.250000000E+02  0.00000E+00  9.000E+00
      21     1     1     2   501   511  2.726987842E+01 -2.220168825E+02  1.442437995E+02  2.661605082E+02  4.264961200E-06  0.00000E+00  9.000E+00
#rwgt            1           1   4.5803709692719671E-002          10      261288           0
</event>
<event>
      5   9999  3.79277E-02  1.90226E+01 -1.00000E+00  1.68185E-01
      21    -1     0     0   502   501  0.000000000E+00  0.000000000E+00  1.760477922E+02  1.760477922E+02  0.000000000E+00  0.00000E+00  9.000E+00
      21    -1     0     0   512   502  0.000000000E+00  0.000000000E+00 -5.390630044E+02  5.390630044E+02  0.000000000E+00  0.00000E+00  9.000E+00
      25     1     1     2     0     0 -2.220627308E+02  1.293738999E+02 -1.611097517E+02  3.280713558E+02  1.250000000E+02  0.00000E+00  9.000E+00
      25     1     1     2     0     0  2.369993186E+02 -1.175943033E+02 -1.440717099E+02  3.261575613E+02  1.250000000E+02  0.00000E+00  9.000E+00
      21     1     1     2   512   501 -1.493658775E+01 -1.177959664E+01 -5.783375063E+01  6.088187959E+01  9.536743164E-07  0.00000E+00  9.000E+00
#rwgt            1           1   3.6867326950945904E-002          10      261341           0
</event>
<event>
      5   9999  3.79277E-02  7.26947E+01 -1.00000E+00  1.30395E-01
      -1    -1     0     0     0   501  0.000000000E+00  0.000000000E+00  9.431168534E+02  9.431168534E+02  0.000000000E+00  0.00000E+00  9.000E+00
      21    -1     0     0   501   502  0.000000000E+00  0.000000000E+00 -2.747340041E+02  2.747340041E+02  0.000000000E+00  0.00000E+00  9.000E+00
      25     1     1     2     0     0  1.157553491E+02 -2.409219376E+02 -7.151098875E+01  3.036140682E+02  1.250000000E+02  0.00000E+00  9.000E+00
      25     1     1     2     0     0 -1.701776874E+02  1.927272316E+02  1.556913855E+02  3.255288598E+02  1.250000000E+02  0.00000E+00  9.000E+00
      -1     1     1     2     0   502  5.442233830E+01  4.819470605E+01  5.842024526E+02  5.887079294E+02  7.629394531E-06  0.00000E+00  9.000E+00
#rwgt            1           1   4.3252279994276721E-002          10      261540           0
</event>
<event>
      5   9999  3.79277E-02  2.72910E+01 -1.00000E+00  1.55950E-01
      21    -1     0     0   502   511  0.000000000E+00  0.000000000E+00  9.495029326E+02  9.495029326E+02  0.000000000E+00  0.00000E+00  9.000E+00
      21    -1     0     0   501   502  0.000000000E+00  0.000000000E+00 -5.304336102E+01  5.304336102E+01  0.000000000E+00  0.00000E+00  9.000E+00
      25     1     1     2     0     0  8.429081618E+01  8.212161046E+01  6.195983097E+02  6.429432058E+02  1.250000000E+02  0.00000E+00  9.000E+00
      25     1     1     2     0     0 -7.687693375E+01 -1.083863344E+02  1.701831275E+02  2.494893932E+02  1.250000000E+02  0.00000E+00  9.000E+00
      21     1     1     2   501   511 -7.413882430E+00  2.626472395E+01  1.066781344E+02  1.101136946E+02  0.000000000E+00  0.00000E+00  9.000E+00
#rwgt            1           1   3.0875545102761900E-002          10      261857           0
</event>
<event>
      5   9999  3.79277E-02  1.85874E+01 -1.00000E+00  1.69037E-01
      21    -1     0     0   502   501  0.000000000E+00  0.000000000E+00  4.555751955E+01  4.555751955E+01  0.000000000E+00  0.00000E+00  9.000E+00
      21    -1     0     0   501   512  0.000000000E+00  0.000000000E+00 -9.159261033E+02  9.159261033E+02  0.000000000E+00  0.00000E+00  9.000E+00
      25     1     1     2     0     0 -3.357319116E+01 -7.772419198E+01 -1.411551092E+02  2.066832698E+02  1.250000000E+02  0.00000E+00  9.000E+00
      25     1     1     2     0     0  5.213511356E+01  7.869748692E+01 -4.803773931E+02  5.052710207E+02  1.250000000E+02  0.00000E+00  9.000E+00
      21     1     1     2   502   512 -1.856192240E+01 -9.732949450E-01 -2.488360815E+02  2.495293324E+02  3.814697266E-06  0.00000E+00  9.000E+00
#rwgt            1           1   4.2341250087451106E-002          10      262047           0
</event>
<event>
      5   9999  3.79277E-02  5.32389E+01 -1.00000E+00  1.37538E-01
      21    -1     0     0   502   501  0.000000000E+00  0.000000000E+00  3.812398507E+02  3.812398507E+02  0.000000000E+00  0.00000E+00  9.000E+00
      21    -1     0     0   511   502  0.000000000E+00  0.000000000E+00 -2.872861545E+02  2.872861545E+02  0.000000000E+00  0.00000E+00  9.000E+00
      25     1     1     2     0     0 -2.745541654E+01  2.030054054E+01  3.383929689E+02  3.623544028E+02  1.250000000E+02  0.00000E+00  9.000E+00
      25     1     1     2     0     0 -2.673767145E+00  2.359269172E+01 -1.415829123E+02  1.903535794E+02  1.250000000E+02  0.00000E+00  9.000E+00
      21     1     1     2   511   501  3.012918369E+01 -4.389323226E+01 -1.028563605E+02  1.158180229E+02  0.000000000E+00  0.00000E+00  9.000E+00
#rwgt            1           1   5.0507731337047529E-002          10      262290           0
</event>
<event>
      5   9999  3.79277E-02  2.59370E+01 -1.00000E+00  1.57563E-01
      21    -1     0     0   502   501  0.000000000E+00  0.000000000E+00  9.281118793E+01  9.281118793E+01  0.000000000E+00  0.00000E+00  9.000E+00
       1    -1     0     0   501     0  0.000000000E+00  0.000000000E+00 -2.552446078E+03  2.552446078E+03  0.000000000E+00  0.00000E+00  9.000E+00
      25     1     1     2     0     0 -2.054181726E+02 -1.111181872E+02 -4.619725042E+02  5.325293154E+02  1.250000000E+02  0.00000E+00  9.000E+00
      25     1     1     2     0     0  1.915241100E+02  1.330199102E+02 -2.472499059E+02  3.621233176E+02  1.250000000E+02  0.00000E+00  9.000E+00
       1     1     1     2   502     0  1.389406257E+01 -2.190172299E+01 -1.750412480E+03  1.750604633E+03  3.051757812E-05  0.00000E+00  9.000E+00
#rwgt            1           1   4.0494037142173978E-002          10      262501           0
</event>
<event>
      5   9999  3.79277E-02  8.36341E+01 -1.00000E+00  1.27423E-01
       2    -1     0     0   502     0  0.000000000E+00  0.000000000E+00  1.503275844E+03  1.503275844E+03  0.000000000E+00  0.00000E+00  9.000E+00
      21    -1     0     0   501   502  0.000000000E+00  0.000000000E+00 -9.184317169E+01  9.184317169E+01  0.000000000E+00  0.00000E+00  9.000E+00
      25     1     1     2     0     0  1.586082632E+02  5.308868602E+01  1.343645069E+02  2.483018535E+02  1.250000000E+02  0.00000E+00  9.000E+00
      25     1     1     2     0     0 -2.408532396E+02 -3.790864396E+01  5.451066992E+02  6.100931584E+02  1.250000000E+02  0.00000E+00  9.000E+00
       2     1     1     2   501     0  8.224497639E+01 -1.518004206E+01  7.319614662E+02  7.367240038E+02  1.078959322E-05  0.00000E+00  9.000E+00
#rwgt            1           1   3.5657394068623935E-002          10      262616           0
</event>
<event>
      5   9999  3.79277E-02  1.45291E+02 -1.00000E+00  1.16945E-01
      21    -1     0     0   511   501  0.000000000E+00  0.000000000E+00  1.764976110E+02  1.764976110E+02  0.000000000E+00  0.00000E+00  9.000E+00
      21    -1     0     0   501   502  0.000000000E+00  0.000000000E+00 -8.536827394E+02  8.536827394E+02  0.000000000E+00  0.00000E+00  9.000E+00
      25     1     1     2     0     0  7.838565312E+01  5.155147302E+01  5.637447409E+01  1.661473633E+02  1.250000000E+02  0.00000E+00  9.000E+00
      25     1     1     2     0     0 -1.653892384E+01  7.991870409E+01 -6.988997280E+02  7.146652119E+02  1.250000000E+02  0.00000E+00  9.000E+00
      21     1     1     2   511   502 -6.184672928E+01 -1.314701771E+02 -3.465987444E+01  1.493677753E+02  1.651812370E-06  0.00000E+00  9.000E+00
#rwgt            1           1   3.2615523577473382E-002          10      262767           0
</event>
<event>
      5   9999  3.79277E-02  2.03014E+01 -1.00000E+00  1.65835E-01
      21    -1     0     0   502   501  0.000000000E+00  0.000000000E+00  3.086961416E+02  3.086961416E+02  0.000000000E+00  0.00000E+00  9.000E+00
      21    -1     0     0   512   502  0.000000000E+00  0.000000000E+00 -3.025772586E+02  3.025772586E+02  0.000000000E+00  0.00000E+00  9.000E+00
      25     1     1     2     0     0  6.910837404E+01  2.013591813E+02  1.488813289E+02  2.882917574E+02  1.250000000E+02  0.00000E+00  9.000E+00
      25     1     1     2     0     0 -8.815971674E+01 -1.943454566E+02 -8.461857356E+01  2.613954766E+02  1.250000000E+02  0.00000E+00  9.000E+00
      21     1     1     2   512   501  1.905134270E+01 -7.013724700E+00 -5.814387232E+01  6.158616632E+01  6.743495762E-07  0.00000E+00  9.000E+00
#rwgt            1           1   3.8275702718111621E-002          10      262838           0
</event>
<event>
      5   9999  3.79277E-02  5.51455E+01 -1.00000E+00  1.36691E-01
      -1    -1     0     0     0   501  0.000000000E+00  0.000000000E+00  3.453338062E+02  3.453338062E+02  0.000000000E+00  0.00000E+00  9.000E+00
      21    -1     0     0   501   502  0.000000000E+00  0.000000000E+00 -3.025373364E+02  3.025373364E+02  0.000000000E+00  0.00000E+00  9.000E+00
      25     1     1     2     0     0 -1.831936598E+01  1.605012948E+02 -1.842527719E+02  2.750824399E+02  1.250000000E+02  0.00000E+00  9.000E+00
      25     1     1     2     0     0  5.128536404E+01 -1.162941704E+02  4.682331310E+01  1.843147994E+02  1.250000000E+02  0.00000E+00  9.000E+00
      -1     1     1     2     0   502 -3.296599806E+01 -4.420712442E+01  1.802259286E+02  1.884739033E+02  2.697398305E-06  0.00000E+00  9.000E+00
#rwgt            1           1   4.0328070490445275E-002          10      263039           0
</event>
<event>
      5   9999  3.79277E-02  5.81169E+01 -1.00000E+00  1.35448E-01
      21    -1     0     0   502   511  0.000000000E+00  0.000000000E+00  1.958748488E+02  1.958748488E+02  0.000000000E+00  0.00000E+00  9.000E+00
      21    -1     0     0   501   502  0.000000000E+00  0.000000000E+00 -4.077647061E+02  4.077647061E+02  0.000000000E+00  0.00000E+00  9.000E+00
      25     1     1     2     0     0 -8.440543391E+01 -4.306299617E+01 -2.279397334E+02  2.766951770E+02  1.250000000E+02  0.00000E+00  9.000E+00
      25     1     1     2     0     0  1.390258504E+02  6.291707836E+01 -8.146838930E+01  2.134217522E+02  1.250000000E+02  0.00000E+00  9.000E+00
      21     1     1     2   501   511 -5.462041654E+01 -1.985408220E+01  9.751826531E+01  1.135226257E+02  1.348699152E-06  0.00000E+00  9.000E+00
#rwgt            1           1   4.8454026264608881E-002          10      263183           0
</event>
<event>
      5   9999  3.79277E-02  3.41433E+01 -1.00000E+00  1.49237E-01
      21    -1     0     0   502   501  0.000000000E+00  0.000000000E+00  1.169681855E+02  1.169681855E+02  0.000000000E+00  0.00000E+00  9.000E+00
      21    -1     0     0   512   502  0.000000000E+00  0.000000000E+00 -5.421197499E+02  5.421197499E+02  0.000000000E+00  0.00000E+00  9.000E+00
      25     1     1     2     0     0 -3.482134117E+01  9.852336496E+01  2.805841560E+01  1.653228778E+02  1.250000000E+02  0.00000E+00  9.000E+00
      25     1     1     2     0     0  8.544940017E-01 -1.019896070E+02 -3.866698770E+02  4.189763763E+02  1.250000000E+02  0.00000E+00  9.000E+00
      21     1     1     2   512   501  3.396684717E+01  3.466242083E+00 -6.654010303E+01  7.478868131E+01  1.651812370E-06  0.00000E+00  9.000E+00
#rwgt            1           1   4.6003477577073237E-002          10      263313           0
</event>
<event>
      5   9999  3.79277E-02  3.81118E+01 -1.00000E+00  1.46155E-01
      21    -1     0     0   511   501  0.000000000E+00  0.000000000E+00  3.440728520E+02  3.440728520E+02  0.000000000E+00  0.00000E+00  9.000E+00
      21    -1     0     0   501   502  0.000000000E+00  0.000000000E+00 -1.409471742E+02  1.409471742E+02  0.000000000E+00  0.00000E+00  9.000E+00
      25     1     1     2     0     0 -9.613555378E+01  9.477157353E+01  1.714948909E+02  2.515138037E+02  1.250000000E+02  0.00000E+00  9.000E+00
      25     1     1     2     0     0  9.449173078E+01 -5.669528767E+01 -2.160737986E+01  1.680325019E+02  1.250000000E+02  0.00000E+00  9.000E+00
      21     1     1     2   511   502  1.643823004E+00 -3.807628586E+01  5.323816677E+01  6.547372068E+01  9.536743164E-07  0.00000E+00  9.000E+00
#rwgt            1           1   2.9097288101752865E-002          10      263500           0
</event>
<event>
      5   9999  3.79277E-02  1.34731E+01 -1.00000E+00  1.81891E-01
      21    -1     0     0   512   501  0.000000000E+00  0.000000000E+00  4.649061722E+02  4.649061722E+02  0.000000000E+00  0.00000E+00  9.000E+00
      21    -1     0     0   501   502  0.000000000E+00  0.000000000E+00 -1.495409663E+02  1.495409663E+02  0.000000000E+00  0.00000E+00  9.000E+00
      25     1     1     2     0     0 -9.215541936E+01 -7.463398462E+01 -6.769796487E+01  1.851239245E+02  1.250000000E+02  0.00000E+00  9.000E+00
      25     1     1     2     0     0  1.056146538E+02  7.402219751E+01  3.451124326E+02  3.890518371E+02  1.250000000E+02  0.00000E+00  9.000E+00
      21     1     1     2   512   502 -1.345923441E+01  6.117871145E-01  3.795073818E+01  4.027137696E+01  4.768371582E-07  0.00000E+00  9.000E+00
#rwgt            1           1   4.2210583827292654E-002          10      263669           0
</event>
<event>
      5   9999  3.79277E-02  6.10407E+01 -1.00000E+00  1.34306E-01
      21    -1     0     0   502   501  0.000000000E+00  0.000000000E+00  6.782309896E+01  6.782309896E+01  0.000000000E+00  0.00000E+00  9.000E+00
       1    -1     0     0   501     0  0.000000000E+00  0.000000000E+00 -1.153217403E+03  1.153217403E+03  0.000000000E+00  0.00000E+00  9.000E+00
      25     1     1     2     0     0  1.259054900E+02  5.878818536E+01 -1.532000341E+02  2.416681477E+02  1.250000000E+02  0.00000E+00  9.000E+00
      25     1     1     2     0     0 -1.214892925E+02 -1.196689341E+02 -4.996939062E+02  5.425857553E+02  1.250000000E+02  0.00000E+00  9.000E+00
       1     1     1     2   502     0 -4.416197499E+00  6.088074876E+01 -4.325003643E+02  4.367865995E+02  7.629394531E-06  0.00000E+00  9.000E+00
#rwgt            2          12   1.0923357360243167E-004          10      264013           0
</event>
<event>
      5   9999  3.79277E-02  6.17723E+01 -1.00000E+00  1.34031E-01
      21    -1     0     0   502   501  0.000000000E+00  0.000000000E+00  5.877022878E+01  5.877022878E+01  0.000000000E+00  0.00000E+00  9.000E+00
      21    -1     0     0   511   502  0.000000000E+00  0.000000000E+00 -9.093362308E+02  9.093362308E+02  0.000000000E+00  0.00000E+00  9.000E+00
      25     1     1     2     0     0  3.070739064E+01 -9.290933131E+01 -2.205751454E+02  2.717599722E+02  1.250000000E+02  0.00000E+00  9.000E+00
      25     1     1     2     0     0 -6.278551815E+01  1.456996043E+02 -3.068787809E+02  3.673826100E+02  1.250000000E+02  0.00000E+00  9.000E+00
      21     1     1     2   511   501  3.207812751E+01 -5.279027298E+01 -3.231120757E+02  3.289638774E+02  7.629394531E-06  0.00000E+00  9.000E+00
#rwgt            1           1   3.0481637853033604E-002          10      264047           0
</event>
<event>
      5   9999  3.79277E-02  6.77248E+01 -1.00000E+00  1.31952E-01
      21    -1     0     0   502   512  0.000000000E+00  0.000000000E+00  1.515654734E+02  1.515654734E+02  0.000000000E+00  0.00000E+00  9.000E+00
      21    -1     0     0   501   502  0.000000000E+00  0.000000000E+00 -5.766860472E+02  5.766860472E+02  0.000000000E+00  0.00000E+00  9.000E+00
      25     1     1     2     0     0  2.347492995E+02  4.273185102E+01 -2.832714648E+02  3.908976432E+02  1.250000000E+02  0.00000E+00  9.000E+00
      25     1     1     2     0     0 -1.710517935E+02 -6.573788361E+01 -1.519563749E+02  2.688790160E+02  1.250000000E+02  0.00000E+00  9.000E+00
      21     1     1     2   501   512 -6.369750600E+01  2.300603259E+01  1.010726582E+01  6.847486129E+01  1.111910230E-06  0.00000E+00  9.000E+00
#rwgt            1           1  0.11097284473435323               10      264171           0
</event>
<event>
      5   9999  3.79277E-02  5.10962E+01 -1.00000E+00  1.38540E-01
      21    -1     0     0   511   501  0.000000000E+00  0.000000000E+00  5.171135530E+02  5.171135530E+02  0.000000000E+00  0.00000E+00  9.000E+00
      21    -1     0     0   501   502  0.000000000E+00  0.000000000E+00 -9.245705992E+01  9.245705992E+01  0.000000000E+00  0.00000E+00  9.000E+00
      25     1     1     2     0     0  4.276771804E+01  5.427821519E+01  1.981965403E+02  2.442991423E+02  1.250000000E+02  0.00000E+00  9.000E+00
      25     1     1     2     0     0 -7.862483854E+01 -9.067993492E+01  4.825234138E+01  1.798833074E+02  1.250000000E+02  0.00000E+00  9.000E+00
      21     1     1     2   511   502  3.585712050E+01  3.640171973E+01  1.782076115E+02  1.853881633E+02  1.907348633E-06  0.00000E+00  9.000E+00
#rwgt            1           1   4.2395674220347339E-002          10      264241           0
</event>
<event>
      5   9999  3.79277E-02  3.08866E+01 -1.00000E+00  1.52166E-01
      21    -1     0     0   502   501  0.000000000E+00  0.000000000E+00  6.017657423E+02  6.017657423E+02  0.000000000E+00  0.00000E+00  9.000E+00
      -2    -1     0     0     0   502  0.000000000E+00  0.000000000E+00 -6.578955691E+01  6.578955691E+01  0.000000000E+00  0.00000E+00  9.000E+00
      25     1     1     2     0     0 -4.654689023E+01  6.519180030E+00  3.723138613E+02  3.955397882E+02  1.250000000E+02  0.00000E+00  9.000E+00
      25     1     1     2     0     0  1.590472705E+01 -2.641359886E+00  1.922823703E+02  2.299074750E+02  1.250000000E+02  0.00000E+00  9.000E+00
      -2     1     1     2     0   501  3.064216318E+01 -3.877820144E+00 -2.862004623E+01  4.210803604E+01  1.261592536E-06  0.00000E+00  9.000E+00
#rwgt            1           1   1.9634641826883428E-002          10      264335           0
</event>
<event>
      5   9999  3.79277E-02  2.95917E+01 -1.00000E+00  1.53454E-01
      21    -1     0     0   502   501  0.000000000E+00  0.000000000E+00  2.152355389E+02  2.152355389E+02  0.000000000E+00  0.00000E+00  9.000E+00
      21    -1     0     0   501   511  0.000000000E+00  0.000000000E+00 -2.526497176E+02  2.526497176E+02  0.000000000E+00  0.00000E+00  9.000E+00
      25     1     1     2     0     0  6.296100098E+01 -1.564310817E+02 -5.940239182E+01  2.181476911E+02  1.250000000E+02  0.00000E+00  9.000E+00
      25     1     1     2     0     0 -9.002446188E+01  1.444627893E+02  4.021990361E+01  2.149803290E+02  1.250000000E+02  0.00000E+00  9.000E+00
      21     1     1     2   502   511  2.706346089E+01  1.196829241E+01 -1.823169054E+01  3.475723635E+01  4.129530925E-07  0.00000E+00  9.000E+00
#rwgt            1           1   2.9218520166369694E-002          10      264623           0
</event>
<event>
      5   9999  3.79277E-02  2.72851E+02 -1.00000E+00  1.06948E-01
      21    -1     0     0   502   512  0.000000000E+00  0.000000000E+00  5.562096688E+02  5.562096688E+02  0.000000000E+00  0.00000E+00  9.000E+00
      21    -1     0     0   501   502  0.000000000E+00  0.000000000E+00 -1.437542882E+03  1.437542882E+03  0.000000000E+00  0.00000E+00  9.000E+00
      25     1     1     2     0     0  3.463904408E+01 -4.271644596E+02 -3.212118321E+02  5.499739812E+02  1.250000000E+02  0.00000E+00  9.000E+00
      25     1     1     2     0     0 -2.909082000E+02  3.334960172E+02 -8.983524511E+02  1.009212218E+03  1.250000000E+02  0.00000E+00  9.000E+00
      21     1     1     2   501   512  2.562691559E+02  9.366844246E+01  3.382310700E+02  4.345663518E+02  3.814697266E-06  0.00000E+00  9.000E+00
#rwgt            1           1  0.55849226153917197               10      264891           0
</event>
<event>
      5   9999 -3.79277E-02  3.96055E+01 -1.00000E+00  1.45108E-01
      21    -1     0     0   502   511  0.000000000E+00  0.000000000E+00  5.113746908E+02  5.113746908E+02  0.000000000E+00  0.00000E+00  9.000E+00
      21    -1     0     0   501   502  0.000000000E+00  0.000000000E+00 -9.682410347E+01  9.682410347E+01  0.000000000E+00  0.00000E+00  9.000E+00
      25     1     1     2     0     0  1.619036796E+02  1.099079556E+01  2.444882257E+02  3.189562534E+02  1.250000000E+02  0.00000E+00  9.000E+00
      25     1     1     2     0     0 -1.240932993E+02 -2.277937446E+01  8.819057570E+01  1.982942875E+02  1.250000000E+02  0.00000E+00  9.000E+00
      21     1     1     2   501   511 -3.781038037E+01  1.178857890E+01  8.187178595E+01  9.094825337E+01  1.651812370E-06  0.00000E+00  9.000E+00
#rwgt            1           1  -7.6733200493610307E-002          10      265082           0
</event>
<event>
      5   9999  3.79277E-02  5.78183E+01 -1.00000E+00  1.35569E-01
      21    -1     0     0   502   501  0.000000000E+00  0.000000000E+00  8.615040366E+02  8.615040366E+02  0.000000000E+00  0.00000E+00  9.000E+00
      21    -1     0     0   512   502  0.000000000E+00  0.000000000E+00 -6.783269391E+01  6.783269391E+01  0.000000000E+00  0.00000E+00  9.000E+00
      25     1     1     2     0     0  3.305303355E+01  1.255248704E+02  1.301215409E+02  2.222737311E+02  1.250000000E+02  0.00000E+00  9.000E+00
      25     1     1     2     0     0 -2.382532629E+01 -6.844765013E+01  6.144474012E+02  6.312078388E+02  1.250000000E+02  0.00000E+00  9.000E+00
      21     1     1     2   512   501 -9.227707252E+00 -5.707722024E+01  4.910240061E+01  7.585516065E+01  0.000000000E+00  0.00000E+00  9.000E+00
#rwgt            1           1   4.7935888878631115E-002          10      265273           0
</event>
<event>
      5   9999  3.79277E-02  6.63855E+01 -1.00000E+00  1.32397E-01
      21    -1     0     0   502   511  0.000000000E+00  0.000000000E+00  7.903448832E+02  7.903448832E+02  0.000000000E+00  0.00000E+00  9.000E+00
      21    -1     0     0   501   502  0.000000000E+00  0.000000000E+00 -4.982274969E+02  4.982274969E+02  0.000000000E+00  0.00000E+00  9.000E+00
      25     1     1     2     0     0  1.031097973E+02  4.354095603E+01 -4.008556568E+02  4.345546027E+02  1.250000000E+02  0.00000E+00  9.000E+00
      25     1     1     2     0     0 -4.066590948E+01 -6.607512790E+01 -1.042869870E+01  1.474903267E+02  1.250000000E+02  0.00000E+00  9.000E+00
      21     1     1     2   501   511 -6.244388780E+01  2.253417187E+01  7.034017419E+02  7.065274506E+02  1.078959322E-05  0.00000E+00  9.000E+00
#rwgt            1           1   3.1913784281550311E-002          10      265399           0
</event>
<event>
      5   9999  3.79277E-02  1.41528E+02 -1.00000E+00  1.17403E-01
      21    -1     0     0   502   501  0.000000000E+00  0.000000000E+00  1.075021834E+02  1.075021834E+02  0.000000000E+00  0.00000E+00  9.000E+00
      21    -1     0     0   512   502  0.000000000E+00  0.000000000E+00 -1.198157125E+03  1.198157125E+03  0.000000000E+00  0.00000E+00  9.000E+00
      25     1     1     2     0     0 -1.819292760E+00 -1.305996325E+02 -3.144221969E+02  3.626925581E+02  1.250000000E+02  0.00000E+00  9.000E+00
      25     1     1     2     0     0  9.133846620E+01  2.402200364E+02 -1.980214401E+02  3.476864565E+02  1.250000000E+02  0.00000E+00  9.000E+00
      21     1     1     2   512   501 -8.951917344E+01 -1.096204039E+02 -5.782113049E+02  5.952802941E+02  7.629394531E-06  0.00000E+00  9.000E+00
#rwgt            2          11   1.0808721259100886E-003          10      265539           0
</event>
<event>
      5   9999  3.79277E-02  2.45372E+01 -1.00000E+00  1.59361E-01
      21    -1     0     0   502   501  0.000000000E+00  0.000000000E+00  4.481526538E+01  4.481526538E+01  0.000000000E+00  0.00000E+00  9.000E+00
      21    -1     0     0   511   502  0.000000000E+00  0.000000000E+00 -6.270556324E+02  6.270556324E+02  0.000000000E+00  0.00000E+00  9.000E+00
      25     1     1     2     0     0  6.644523202E+01  1.471169032E+01 -1.524369452E+02  2.085507731E+02  1.250000000E+02  0.00000E+00  9.000E+00
      25     1     1     2     0     0 -6.867226568E+01 -3.914760507E+01 -3.542951212E+02  3.839250552E+02  1.250000000E+02  0.00000E+00  9.000E+00
      21     1     1     2   511   501  2.227033656E+00  2.443591475E+01 -7.550830061E+01  7.939506955E+01  0.000000000E+00  0.00000E+00  9.000E+00
#rwgt            1           1   2.8254097623403526E-002          10      265559           0
</event>
<event>
      5   9999  3.79277E-02  1.86184E+01 -1.00000E+00  1.68976E-01
       1    -1     0     0   502     0  0.000000000E+00  0.000000000E+00  2.727167615E+03  2.727167615E+03  0.000000000E+00  0.00000E+00  9.000E+00
      21    -1     0     0   501   502  0.000000000E+00  0.000000000E+00 -2.306478138E+02  2.306478138E+02  0.000000000E+00  0.00000E+00  9.000E+00
      25     1     1     2     0     0 -7.334637575E+01  1.895827596E+02  4.710098716E+02  5.280119437E+02  1.250000000E+02  0.00000E+00  9.000E+00
      25     1     1     2     0     0  9.178015017E+01 -1.869675499E+02 -1.291184997E+02  2.750946158E+02  1.250000000E+02  0.00000E+00  9.000E+00
       1     1     1     2   501     0 -1.843377442E+01 -2.615209717E+00  2.154628430E+03  2.154708870E+03  3.051757812E-05  0.00000E+00  9.000E+00
#rwgt            1           1   3.9241985218110953E-002          10      265681           0
</event>
<event>
      5   9999 -3.79277E-02  6.93405E+01 -1.00000E+00  1.31429E-01
      21    -1     0     0   502   501  0.000000000E+00  0.000000000E+00  1.196905558E+02  1.196905558E+02  0.000000000E+00  0.00000E+00  9.000E+00
       2    -1     0     0   501     0  0.000000000E+00  0.000000000E+00 -1.100985553E+03  1.100985553E+03  0.000000000E+00  0.00000E+00  9.000E+00
      25     1     1     2     0     0  1.434288272E+02  8.215436322E+01 -6.039249240E+01  2.158550926E+02  1.250000000E+02  0.00000E+00  9.000E+00
      25     1     1     2     0     0 -1.787636433E+02 -2.249233909E+01 -2.592951491E+02  3.395899289E+02  1.250000000E+02  0.00000E+00  9.000E+00
       2     1     1     2   502     0  3.533481612E+01 -5.966202412E+01 -6.616073554E+02  6.652310870E+02  1.078959322E-05  0.00000E+00  9.000E+00
#rwgt            1           1 -0.12842888629198101               10      265974           0
</event>
<event>
      5   9999  3.79277E-02  9.77567E+01 -1.00000E+00  1.24273E-01
      21    -1     0     0   502   501  0.000000000E+00  0.000000000E+00  1.435808180E+03  1.435808180E+03  0.000000000E+00  0.00000E+00  9.000E+00
      21    -1     0     0   501   511  0.000000000E+00  0.000000000E+00 -4.901657710E+02  4.901657710E+02  0.000000000E+00  0.00000E+00  9.000E+00
      25     1     1     2     0     0 -3.292179575E+01 -4.298163415E+02  9.812514607E+02  1.079029824E+03  1.250000000E+02  0.00000E+00  9.000E+00
      25     1     1     2     0     0  1.095768104E+02  3.691502757E+02  2.958118065E+02  5.014066496E+02  1.250000000E+02  0.00000E+00  9.000E+00
      21     1     1     2   502   511 -7.665501468E+01  6.066606583E+01 -3.314208584E+02  3.455374772E+02  8.529922400E-06  0.00000E+00  9.000E+00
#rwgt            1           1  0.14433451331426039               10      266050           0
</event>
<event>
      5   9999  3.79277E-02  1.82851E+01 -1.00000E+00  1.69647E-01
      21    -1     0     0   502   501  0.000000000E+00  0.000000000E+00  1.105301900E+02  1.105301900E+02  0.000000000E+00  0.00000E+00  9.000E+00
      21    -1     0     0   501   512  0.000000000E+00  0.000000000E+00 -2.926493949E+02  2.926493949E+02  0.000000000E+00  0.00000E+00  9.000E+00
      25     1     1     2     0     0 -1.579338387E+01 -5.110724033E+01 -1.729506103E+02  2.199961240E+02  1.250000000E+02  0.00000E+00  9.000E+00
      25     1     1     2     0     0 -1.542491024E+00  4.529252162E+01  3.319455884E+01  1.370425866E+02  1.250000000E+02  0.00000E+00  9.000E+00
      21     1     1     2   502   512  1.733587490E+01  5.814718717E+00 -4.236315344E+01  4.614087431E+01  4.768371582E-07  0.00000E+00  9.000E+00
#rwgt            1           1   5.5670662622880306E-002          10      266135           0
</event>
<event>
      5   9999  3.79277E-02  2.47668E+01 -1.00000E+00  1.59056E-01
      21    -1     0     0   502   501  0.000000000E+00  0.000000000E+00  2.845335818E+02  2.845335818E+02  0.000000000E+00  0.00000E+00  9.000E+00
      21    -1     0     0   511   502  0.000000000E+00  0.000000000E+00 -2.227283606E+02  2.227283606E+02  0.000000000E+00  0.00000E+00  9.000E+00
      25     1     1     2     0     0 -1.919834450E+02 -4.531774655E+01  9.214117890E+01  2.510504693E+02  1.250000000E+02  0.00000E+00  9.000E+00
      25     1     1     2     0     0  1.706433702E+02  5.788745154E+01 -3.002798522E+00  2.193265457E+02  1.250000000E+02  0.00000E+00  9.000E+00
      21     1     1     2   511   501  2.134007478E+01 -1.256970499E+01 -2.733315917E+01  3.688492734E+01  7.539457465E-07  0.00000E+00  9.000E+00
#rwgt            1           1   3.9434861941945912E-002          10      266349           0
</event>
<event>
      5   9999  3.79277E-02  3.89826E+01 -1.00000E+00  1.45538E-01
      21    -1     0     0   502   501  0.000000000E+00  0.000000000E+00  6.968000264E+01  6.968000264E+01  0.000000000E+00  0.00000E+00  9.000E+00
      21    -1     0     0   512   502  0.000000000E+00  0.000000000E+00 -8.490971699E+02  8.490971699E+02  0.000000000E+00  0.00000E+00  9.000E+00
      25     1     1     2     0     0  5.041074540E+01 -1.522322225E+02 -3.427832636E+02  3.985489414E+02  1.250000000E+02  0.00000E+00  9.000E+00
      25     1     1     2     0     0 -5.541361705E+01  1.135719934E+02 -1.547846131E+02  2.356958699E+02  1.250000000E+02  0.00000E+00  9.000E+00
      21     1     1     2   512   501  5.002871642E+00  3.866022910E+01 -2.818492905E+02  2.845323613E+02  0.000000000E+00  0.00000E+00  9.000E+00
#rwgt            1           1   2.9119091609935716E-002          10      266593           0
</event>
<event>
      5   9999  3.79277E-02  1.14460E+02 -1.00000E+00  1.21246E-01
      21    -1     0     0   502   511  0.000000000E+00  0.000000000E+00  4.090935603E+02  4.090935603E+02  0.000000000E+00  0.00000E+00  9.000E+00
      21    -1     0     0   501   502  0.000000000E+00  0.000000000E+00 -5.187601945E+02  5.187601945E+02  0.000000000E+00  0.00000E+00  9.000E+00
      25     1     1     2     0     0  3.123886005E+01 -1.431780323E+02  1.247566311E+02  2.294886322E+02  1.250000000E+02  0.00000E+00  9.000E+00
      25     1     1     2     0     0 -1.427774227E+02  1.688732611E+02 -4.138181241E+02  4.855656605E+02  1.250000000E+02  0.00000E+00  9.000E+00
      21     1     1     2   501   511  1.115385627E+02 -2.569522880E+01  1.793948588E+02  2.127994622E+02  3.814697266E-06  0.00000E+00  9.000E+00
#rwgt            1           1   4.3802857205760930E-002          10      266762           0
</event>
<event>
      5   9999  3.79277E-02  9.31064E+01 -1.00000E+00  1.25239E-01
      21    -1     0     0   502   501  0.000000000E+00  0.000000000E+00  1.409709765E+02  1.409709765E+02  0.000000000E+00  0.00000E+00  9.000E+00
      21    -1     0     0   501   512  0.000000000E+00  0.000000000E+00 -1.153559715E+03  1.153559715E+03  0.000000000E+00  0.00000E+00  9.000E+00
      25     1     1     2     0     0 -4.712189047E+00  2.304461658E+02 -2.996074641E+02  3.981422768E+02  1.250000000E+02  0.00000E+00  9.000E+00
      25     1     1     2     0     0 -7.577696974E+01 -2.772468286E+02 -1.928729047E+02  3.680121064E+02  1.250000000E+02  0.00000E+00  9.000E+00
      21     1     1     2   502   512  8.048915879E+01  4.680066286E+01 -5.201083696E+02  5.283763080E+02  1.078959322E-05  0.00000E+00  9.000E+00
#rwgt            1           1   2.6455500343283419E-002          10      267042           0
</event>
<event>
      5   9999 -3.79277E-02  2.16791E+01 -1.00000E+00  1.63531E-01
      21    -1     0     0   502   511  0.000000000E+00  0.000000000E+00  9.019874678E+02  9.019874678E+02  0.000000000E+00  0.00000E+00  9.000E+00
      21    -1     0     0   501   502  0.000000000E+00  0.000000000E+00 -7.706711965E+01  7.706711965E+01  0.000000000E+00  0.00000E+00  9.000E+00
      25     1     1     2     0     0  2.491123899E+01 -8.014553414E+01  6.797506493E+02  6.962254101E+02  1.250000000E+02  0.00000E+00  9.000E+00
      25     1     1     2     0     0 -3.653633643E+00  8.439951193E+01  1.584424934E+01  1.516992646E+02  1.250000000E+02  0.00000E+00  9.000E+00
      21     1     1     2   501   511 -2.125760534E+01 -4.253977787E+00  1.293254495E+02  1.311299127E+02  0.000000000E+00  0.00000E+00  9.000E+00
#rwgt            1           1  -1.4495661235931859E-002          10      267197           0
</event>
<event>
      5   9999  3.79277E-02  2.32594E+01 -1.00000E+00  1.61135E-01
      21    -1     0     0   512   501  0.000000000E+00  0.000000000E+00  7.940541905E+02  7.940541905E+02  0.000000000E+00  0.00000E+00  9.000E+00
      21    -1     0     0   501   502  0.000000000E+00  0.000000000E+00 -5.143756962E+01  5.143756962E+01  0.000000000E+00  0.00000E+00  9.000E+00
      25     1     1     2     0     0 -9.489291047E+01 -8.185426523E+01  3.527943707E+02  3.947070473E+02  1.250000000E+02  0.00000E+00  9.000E+00
      25     1     1     2     0     0  7.898378387E+01  9.882181054E+01  2.375574466E+02  2.967536500E+02  1.250000000E+02  0.00000E+00  9.000E+00
      21     1     1     2   512   502  1.590912660E+01 -1.696754531E+01  1.522648036E+02  1.540310628E+02  1.907348633E-06  0.00000E+00  9.000E+00
#rwgt            1           1  0.15167011900092059               10      267358           0
</event>
<event>
      5   9999  3.79277E-02  1.15244E+01 -1.00000E+00  1.88894E-01
       1    -1     0     0   502     0  0.000000000E+00  0.000000000E+00  1.621758020E+02  1.621758020E+02  0.000000000E+00  0.00000E+00  9.000E+00
      21    -1     0     0   501   502  0.000000000E+00  0.000000000E+00 -3.699121590E+02  3.699121590E+02  0.000000000E+00  0.00000E+00  9.000E+00
      25     1     1     2     0     0  8.302808021E+01 -1.071853958E+02  1.583457458E+01  1.850894511E+02  1.250000000E+02  0.00000E+00  9.000E+00
      25     1     1     2     0     0 -9.105198012E+01  9.891326665E+01 -2.546107290E+02  3.138883889E+02  1.250000000E+02  0.00000E+00  9.000E+00
       1     1     1     2   501     0  8.023899907E+00  8.272129114E+00  3.103979737E+01  3.311012097E+01  7.539457465E-07  0.00000E+00  9.000E+00
#rwgt            1           1   4.2956699165465392E-002          10      267561           0
</event>
<event>
      5   9999  3.79277E-02  5.56287E+01 -1.00000E+00  1.36483E-01
      21    -1     0     0   502   511  0.000000000E+00  0.000000000E+00  1.533178995E+02  1.533178995E+02  0.000000000E+00  0.00000E+00  9.000E+00
      21    -1     0     0   501   502  0.000000000E+00  0.000000000E+00 -7.413320976E+02  7.413320976E+02  0.000000000E+00  0.00000E+00  9.000E+00
      25     1     1     2     0     0  2.775392305E+01  1.733596179E+01  9.761495435E+01  1.619397886E+02  1.250000000E+02  0.00000E+00  9.000E+00
      25     1     1     2     0     0  1.560765678E+01 -5.218313370E+01 -6.553310114E+02  6.693656795E+02  1.250000000E+02  0.00000E+00  9.000E+00
      21     1     1     2   501   511 -4.336157983E+01  3.484717191E+01 -3.029814107E+01  6.334452895E+01  5.840038640E-07  0.00000E+00  9.000E+00
#rwgt            1           1   4.0180333005004058E-002          10      267923           0
</event>
<event>
      5   9999  3.79277E-02  1.50841E+01 -1.00000E+00  1.77155E-01
      21    -1     0     0   512   501  0.000000000E+00  0.000000000E+00  6.239541737E+02  6.239541737E+02  0.000000000E+00  0.00000E+00  9.000E+00
      21    -1     0     0   501   502  0.000000000E+00  0.000000000E+00 -5.681260033E+01  5.681260033E+01  0.000000000E+00  0.00000E+00  9.000E+00
      25     1     1     2     0     0 -1.093956980E+02 -4.167032395E+00  3.796283631E+02  4.144001411E+02  1.250000000E+02  0.00000E+00  9.000E+00
      25     1     1     2     0     0  1.165194131E+02  1.746302430E+01  1.587979389E+02  2.339305800E+02  1.250000000E+02  0.00000E+00  9.000E+00
      21     1     1     2   512   502 -7.123715094E+00 -1.329599190E+01  2.871527134E+01  3.243605287E+01  7.539457465E-07  0.00000E+00  9.000E+00
#rwgt            1           1   4.7288684555141174E-002          10      268098           0
</event>
<event>
      5   9999  3.79277E-02  7.57816E+01 -1.00000E+00  1.29499E-01
      21    -1     0     0   511   501  0.000000000E+00  0.000000000E+00  2.638321628E+02  2.638321628E+02  0.000000000E+00  0.00000E+00  9.000E+00
      21    -1     0     0   501   502  0.000000000E+00  0.000000000E+00 -2.051514521E+02  2.051514521E+02  0.000000000E+00  0.00000E+00  9.000E+00
      25     1     1     2     0     0  1.249285399E+02  8.089940989E+01 -1.196472533E+01  1.947306069E+02  1.250000000E+02  0.00000E+00  9.000E+00
      25     1     1     2     0     0 -4.925279262E+01 -7.689541367E+01 -2.001565464E+01  1.560908987E+02  1.250000000E+02  0.00000E+00  9.000E+00
      21     1     1     2   511   502 -7.567574733E+01 -4.003996220E+00  9.066109061E+01  1.181621093E+02  0.000000000E+00  0.00000E+00  9.000E+00
#rwgt            1           1   4.0888172524626745E-002          10      268367           0
</event>
<event>
      5   9999  3.79277E-02  1.27731E+01 -1.00000E+00  1.84221E-01
      21    -1     0     0   512   501  0.000000000E+00  0.000000000E+00  8.475951663E+02  8.475951663E+02  0.000000000E+00  0.00000E+00  9.000E+00
      21    -1     0     0   501   502  0.000000000E+00  0.000000000E+00 -5.873125256E+02  5.873125256E+02  0.000000000E+00  0.00000E+00  9.000E+00
      25     1     1     2     0     0 -1.013486396E+02 -1.194139109E+02 -1.158270076E+02  2.314565285E+02  1.250000000E+02  0.00000E+00  9.000E+00
      25     1     1     2     0     0  8.945879611E+01  1.240813021E+02 -3.900304866E+02  4.372045588E+02  1.250000000E+02  0.00000E+00  9.000E+00
      21     1     1     2   512   502  1.188984353E+01 -4.667391211E+00  7.661401349E+02  7.662466047E+02  1.078959322E-05  0.00000E+00  9.000E+00
#rwgt            1           1   3.8156605388588748E-002          10      268437           0
</event>
<event>
      5   9999 -3.79277E-02  6.49813E+01 -1.00000E+00  1.32878E-01
      21    -1     0     0   502   501  0.000000000E+00  0.000000000E+00  1.024845550E+02  1.024845550E+02  0.000000000E+00  0.00000E+00  9.000E+00
      21    -1     0     0   511   502  0.000000000E+00  0.000000000E+00 -1.069241416E+03  1.069241416E+03  0.000000000E+00  0.00000E+00  9.000E+00
      25     1     1     2     0     0  4.271043816E+01 -1.696225564E+02 -4.279365278E+02  4.789056953E+02  1.250000000E+02  0.00000E+00  9.000E+00
      25     1     1     2     0     0 -7.543371230E+01  2.257630508E+02 -1.695019141E+02  3.178287258E+02  1.250000000E+02  0.00000E+00  9.000E+00
      21     1     1     2   511   501  3.272327413E+01 -5.614049447E+01 -3.693184194E+02  3.749915502E+02  5.394796609E-06  0.00000E+00  9.000E+00
#rwgt            1           1  -9.1040921958654417E-002          10      268663           0
</event>
<event>
      5   9999  3.79277E-02  1.12924E+01 -1.00000E+00  1.89846E-01
      21    -1     0     0   502   512  0.000000000E+00  0.000000000E+00  2.198629738E+02  2.198629738E+02  0.000000000E+00  0.00000E+00  9.000E+00
      21    -1     0     0   501   502  0.000000000E+00  0.000000000E+00 -1.771106932E+02  1.771106932E+02  0.000000000E+00  0.00000E+00  9.000E+00
      25     1     1     2     0     0  1.328104384E+02 -2.405868952E+01 -4.592307254E+01  1.896084430E+02  1.250000000E+02  0.00000E+00  9.000E+00
      25     1     1     2     0     0 -1.215360398E+02  2.342054636E+01  8.576229625E+01  1.957030976E+02  1.250000000E+02  0.00000E+00  9.000E+00
      21     1     1     2   501   512 -1.127439855E+01  6.381431625E-01  2.913056939E+00  1.166212631E+01  1.576990671E-07  0.00000E+00  9.000E+00
#rwgt            1           1   4.1521464242740495E-002          10      268741           0
</event>
<event>
      5   9999  3.79277E-02  6.53352E+01 -1.00000E+00  1.32756E-01
      21    -1     0     0   502   501  0.000000000E+00  0.000000000E+00  3.921708211E+02  3.921708211E+02  0.000000000E+00  0.00000E+00  9.000E+00
      21    -1     0     0   501   511  0.000000000E+00  0.000000000E+00 -2.831524313E+02  2.831524313E+02  0.000000000E+00  0.00000E+00  9.000E+00
      25     1     1     2     0     0  2.183687850E+02  1.997973532E+01  1.500796220E+02  2.936545743E+02  1.250000000E+02  0.00000E+00  9.000E+00
      25     1     1     2     0     0 -1.795540613E+02  3.257596867E+01  8.717280322E+01  2.377497682E+02  1.250000000E+02  0.00000E+00  9.000E+00
      21     1     1     2   502   511 -3.881472364E+01 -5.255570399E+01 -1.282340353E+02  1.439189098E+02  0.000000000E+00  0.00000E+00  9.000E+00
#rwgt            1           1   3.5749855219362678E-002          10      269096           0
</event>
<event>
      5   9999  3.79277E-02  3.27767E+01 -1.00000E+00  1.50417E-01
      21    -1     0     0   502   501  0.000000000E+00  0.000000000E+00  6.117838198E+01  6.117838198E+01  0.000000000E+00  0.00000E+00  9.000E+00
      21    -1     0     0   501   512  0.000000000E+00  0.000000000E+00 -4.940162655E+02  4.940162655E+02  0.000000000E+00  0.00000E+00  9.000E+00
      25     1     1     2     0     0 -8.076572484E+01  4.724742006E+01 -1.799584716E+02  2.382550577E+02  1.250000000E+02  0.00000E+00  9.000E+00
      25     1     1     2     0     0  5.420962560E+01 -6.645908342E+01 -1.697747527E+02  2.276048328E+02  1.250000000E+02  0.00000E+00  9.000E+00
      21     1     1     2   502   512  2.655609924E+01  1.921166336E+01 -8.310465919E+01  8.933475692E+01  0.000000000E+00  0.00000E+00  9.000E+00
#rwgt            1           1   3.8844445578412760E-002          10      269241           0
</event>
<event>
      5   9999  3.79277E-02  6.28719E+01 -1.00000E+00  1.33627E-01
      21    -1     0     0   502   501  0.000000000E+00  0.000000000E+00  4.393736092E+02  4.393736092E+02  0.000000000E+00  0.00000E+00  9.000E+00
      21    -1     0     0   501   511  0.000000000E+00  0.000000000E+00 -1.853966757E+02  1.853966757E+02  0.000000000E+00  0.00000E+00  9.000E+00
      25     1     1     2     0     0 -1.488896953E+02 -9.162134559E+00 -4.030158443E+01  1.987493491E+02  1.250000000E+02  0.00000E+00  9.000E+00
      25     1     1     2     0     0  1.753998467E+02  6.617163190E+01  2.836590432E+02  3.622585318E+02  1.250000000E+02  0.00000E+00  9.000E+00
      21     1     1     2   502   511 -2.651015135E+01 -5.700949734E+01  1.061947471E+01  6.376240393E+01  1.046057270E-06  0.00000E+00  9.000E+00
#rwgt            1           1   4.6107574609230519E-002          10      269471           0
</event>
<event>
      5   9999  3.79277E-02  1.03380E+02 -1.00000E+00  1.23182E-01
      21    -1     0     0   502   501  0.000000000E+00  0.000000000E+00  8.969310229E+02  8.969310229E+02  0.000000000E+00  0.00000E+00  9.000E+00
      21    -1     0     0   501   512  0.000000000E+00  0.000000000E+00 -4.359398167E+02  4.359398167E+02  0.000000000E+00  0.00000E+00  9.000E+00
      25     1     1     2     0     0  2.573756417E+02  4.188579441E+02  6.160991121E+02  7.980522001E+02  1.250000000E+02  0.00000E+00  9.000E+00
      25     1     1     2     0     0 -2.093589810E+02 -3.273062026E+02 -1.163013084E+02  4.243954848E+02  1.250000000E+02  0.00000E+00  9.000E+00
      21     1     1     2   502   512 -4.801666071E+01 -9.155174143E+01 -3.880659745E+01  1.104231546E+02  1.261592536E-06  0.00000E+00  9.000E+00
#rwgt            1           1   5.5122079812600477E-002          10      269612           0
</event>
<event>
      5   9999  3.79277E-02  6.03842E+01 -1.00000E+00  1.34555E-01
      21    -1     0     0   502   501  0.000000000E+00  0.000000000E+00  9.524375388E+02  9.524375388E+02  0.000000000E+00  0.00000E+00  9.000E+00
      21    -1     0     0   511   502  0.000000000E+00  0.000000000E+00 -5.175214832E+02  5.175214832E+02  0.000000000E+00  0.00000E+00  9.000E+00
      25     1     1     2     0     0  2.396023740E+02 -1.349760427E+02 -3.093500379E+02  4.323774690E+02  1.250000000E+02  0.00000E+00  9.000E+00
      25     1     1     2     0     0 -2.104804163E+02  8.207832625E+01  8.649337469E+02  9.026484608E+02  1.250000000E+02  0.00000E+00  9.000E+00
      21     1     1     2   511   501 -2.912195770E+01  5.289771640E+01 -1.206676533E+02  1.349330922E+02  0.000000000E+00  0.00000E+00  9.000E+00
#rwgt            1           1   3.2666735972530864E-002          10      269883           0
</event>
<event>
      5   9999  3.79277E-02  9.52378E+01 -1.00000E+00  1.24789E-01
      21    -1     0     0   502   501  0.000000000E+00  0.000000000E+00  1.468146542E+03  1.468146542E+03  0.000000000E+00  0.00000E+00  9.000E+00
      21    -1     0     0   512   502  0.000000000E+00  0.000000000E+00 -6.572518720E+02  6.572518720E+02  0.000000000E+00  0.00000E+00  9.000E+00
      25     1     1     2     0     0  1.589907192E+02  1.440901388E+02  7.236304615E+02  7.650529797E+02  1.250000000E+02  0.00000E+00  9.000E+00
      25     1     1     2     0     0 -1.822304962E+02 -5.173134401E+01  7.022579079E+02  7.380211751E+02  1.250000000E+02  0.00000E+00  9.000E+00
      21     1     1     2   512   501  2.323977699E+01 -9.235879481E+01 -6.149936990E+02  6.223242596E+02  7.629394531E-06  0.00000E+00  9.000E+00
#rwgt            1           1   2.8961699589446738E-002          10      270068           0
</event>
<event>
      5   9999  3.79277E-02  8.61761E+00 -1.00000E+00  2.03536E-01
      21    -1     0     0   502   501  0.000000000E+00  0.000000000E+00  1.437569271E+03  1.437569271E+03  0.000000000E+00  0.00000E+00  9.000E+00
      21    -1     0     0   511   502  0.000000000E+00  0.000000000E+00 -4.182271522E+01  4.182271522E+01  0.000000000E+00  0.00000E+00  9.000E+00
      25     1     1     2     0     0  9.121638431E+00  1.085942107E+02  1.570505444E+02  2.283982932E+02  1.250000000E+02  0.00000E+00  9.000E+00
      25     1     1     2     0     0 -3.683048065E+00 -1.019095334E+02  1.217056811E+03  1.227701674E+03  1.250000000E+02  0.00000E+00  9.000E+00
      21     1     1     2   511   501 -5.438590366E+00 -6.684677243E+00  2.163919972E+01  2.329201880E+01  0.000000000E+00  0.00000E+00  9.000E+00
#rwgt            1           1   3.7230906748298077E-002          10      270130           0
</event>
<event>
      5   9999  3.79277E-02  1.83107E+02 -1.00000E+00  1.13061E-01
      21    -1     0     0   502   501  0.000000000E+00  0.000000000E+00  5.980997519E+01  5.980997519E+01  0.000000000E+00  0.00000E+00  9.000E+00
      21    -1     0     0   501   512  0.000000000E+00  0.000000000E+00 -1.588944853E+03  1.588944853E+03  0.000000000E+00  0.00000E+00  9.000E+00
      25     1     1     2     0     0  4.068578900E+01  1.636012747E+01 -5.040792092E+02  5.211946242E+02  1.250000000E+02  0.00000E+00  9.000E+00
      25     1     1     2     0     0 -1.684107985E+02 -1.475636967E+02 -3.909876805E+02  4.675827284E+02  1.250000000E+02  0.00000E+00  9.000E+00
      21     1     1     2   502   512  1.277250095E+02  1.312035692E+02 -6.340679885E+02  6.599774759E+02  1.078959322E-05  0.00000E+00  9.000E+00
#rwgt            1           1   5.1636445381386592E-002          10      270534           0
</event>
<event>
      5   9999  3.79277E-02  1.12317E+02 -1.00000E+00  1.21601E-01
      21    -1     0     0   511   501  0.000000000E+00  0.000000000E+00  9.131366905E+01  9.131366905E+01  0.000000000E+00  0.00000E+00  9.000E+00
      21    -1     0     0   501   502  0.000000000E+00  0.000000000E+00 -1.771120509E+03  1.771120509E+03  0.000000000E+00  0.00000E+00  9.000E+00
      25     1     1     2     0     0 -1.361204551E+01 -1.173063566E+02 -1.410442943E+02  2.224062995E+02  1.250000000E+02  0.00000E+00  9.000E+00
      25     1     1     2     0     0 -9.842421586E+01  1.093738370E+02 -1.512380937E+03  1.524654407E+03  1.250000000E+02  0.00000E+00  9.000E+00
      21     1     1     2   511   502  1.120362614E+02  7.932519614E+00 -2.638160908E+01  1.153734719E+02  2.697398305E-06  0.00000E+00  9.000E+00
#rwgt            1           1   5.9365819033908751E-002          10      270629           0
</event>
<event>
      5   9999  3.79277E-02  2.83066E+01 -1.00000E+00  1.54813E-01
      21    -1     0     0   502   512  0.000000000E+00  0.000000000E+00  3.651660880E+02  3.651660880E+02  0.000000000E+00  0.00000E+00  9.000E+00
      21    -1     0     0   501   502  0.000000000E+00  0.000000000E+00 -1.656114205E+02  1.656114205E+02  0.000000000E+00  0.00000E+00  9.000E+00
      25     1     1     2     0     0  5.947072886E+01 -1.227102334E+02 -4.623229865E+01  1.906751017E+02  1.250000000E+02  0.00000E+00  9.000E+00
      25     1     1     2     0     0 -6.731528571E+01  1.499081616E+02  2.214920626E+02  3.027995019E+02  1.250000000E+02  0.00000E+00  9.000E+00
      21     1     1     2   501   512  7.844556850E+00 -2.719792813E+01  2.429490361E+01  3.730290482E+01  3.371747881E-07  0.00000E+00  9.000E+00
#rwgt            1           1   2.3254754537167514E-002          10      270685           0
</event>
<event>
      5   9999  3.79277E-02  2.46910E+02 -1.00000E+00  1.08415E-01
      21    -1     0     0   502   501  0.000000000E+00  0.000000000E+00  1.369111152E+02  1.369111152E+02  0.000000000E+00  0.00000E+00  9.000E+00
      21    -1     0     0   511   502  0.000000000E+00  0.000000000E+00 -1.113476113E+03  1.113476113E+03  0.000000000E+00  0.00000E+00  9.000E+00
      25     1     1     2     0     0 -2.076604092E+02  2.291560296E+01 -3.034075889E+02  3.890104567E+02  1.250000000E+02  0.00000E+00  9.000E+00
      25     1     1     2     0     0 -3.570505151E+00 -1.507680890E+02 -6.726696767E+01  2.071077258E+02  1.250000000E+02  0.00000E+00  9.000E+00
      21     1     1     2   511   501  2.112309143E+02  1.278524860E+02 -6.058904415E+02  6.542690459E+02  0.000000000E+00  0.00000E+00  9.000E+00
#rwgt            1           1   4.1615154187804509E-002          10      270897           0
</event>
<event>
      5   9999  3.79277E-02  2.99360E+01 -1.00000E+00  1.53104E-01
      21    -1     0     0   502   512  0.000000000E+00  0.000000000E+00  7.542567955E+01  7.542567955E+01  0.000000000E+00  0.00000E+00  9.000E+00
      21    -1     0     0   501   502  0.000000000E+00  0.000000000E+00 -9.092922584E+02  9.092922584E+02  0.000000000E+00  0.00000E+00  9.000E+00
      25     1     1     2     0     0 -2.230797223E+02  1.629749894E+01 -4.377688757E+02  5.072442799E+02  1.250000000E+02  0.00000E+00  9.000E+00
      25     1     1     2     0     0  2.006556430E+02  3.534979593E+00 -3.578863895E+02  4.289322218E+02  1.250000000E+02  0.00000E+00  9.000E+00
      21     1     1     2   501   512  2.242407934E+01 -1.983247853E+01 -3.821131367E+01  4.854143623E+01  4.768371582E-07  0.00000E+00  9.000E+00
#rwgt            1           1   3.9914528070958959E-002          10      270957           0
</event>
<event>
      5   9999 -3.79277E-02  1.27148E+01 -1.00000E+00  1.84424E-01
       1    -1     0     0   502     0  0.000000000E+00  0.000000000E+00  3.642579549E+02  3.642579549E+02  0.000000000E+00  0.00000E+00  9.000E+00
      21    -1     0     0   501   502  0.000000000E+00  0.000000000E+00 -3.743989595E+02  3.743989595E+02  0.000000000E+00  0.00000E+00  9.000E+00
      25     1     1     2     0     0  4.484070152E+01 -2.501961624E+02 -2.016553708E+02  3.477048990E+02  1.250000000E+02  0.00000E+00  9.000E+00
      25     1     1     2     0     0 -5.097153385E+01  2.390571246E+02  9.039657430E+01  2.890379677E+02  1.250000000E+02  0.00000E+00  9.000E+00
       1     1     1     2   501     0  6.130832325E+00  1.113903776E+01  1.011177920E+02  1.019140477E+02  1.348699152E-06  0.00000E+00  9.000E+00
#rwgt            1           1 -0.38977415335999333               10      271127           0
</event>
<event>
      5   9999  3.79277E-02  1.15256E+01 -1.00000E+00  1.88889E-01
      21    -1     0     0   502   511  0.000000000E+00  0.000000000E+00  8.070305861E+02  8.070305861E+02  0.000000000E+00  0.00000E+00  9.000E+00
      21    -1     0     0   501   502  0.000000000E+00  0.000000000E+00 -4.220701978E+01  4.220701978E+01  0.000000000E+00  0.00000E+00  9.000E+00
      25     1     1     2     0     0 -1.561309021E+01 -1.259419924E+02  3.208138845E+02  3.669491825E+02  1.250000000E+02  0.00000E+00  9.000E+00
      25     1     1     2     0     0  9.438447252E+00  1.162098924E+02  3.723948133E+02  4.097520230E+02  1.250000000E+02  0.00000E+00  9.000E+00
      21     1     1     2   501   511  6.174642954E+00  9.732100011E+00  7.161486851E+01  7.253640037E+01  1.348699152E-06  0.00000E+00  9.000E+00
#rwgt            1           1  0.29831422241739519               10      271410           0
</event>
<event>
      5   9999  3.79277E-02  1.70277E+02 -1.00000E+00  1.14252E-01
      21    -1     0     0   502   512  0.000000000E+00  0.000000000E+00  1.102810944E+02  1.102810944E+02  0.000000000E+00  0.00000E+00  9.000E+00
      21    -1     0     0   501   502  0.000000000E+00  0.000000000E+00 -1.393603025E+03  1.393603025E+03  0.000000000E+00  0.00000E+00  9.000E+00
      25     1     1     2     0     0  8.987028913E+01 -1.761646844E+02 -3.146887540E+02  3.921283933E+02  1.250000000E+02  0.00000E+00  9.000E+00
      25     1     1     2     0     0 -7.798589646E+01  6.302958170E+00 -9.240445111E+02  9.357375624E+02  1.250000000E+02  0.00000E+00  9.000E+00
      21     1     1     2   501   512 -1.188439267E+01  1.698617262E+02 -4.458866550E+01  1.760181636E+02  5.001110307E-06  0.00000E+00  9.000E+00
#rwgt            1           1   4.0880537793036076E-002          10      271748           0
</event>
<event>
      5   9999  3.79277E-02  6.64352E+01 -1.00000E+00  1.32381E-01
      21    -1     0     0   502   511  0.000000000E+00  0.000000000E+00  5.596479806E+02  5.596479806E+02  0.000000000E+00  0.00000E+00  9.000E+00
      21    -1     0     0   501   502  0.000000000E+00  0.000000000E+00 -1.317498731E+02  1.317498731E+02  0.000000000E+00  0.00000E+00  9.000E+00
      25     1     1     2     0     0 -1.160602718E+02 -1.375203992E+02  6.465049144E+01  2.284437194E+02  1.250000000E+02  0.00000E+00  9.000E+00
      25     1     1     2     0     0  1.572538531E+02  8.539820912E+01  3.017542682E+02  3.724275323E+02  1.250000000E+02  0.00000E+00  9.000E+00
      21     1     1     2   501   511 -4.119358130E+01  5.212219013E+01  6.149334779E+01  9.052660198E+01  1.168007728E-06  0.00000E+00  9.000E+00
#rwgt            1           1   4.8377828827516206E-002          10      271843           0
</event>
<event>
      5   9999  3.79277E-02  7.08220E+01 -1.00000E+00  1.30964E-01
      21    -1     0     0   502   501  0.000000000E+00  0.000000000E+00  2.169502721E+03  2.169502721E+03  0.000000000E+00  0.00000E+00  9.000E+00
      21    -1     0     0   512   502  0.000000000E+00  0.000000000E+00 -4.635921132E+02  4.635921132E+02  0.000000000E+00  0.00000E+00  9.000E+00
      25     1     1     2     0     0  2.757419824E+01 -8.958960480E+01  1.453764871E+03  1.462136770E+03  1.250000000E+02  0.00000E+00  9.000E+00
      25     1     1     2     0     0 -9.545731720E+01  1.097797163E+02  6.957663463E+02  7.217198169E+02  1.250000000E+02  0.00000E+00  9.000E+00
      21     1     1     2   512   501  6.788311896E+01 -2.019011151E+01 -4.436206091E+02  4.492382477E+02  5.394796609E-06  0.00000E+00  9.000E+00
#rwgt            1           1   9.5033425816473616E-002          10      271997           0
</event>
<event>
      5   9999 -3.79277E-02  3.03801E+01 -1.00000E+00  1.52661E-01
      21    -1     0     0   502   501  0.000000000E+00  0.000000000E+00  5.727986184E+01  5.727986184E+01  0.000000000E+00  0.00000E+00  9.000E+00
      21    -1     0     0   501   511  0.000000000E+00  0.000000000E+00 -1.051202922E+03  1.051202922E+03  0.000000000E+00  0.00000E+00  9.000E+00
      25     1     1     2     0     0 -2.178803545E+01 -1.859165880E+02 -5.337858344E+02  5.793030409E+02  1.250000000E+02  0.00000E+00  9.000E+00
      25     1     1     2     0     0  2.853884708E+01  1.562960112E+02 -2.735933324E+02  3.401782186E+02  1.250000000E+02  0.00000E+00  9.000E+00
      21     1     1     2   502   511 -6.750811627E+00  2.962057679E+01 -1.865438934E+02  1.890015243E+02  2.697398305E-06  0.00000E+00  9.000E+00
#rwgt            1           1 -0.16965648859950755               10      272100           0
</event>
<event>
      5   9999  3.79277E-02  7.99518E+01 -1.00000E+00  1.28362E-01
      21    -1     0     0   502   501  0.000000000E+00  0.000000000E+00  1.819655409E+02  1.819655409E+02  0.000000000E+00  0.00000E+00  9.000E+00
       1    -1     0     0   501     0  0.000000000E+00  0.000000000E+00 -3.663457616E+02  3.663457616E+02  0.000000000E+00  0.00000E+00  9.000E+00
      25     1     1     2     0     0  1.330267501E+02  2.136294992E+01 -8.985708302E+01  2.045770936E+02  1.250000000E+02  0.00000E+00  9.000E+00
      25     1     1     2     0     0 -2.022723361E+02  1.860379282E+01 -2.880473428E+01  2.402392803E+02  1.250000000E+02  0.00000E+00  9.000E+00
       1     1     1     2   502     0  6.924558601E+01 -3.996674273E+01 -6.571840330E+01  1.034949286E+02  1.348699152E-06  0.00000E+00  9.000E+00
#rwgt            1           1   1.4854313447526683E-002          10      272240           0
</event>
<event>
      5   9999  3.79277E-02  1.42305E+01 -1.00000E+00  1.79566E-01
      21    -1     0     0   511   501  0.000000000E+00  0.000000000E+00  2.879645616E+02  2.879645616E+02  0.000000000E+00  0.00000E+00  9.000E+00
      21    -1     0     0   501   502  0.000000000E+00  0.000000000E+00 -2.030024207E+02  2.030024207E+02  0.000000000E+00  0.00000E+00  9.000E+00
      25     1     1     2     0     0  9.100737549E+01  1.489922861E+02 -5.155747967E+01  2.208262154E+02  1.250000000E+02  0.00000E+00  9.000E+00
      25     1     1     2     0     0 -8.084362687E+01 -1.589525232E+02  1.339675439E+02  2.556832013E+02  1.250000000E+02  0.00000E+00  9.000E+00
      21     1     1     2   511   502 -1.016374862E+01  9.960237053E+00  2.552076696E+00  1.445756562E+01  1.429269172E-07  0.00000E+00  9.000E+00
#rwgt            1           1   4.0472293951457898E-002          10      272321           0
</event>
<event>
      5   9999  3.79277E-02  3.30321E+02 -1.00000E+00  1.04251E-01
      21    -1     0     0   502   501  0.000000000E+00  0.000000000E+00  1.655089357E+02  1.655089357E+02  0.000000000E+00  0.00000E+00  9.000E+00
      21    -1     0     0   501   512  0.000000000E+00  0.000000000E+00 -1.284861628E+03  1.284861628E+03  0.000000000E+00  0.00000E+00  9.000E+00
      25     1     1     2     0     0  2.456632827E+02  3.776429844E+01 -7.280049641E+01  2.875786901E+02  1.250000000E+02  0.00000E+00  9.000E+00
      25     1     1     2     0     0  5.506240365E+01  9.889523744E+01 -2.625082605E+02  3.120059665E+02  1.250000000E+02  0.00000E+00  9.000E+00
      21     1     1     2   502   512 -3.007256864E+02 -1.366595359E+02 -7.840439355E+02  8.507859073E+02  1.078959322E-05  0.00000E+00  9.000E+00
#rwgt            1           1   3.8457970609529137E-002          10      272575           0
</event>
<event>
      5   9999  3.79277E-02  1.90743E+01 -1.00000E+00  1.68085E-01
       3    -1     0     0   502     0  0.000000000E+00  0.000000000E+00  1.779509610E+03  1.779509610E+03  0.000000000E+00  0.00000E+00  9.000E+00
      21    -1     0     0   501   502  0.000000000E+00  0.000000000E+00 -2.752271035E+01  2.752271035E+01  0.000000000E+00  0.00000E+00  9.000E+00
      25     1     1     2     0     0 -1.130054639E+02  4.199064305E+00  6.451185293E+02  6.667764122E+02  1.250000000E+02  0.00000E+00  9.000E+00
      25     1     1     2     0     0  1.152230460E+02  1.474584825E+01  4.230135411E+02  4.561351185E+02  1.250000000E+02  0.00000E+00  9.000E+00
       3     1     1     2   501     0 -2.217582043E+00 -1.894491256E+01  6.838548292E+02  6.841207896E+02  1.525878906E-05  0.00000E+00  9.000E+00
#rwgt            1           1   4.2226331371605037E-002          10      272637           0
</event>
<event>
      5   9999  3.79277E-02  1.01538E+01 -1.00000E+00  1.94994E-01
      21    -1     0     0   511   501  0.000000000E+00  0.000000000E+00  5.118768428E+01  5.118768428E+01  0.000000000E+00  0.00000E+00  9.000E+00
      21    -1     0     0   501   502  0.000000000E+00  0.000000000E+00 -1.851552413E+03  1.851552413E+03  0.000000000E+00  0.00000E+00  9.000E+00
      25     1     1     2     0     0  5.625110260E+01 -2.939823073E+01 -1.731609461E+03  1.737275098E+03  1.250000000E+02  0.00000E+00  9.000E+00
      25     1     1     2     0     0 -4.689260199E+01  3.333763512E+01 -7.132340204E+01  1.549914247E+02  1.250000000E+02  0.00000E+00  9.000E+00
      21     1     1     2   511   502 -9.358500606E+00 -3.939404387E+00  2.568134335E+00  1.047357410E+01  7.638934623E-07  0.00000E+00  9.000E+00
#rwgt            1           1   3.5880512973917464E-002          10      272876           0
</event>
<event>
      5   9999  3.79277E-02  4.99090E+01 -1.00000E+00  1.39121E-01
      21    -1     0     0   512   501  0.000000000E+00  0.000000000E+00  5.191492268E+01  5.191492268E+01  0.000000000E+00  0.00000E+00  9.000E+00
      21    -1     0     0   501   502  0.000000000E+00  0.000000000E+00 -1.070177037E+03  1.070177037E+03  0.000000000E+00  0.00000E+00  9.000E+00
      25     1     1     2     0     0 -3.288866703E+00 -9.867911981E+01 -1.433001518E+02  2.142622665E+02  1.250000000E+02  0.00000E+00  9.000E+00
      25     1     1     2     0     0 -4.581876182E+01  8.977110413E+01 -8.107748270E+02  8.265222502E+02  1.250000000E+02  0.00000E+00  9.000E+00
      21     1     1     2   512   502  4.910762852E+01  8.908015682E+00 -6.418713583E+01  8.130744326E+01  9.536743164E-07  0.00000E+00  9.000E+00
#rwgt            1           1   4.2592078203460497E-002          10      273160           0
</event>
<event>
      5   9999  3.79277E-02  2.12466E+01 -1.00000E+00  1.64231E-01
      21    -1     0     0   502   501  0.000000000E+00  0.000000000E+00  2.031626750E+02  2.031626750E+02  0.000000000E+00  0.00000E+00  9.000E+00
      21    -1     0     0   511   502  0.000000000E+00  0.000000000E+00 -2.602792305E+02  2.602792305E+02  0.000000000E+00  0.00000E+00  9.000E+00
      25     1     1     2     0     0  7.701788952E+01  7.735256387E+01  1.170718478E+02  2.030910928E+02  1.250000000E+02  0.00000E+00  9.000E+00
      25     1     1     2     0     0 -5.645254997E+01 -7.201542470E+01 -1.029269176E+02  1.859894141E+02  1.250000000E+02  0.00000E+00  9.000E+00
      21     1     1     2   511   501 -2.056533955E+01 -5.337139165E+00 -7.126148571E+01  7.436139853E+01  9.536743164E-07  0.00000E+00  9.000E+00
#rwgt            1           1   5.0015364671448313E-002          10      273439           0
</event>
<event>
      5   9999  3.79277E-02  1.47083E+01 -1.00000E+00  1.78191E-01
      21    -1     0     0   502   501  0.000000000E+00  0.000000000E+00  1.274650272E+02  1.274650272E+02  0.000000000E+00  0.00000E+00  9.000E+00
      21    -1     0     0   512   502  0.000000000E+00  0.000000000E+00 -1.632183392E+03  1.632183392E+03  0.000000000E+00  0.00000E+00  9.000E+00
      25     1     1     2     0     0  7.623455331E+01  1.314953824E+02 -8.919254041E+00  1.969956746E+02  1.250000000E+02  0.00000E+00  9.000E+00
      25     1     1     2     0     0 -6.368645274E+01 -1.391685750E+02 -2.590468386E+02  3.258130156E+02  1.250000000E+02  0.00000E+00  9.000E+00
      21     1     1     2   512   501 -1.254810058E+01  7.673192534E+00 -1.236752272E+03  1.236839729E+03  1.525878906E-05  0.00000E+00  9.000E+00
#rwgt            1           1   4.2913152309405823E-002          10      273600           0
</event>
<event>
      5   9999  3.79277E-02  8.89251E+01 -1.00000E+00  1.26165E-01
      21    -1     0     0   511   501  0.000000000E+00  0.000000000E+00  3.290457557E+02  3.290457557E+02  0.000000000E+00  0.00000E+00  9.000E+00
      21    -1     0     0   501   502  0.000000000E+00  0.000000000E+00 -3.611747298E+02  3.611747298E+02  0.000000000E+00  0.00000E+00  9.000E+00
      25     1     1     2     0     0  1.173202261E+02 -1.059914462E+02 -4.266487166E+01  2.060182356E+02  1.250000000E+02  0.00000E+00  9.000E+00
      25     1     1     2     0     0 -9.682092371E+01  1.946140435E+01 -1.999797357E+02  2.556754431E+02  1.250000000E+02  0.00000E+00  9.000E+00
      21     1     1     2   511   502 -2.049930240E+01  8.653004186E+01  2.105156333E+02  2.285268067E+02  2.697398305E-06  0.00000E+00  9.000E+00
#rwgt            1           1   4.1160140714652967E-002          10      273879           0
</event>
<event>
      5   9999  3.79277E-02  7.33929E+01 -1.00000E+00  1.30188E-01
      21    -1     0     0   502   501  0.000000000E+00  0.000000000E+00  5.547468387E+02  5.547468387E+02  0.000000000E+00  0.00000E+00  9.000E+00
      21    -1     0     0   512   502  0.000000000E+00  0.000000000E+00 -1.926267715E+02  1.926267715E+02  0.000000000E+00  0.00000E+00  9.000E+00
      25     1     1     2     0     0 -2.219488907E+02 -1.045088259E+02  2.603699815E+02  3.789471362E+02  1.250000000E+02  0.00000E+00  9.000E+00
      25     1     1     2     0     0  1.520994935E+02  1.270384847E+02  1.521720492E+02  2.793821130E+02  1.250000000E+02  0.00000E+00  9.000E+00
      21     1     1     2   512   501  6.984939729E+01 -2.252965884E+01 -5.042196341E+01  8.904436099E+01  1.784161275E-06  0.00000E+00  9.000E+00
#rwgt            1           1   4.0466556996000727E-002          10      274016           0
</event>
<event>
      5   9999  3.79277E-02  1.53825E+02 -1.00000E+00  1.15962E-01
       2    -1     0     0   502     0  0.000000000E+00  0.000000000E+00  6.764788729E+02  6.764788729E+02  0.000000000E+00  0.00000E+00  9.000E+00
      21    -1     0     0   501   502  0.000000000E+00  0.000000000E+00 -5.033744054E+02  5.033744054E+02  0.000000000E+00  0.00000E+00  9.000E+00
      25     1     1     2     0     0  1.050162616E+02 -4.003993915E+02 -1.557261025E+02  4.595908038E+02  1.250000000E+02  0.00000E+00  9.000E+00
      25     1     1     2     0     0  2.225245990E+01  3.140009509E+02 -1.972545840E+01  3.392725495E+02  1.250000000E+02  0.00000E+00  9.000E+00
       2     1     1     2   501     0 -1.272687215E+02  8.639844065E+01  3.485560285E+02  3.809899250E+02  5.394796609E-06  0.00000E+00  9.000E+00
#rwgt            2          18   3.3358114061113060E-004          10      274298           0
</event>
<event>
      5   9999  3.79277E-02  9.12468E+01 -1.00000E+00  1.25644E-01
      21    -1     0     0   502   501  0.000000000E+00  0.000000000E+00  1.302959332E+03  1.302959332E+03  0.000000000E+00  0.00000E+00  9.000E+00
       2    -1     0     0   501     0  0.000000000E+00  0.000000000E+00 -7.130002884E+02  7.130002884E+02  0.000000000E+00  0.00000E+00  9.000E+00
      25     1     1     2     0     0  2.460813340E+01 -5.881668372E+01 -5.700897623E+01  1.514595190E+02  1.250000000E+02  0.00000E+00  9.000E+00
      25     1     1     2     0     0  6.529580295E+01  7.441347128E+01  1.247210211E+03  1.257362007E+03  1.250000000E+02  0.00000E+00  9.000E+00
       2     1     1     2   502     0 -8.990393634E+01 -1.559678756E+01 -6.002421911E+02  6.071380943E+02  7.629394531E-06  0.00000E+00  9.000E+00
#rwgt            1           1   3.2267897972777994E-002          10      274407           0
</event>
<event>
      5   9999  3.79277E-02  9.34588E+00 -1.00000E+00  1.99216E-01
      21    -1     0     0   502   501  0.000000000E+00  0.000000000E+00  9.927485806E+01  9.927485806E+01  0.000000000E+00  0.00000E+00  9.000E+00
      21    -1     0     0   501   511  0.000000000E+00  0.000000000E+00 -5.583698017E+02  5.583698017E+02  0.000000000E+00  0.00000E+00  9.000E+00
      25     1     1     2     0     0 -2.767089302E+01  1.400941714E+02 -4.226089656E+01  1.944300351E+02  1.250000000E+02  0.00000E+00  9.000E+00
      25     1     1     2     0     0  1.976003636E+01 -1.450705033E+02 -3.931461042E+02  4.377496650E+02  1.250000000E+02  0.00000E+00  9.000E+00
      21     1     1     2   502   511  7.910856663E+00  4.976331894E+00 -2.368794289E+01  2.546495966E+01  3.371747881E-07  0.00000E+00  9.000E+00
#rwgt            1           1   4.6102000614943989E-002          10      274492           0
</event>
<event>
      5   9999  3.79277E-02  2.74629E+01 -1.00000E+00  1.55754E-01
      21    -1     0     0   502   501  0.000000000E+00  0.000000000E+00  4.710836619E+01  4.710836619E+01  0.000000000E+00  0.00000E+00  9.000E+00
      21    -1     0     0   501   512  0.000000000E+00  0.000000000E+00 -2.565499413E+03  2.565499413E+03  0.000000000E+00  0.00000E+00  9.000E+00
      25     1     1     2     0     0  1.386840995E+02  5.414753309E+01 -1.035178412E+03  1.053273269E+03  1.250000000E+02  0.00000E+00  9.000E+00
      25     1     1     2     0     0 -1.419323065E+02 -8.141767526E+01 -2.416981656E+02  3.175163314E+02  1.250000000E+02  0.00000E+00  9.000E+00
      21     1     1     2   502   512  3.248207006E+00  2.727014217E+01 -1.241514469E+03  1.241818178E+03  0.000000000E+00  0.00000E+00  9.000E+00
#rwgt            1           1   4.9117709098735474E-002          10      274773           0
</event>
<event>
      5   9999  3.79277E-02  2.26866E+01 -1.00000E+00  1.61976E-01
      21    -1     0     0   511   501  0.000000000E+00  0.000000000E+00  2.612839216E+02  2.612839216E+02  0.000000000E+00  0.00000E+00  9.000E+00
      21    -1     0     0   501   502  0.000000000E+00  0.000000000E+00 -3.000324672E+02  3.000324672E+02  0.000000000E+00  0.00000E+00  9.000E+00
      25     1     1     2     0     0  3.904806223E+00  1.549603646E+02 -2.359591403E+01  2.005236376E+02  1.250000000E+02  0.00000E+00  9.000E+00
      25     1     1     2     0     0  1.876442160E+01 -1.540719320E+02 -1.337733769E+02  2.400220409E+02  1.250000000E+02  0.00000E+00  9.000E+00
      21     1     1     2   511   502 -2.266922782E+01 -8.884325447E-01  1.186207454E+02  1.207707102E+02  2.336015456E-06  0.00000E+00  9.000E+00
#rwgt            1           1   2.9049305260321946E-002          10      274913           0
</event>
<event>
      5   9999  3.79277E-02  2.19289E+01 -1.00000E+00  1.63136E-01
      21    -1     0     0   512   501  0.000000000E+00  0.000000000E+00  3.656164698E+02  3.656164698E+02  0.000000000E+00  0.00000E+00  9.000E+00
      21    -1     0     0   501   502  0.000000000E+00  0.000000000E+00 -1.809165526E+02  1.809165526E+02  0.000000000E+00  0.00000E+00  9.000E+00
      25     1     1     2     0     0  1.777567109E+02  1.686490655E+01 -2.637415501E+00  2.179766715E+02  1.250000000E+02  0.00000E+00  9.000E+00
      25     1     1     2     0     0 -1.679024948E+02 -3.645497897E+01  9.340536264E+01  2.320986321E+02  1.250000000E+02  0.00000E+00  9.000E+00
      21     1     1     2   512   502 -9.854216136E+00  1.959007242E+01  9.393197010E+01  9.645771882E+01  0.000000000E+00  0.00000E+00  9.000E+00
#rwgt            1           1   3.5742655721051682E-002          10      275060           0
</event>
<event>
      5   9999  3.79277E-02  8.55418E+01 -1.00000E+00  1.26957E-01
      21    -1     0     0   502   501  0.000000000E+00  0.000000000E+00  2.765065140E+02  2.765065140E+02  0.000000000E+00  0.00000E+00  9.000E+00
      21    -1     0     0   501   511  0.000000000E+00  0.000000000E+00 -1.686488164E+03  1.686488164E+03  0.000000000E+00  0.00000E+00  9.000E+00
      25     1     1     2     0     0  3.745221897E+02  1.275189463E+02 -1.949448748E+02  4.584282457E+02  1.250000000E+02  0.00000E+00  9.000E+00
      25     1     1     2     0     0 -3.516970307E+02 -4.507858416E+01 -1.037816024E+02  3.900237187E+02  1.250000000E+02  0.00000E+00  9.000E+00
      21     1     1     2   502   511 -2.282515895E+01 -8.244036217E+01 -1.111255173E+03  1.114542714E+03  1.525878906E-05  0.00000E+00  9.000E+00
#rwgt            1           1   3.9723199348020544E-002          10      275250           0
</event>
<event>
      5   9999  3.79277E-02  1.51186E+01 -1.00000E+00  1.77062E-01
      21    -1     0     0   502   512  0.000000000E+00  0.000000000E+00  1.713804441E+02  1.713804441E+02  0.000000000E+00  0.00000E+00  9.000E+00
      21    -1     0     0   501   502  0.000000000E+00  0.000000000E+00 -6.075155772E+02  6.075155772E+02  0.000000000E+00  0.00000E+00  9.000E+00
      25     1     1     2     0     0 -1.531785401E+02  7.995023064E+01 -2.089182565E+02  2.985423629E+02  1.250000000E+02  0.00000E+00  9.000E+00
      25     1     1     2     0     0  1.680426195E+02 -8.271273147E+01 -3.172609769E+02  3.890491555E+02  1.250000000E+02  0.00000E+00  9.000E+00
      21     1     1     2   501   512 -1.486407941E+01  2.762500828E+00  9.004410028E+01  9.130450297E+01  1.651812370E-06  0.00000E+00  9.000E+00
#rwgt            1           1   4.6020729120613467E-002          10      275357           0
</event>
<event>
      5   9999  3.79277E-02  7.29247E+01 -1.00000E+00  1.30327E-01
      21    -1     0     0   502   501  0.000000000E+00  0.000000000E+00  1.045855886E+02  1.045855886E+02  0.000000000E+00  0.00000E+00  9.000E+00
      -1    -1     0     0     0   502  0.000000000E+00  0.000000000E+00 -1.311240114E+03  1.311240114E+03  0.000000000E+00  0.00000E+00  9.000E+00
      25     1     1     2     0     0  4.564210696E+01 -3.517347161E+01 -2.284861842E+02  2.667420316E+02  1.250000000E+02  0.00000E+00  9.000E+00
      25     1     1     2     0     0 -8.222708316E+01  9.825712616E+01 -1.117857846E+01  1.793480322E+02  1.250000000E+02  0.00000E+00  9.000E+00
      -1     1     1     2     0   501  3.658497620E+01 -6.308365455E+01 -9.669897627E+02  9.697356388E+02  1.078959322E-05  0.00000E+00  9.000E+00
#rwgt            1           1   2.9260095384918371E-002          10      275567           0
</event>
<event>
      5   9999  3.79277E-02  4.63092E+01 -1.00000E+00  1.41003E-01
      21    -1     0     0   502   501  0.000000000E+00  0.000000000E+00  1.159983671E+03  1.159983671E+03  0.000000000E+00  0.00000E+00  9.000E+00
      21    -1     0     0   501   511  0.000000000E+00  0.000000000E+00 -1.192287324E+02  1.192287324E+02  0.000000000E+00  0.00000E+00  9.000E+00
      25     1     1     2     0     0 -2.450536204E+02  1.787037362E+02  4.830091532E+02  5.838742538E+02  1.250000000E+02  0.00000E+00  9.000E+00
      25     1     1     2     0     0  2.910580385E+02 -1.840077355E+02  5.171595772E+02  6.337607252E+02  1.250000000E+02  0.00000E+00  9.000E+00
      21     1     1     2   502   511 -4.600441811E+01  5.303999271E+00  4.058620772E+01  6.157742404E+01  4.768371582E-07  0.00000E+00  9.000E+00
#rwgt            1           1   3.7703263043679533E-002          10      275845           0
</event>
<event>
      5   9999  3.79277E-02  2.97609E+01 -1.00000E+00  1.53282E-01
      21    -1     0     0   502   501  0.000000000E+00  0.000000000E+00  4.728856850E+01  4.728856850E+01  0.000000000E+00  0.00000E+00  9.000E+00
       1    -1     0     0   501     0  0.000000000E+00  0.000000000E+00 -1.130909339E+03  1.130909339E+03  0.000000000E+00  0.00000E+00  9.000E+00
      25     1     1     2     0     0 -7.828819653E+01  8.175210087E+01 -1.564758150E+02  2.300481002E+02  1.250000000E+02  0.00000E+00  9.000E+00
      25     1     1     2     0     0  5.086811427E+01 -7.018285155E+01 -5.760277254E+02  5.957735628E+02  1.250000000E+02  0.00000E+00  9.000E+00
       1     1     1     2   502     0  2.742008226E+01 -1.156924932E+01 -3.511172297E+02  3.523762441E+02  3.814697266E-06  0.00000E+00  9.000E+00
#rwgt            1           1   4.5488262743693365E-002          10      275992           0
</event>
<event>
      5   9999 -3.79277E-02  5.71091E+01 -1.00000E+00  1.35859E-01
      21    -1     0     0   502   501  0.000000000E+00  0.000000000E+00  9.056993436E+01  9.056993436E+01  0.000000000E+00  0.00000E+00  9.000E+00
      21    -1     0     0   501   511  0.000000000E+00  0.000000000E+00 -1.542344717E+03  1.542344717E+03  0.000000000E+00  0.00000E+00  9.000E+00
      25     1     1     2     0     0  8.815138813E+01 -2.180684456E+01 -7.652301851E+00  1.546924802E+02  1.250000000E+02  0.00000E+00  9.000E+00
      25     1     1     2     0     0 -8.398890360E+01  7.876408049E+01 -4.281613939E+02  4.606572430E+02  1.250000000E+02  0.00000E+00  9.000E+00
      21     1     1     2   502   511 -4.162484534E+00 -5.695723593E+01 -1.015961087E+03  1.017564928E+03  1.078959322E-05  0.00000E+00  9.000E+00
#rwgt            1           1  -7.6448149607495131E-002          10      276146           0
</event>
<event>
      5   9999  3.79277E-02  9.10737E+01 -1.00000E+00  1.25682E-01
      21    -1     0     0   512   501  0.000000000E+00  0.000000000E+00  4.036935390E+02  4.036935390E+02  0.000000000E+00  0.00000E+00  9.000E+00
      21    -1     0     0   501   502  0.000000000E+00  0.000000000E+00 -1.145423644E+03  1.145423644E+03  0.000000000E+00  0.00000E+00  9.000E+00
      25     1     1     2     0     0  7.191492519E+01 -7.266370769E+01  1.738894464E+02  2.373063641E+02  1.250000000E+02  0.00000E+00  9.000E+00
      25     1     1     2     0     0 -1.159933168E+01  4.425498303E+00 -1.099478802E+03  1.106631269E+03  1.250000000E+02  0.00000E+00  9.000E+00
      21     1     1     2   512   502 -6.031559351E+01  6.823820938E+01  1.838592500E+02  2.051795503E+02  3.814697266E-06  0.00000E+00  9.000E+00
#rwgt            1           1  0.10535547966475596               10      276223           0
</event>
<event>
      5   9999  3.79277E-02  6.15938E+00 -1.00000E+00  2.23718E-01
       4    -1     0     0   502     0  0.000000000E+00  0.000000000E+00  3.440942535E+02  3.440942535E+02  0.000000000E+00  0.00000E+00  9.000E+00
      21    -1     0     0   501   502  0.000000000E+00  0.000000000E+00 -3.083283029E+02  3.083283029E+02  0.000000000E+00  0.00000E+00  9.000E+00
      25     1     1     2     0     0  4.398762040E+01  8.061378893E+01 -2.603252333E+01  1.572774173E+02  1.250000000E+02  0.00000E+00  9.000E+00
      25     1     1     2     0     0 -4.944150841E+01 -7.775143076E+01 -1.888067790E+02  2.444642050E+02  1.250000000E+02  0.00000E+00  9.000E+00
       4     1     1     2   501     0  5.453888005E+00 -2.862358165E+00  2.506052529E+02  2.506809342E+02  2.697398305E-06  0.00000E+00  9.000E+00
#rwgt            1           1   3.2503019289247800E-002          10      276399           0
</event>
<event>
      5   9999  3.79277E-02  1.92322E+01 -1.00000E+00  1.67784E-01
      21    -1     0     0   502   501  0.000000000E+00  0.000000000E+00  1.272847778E+02  1.272847778E+02  0.000000000E+00  0.00000E+00  9.000E+00
       1    -1     0     0   501     0  0.000000000E+00  0.000000000E+00 -2.665999229E+03  2.665999229E+03  0.000000000E+00  0.00000E+00  9.000E+00
      25     1     1     2     0     0  7.980991590E+01  4.571760488E+01 -3.406323729E+02  3.743195634E+02  1.250000000E+02  0.00000E+00  9.000E+00
      25     1     1     2     0     0 -8.938844891E+01 -2.904034383E+01  5.501380845E+01  1.657864756E+02  1.250000000E+02  0.00000E+00  9.000E+00
       1     1     1     2   502     0  9.578533007E+00 -1.667726105E+01 -2.253095886E+03  2.253177967E+03  3.051757812E-05  0.00000E+00  9.000E+00
#rwgt            1           1   4.0881375299436265E-002          10      276657           0
</event>
<event>
      5   9999  3.79277E-02  1.05200E+02 -1.00000E+00  1.22846E-01
      21    -1     0     0   502   501  0.000000000E+00  0.000000000E+00  3.496776040E+02  3.496776040E+02  0.000000000E+00  0.00000E+00  9.000E+00
      21    -1     0     0   511   502  0.000000000E+00  0.000000000E+00 -1.555917648E+02  1.555917648E+02  0.000000000E+00  0.00000E+00  9.000E+00
      25     1     1     2     0     0  4.102806358E+01 -1.148380251E+02  1.960732442E+02  2.625657843E+02  1.250000000E+02  0.00000E+00  9.000E+00
      25     1     1     2     0     0  3.303658956E+01  4.012860487E+01  1.476091374E+01  1.361785804E+02  1.250000000E+02  0.00000E+00  9.000E+00
      21     1     1     2   511   501 -7.406465314E+01  7.470942027E+01 -1.674831870E+01  1.065250041E+02  2.064765462E-06  0.00000E+00  9.000E+00
#rwgt            2          11   2.3753817517034202E-003          10      276811           0
</event>
<event>
      5   9999  3.79277E-02  8.36183E+01 -1.00000E+00  1.27426E-01
      21    -1     0     0   502   501  0.000000000E+00  0.000000000E+00  1.575330506E+02  1.575330506E+02  0.000000000E+00  0.00000E+00  9.000E+00
      21    -1     0     0   512   502  0.000000000E+00  0.000000000E+00 -8.906016117E+02  8.906016117E+02  0.000000000E+00  0.00000E+00  9.000E+00
      25     1     1     2     0     0 -2.273678494E+01  1.005687301E+02 -4.071615345E+02  4.382197463E+02  1.250000000E+02  0.00000E+00  9.000E+00
      25     1     1     2     0     0  3.553406743E-01 -1.811359903E+02  4.927374686E+01  2.255288792E+02  1.250000000E+02  0.00000E+00  9.000E+00
      21     1     1     2   512   501  2.238144427E+01  8.056726022E+01 -3.751807735E+02  3.843860368E+02  0.000000000E+00  0.00000E+00  9.000E+00
#rwgt            1           1   3.8305538155829315E-002          10      276831           0
</event>
<event>
      5   9999  3.79277E-02  1.29181E+02 -1.00000E+00  1.19025E-01
       1    -1     0     0   502     0  0.000000000E+00  0.000000000E+00  1.523284945E+03  1.523284945E+03  0.000000000E+00  0.00000E+00  9.000E+00
      21    -1     0     0   501   502  0.000000000E+00  0.000000000E+00 -1.443984905E+02  1.443984905E+02  0.000000000E+00  0.00000E+00  9.000E+00
      25     1     1     2     0     0  5.087514679E+01  5.319978607E+01 -3.282615300E+01  1.487314833E+02  1.250000000E+02  0.00000E+00  9.000E+00
      25     1     1     2     0     0 -1.149979590E+02 -1.653427673E+02  2.302853823E+02  3.304831593E+02  1.250000000E+02  0.00000E+00  9.000E+00
       1     1     1     2   501     0  6.412281225E+01  1.121429813E+02  1.181427225E+03  1.188468792E+03  0.000000000E+00  0.00000E+00  9.000E+00
#rwgt            2          17   4.1253181881294583E-004          10      276893           0
</event>
<event>
      5   9999  3.79277E-02  1.38235E+01 -1.00000E+00  1.80792E-01
      21    -1     0     0   502   501  0.000000000E+00  0.000000000E+00  1.327925425E+02  1.327925425E+02  0.000000000E+00  0.00000E+00  9.000E+00
      21    -1     0     0   511   502  0.000000000E+00  0.000000000E+00 -4.714653698E+02  4.714653698E+02  0.000000000E+00  0.00000E+00  9.000E+00
      25     1     1     2     0     0 -1.451265536E+02  9.485743051E+01 -3.777594923E+01  2.170522311E+02  1.250000000E+02  0.00000E+00  9.000E+00
      25     1     1     2     0     0  1.542311393E+02 -1.052591721E+02 -2.579878699E+02  3.421249460E+02  1.250000000E+02  0.00000E+00  9.000E+00
      21     1     1     2   511   501 -9.104585686E+00  1.040174163E+01 -4.290900818E+01  4.508073527E+01  6.743495762E-07  0.00000E+00  9.000E+00
#rwgt            1           1   2.8106790270992971E-002          10      276912           0
</event>
<event>
      5   9999  3.79277E-02  4.75284E+01 -1.00000E+00  1.40343E-01
      21    -1     0     0   502   501  0.000000000E+00  0.000000000E+00  1.808654066E+02  1.808654066E+02  0.000000000E+00  0.00000E+00  9.000E+00
      21    -1     0     0   512   502  0.000000000E+00  0.000000000E+00 -3.139825244E+02  3.139825244E+02  0.000000000E+00  0.00000E+00  9.000E+00
      25     1     1     2     0     0  1.141065441E+02 -8.961538824E+01 -1.097538225E+02  2.207308831E+02  1.250000000E+02  0.00000E+00  9.000E+00
      25     1     1     2     0     0 -1.018964444E+02  1.355485895E+02  1.755843653E+01  2.113991584E+02  1.250000000E+02  0.00000E+00  9.000E+00
      21     1     1     2   512   501 -1.221009973E+01 -4.593320126E+01 -4.092173187E+01  6.271788941E+01  6.743495762E-07  0.00000E+00  9.000E+00
#rwgt            1           1   4.0756651173398301E-002          10      277102           0
</event>
<event>
      5   9999  3.79277E-02  1.96129E+01 -1.00000E+00  1.67072E-01
      21    -1     0     0   502   511  0.000000000E+00  0.000000000E+00  1.626685546E+03  1.626685546E+03  0.000000000E+00  0.00000E+00  9.000E+00
      21    -1     0     0   501   502  0.000000000E+00  0.000000000E+00 -5.995349617E+01  5.995349617E+01  0.000000000E+00  0.00000E+00  9.000E+00
      25     1     1     2     0     0  2.043168043E+02 -1.478617847E+02  4.638334806E+02  5.425633250E+02  1.250000000E+02  0.00000E+00  9.000E+00
      25     1     1     2     0     0 -1.944450316E+02  1.648092289E+02  1.010721773E+03  1.049835442E+03  1.250000000E+02  0.00000E+00  9.000E+00
      21     1     1     2   501   511 -9.871772716E+00 -1.694744418E+01  9.217679597E+01  9.424027523E+01  0.000000000E+00  0.00000E+00  9.000E+00
#rwgt            1           1   3.1964560272846672E-002          10      277212           0
</event>
<event>
      5   9999  3.79277E-02  3.50737E+01 -1.00000E+00  1.48471E-01
      21    -1     0     0   502   512  0.000000000E+00  0.000000000E+00  3.467470974E+02  3.467470974E+02  0.000000000E+00  0.00000E+00  9.000E+00
      21    -1     0     0   501   502  0.000000000E+00  0.000000000E+00 -1.326798348E+02  1.326798348E+02  0.000000000E+00  0.00000E+00  9.000E+00
      25     1     1     2     0     0  1.417645940E+02  5.819900120E+01  7.839520979E+01  2.127325381E+02  1.250000000E+02  0.00000E+00  9.000E+00
      25     1     1     2     0     0 -1.066908758E+02 -5.823431102E+01  6.191145916E+01  1.850194766E+02  1.250000000E+02  0.00000E+00  9.000E+00
      21     1     1     2   501   512 -3.507371818E+01  3.530982171E-02  7.376059367E+01  8.167491740E+01  9.536743164E-07  0.00000E+00  9.000E+00
#rwgt            1           1   4.0375731095529804E-002          10      277503           0
</event>
<event>
      5   9999  3.79277E-02  2.00988E+01 -1.00000E+00  1.66193E-01
      21    -1     0     0   502   501  0.000000000E+00  0.000000000E+00  2.722201696E+02  2.722201696E+02  0.000000000E+00  0.00000E+00  9.000E+00
      21    -1     0     0   511   502  0.000000000E+00  0.000000000E+00 -8.569118872E+02  8.569118872E+02  0.000000000E+00  0.00000E+00  9.000E+00
      25     1     1     2     0     0 -7.198267187E+01  1.156696819E+02 -9.848241693E+00  1.851566046E+02  1.250000000E+02  0.00000E+00  9.000E+00
      25     1     1     2     0     0  5.540516352E+01 -1.043054171E+02  1.443357754E+02  2.245154076E+02  1.250000000E+02  0.00000E+00  9.000E+00
      21     1     1     2   511   501  1.657750834E+01 -1.136426476E+01 -7.191792513E+02  7.194600446E+02  1.321449896E-05  0.00000E+00  9.000E+00
#rwgt            1           1   3.4176655334993533E-002          10      277597           0
</event>
<event>
      5   9999  3.79277E-02  2.00697E+01 -1.00000E+00  1.66244E-01
      21    -1     0     0   502   501  0.000000000E+00  0.000000000E+00  1.308685861E+02  1.308685861E+02  0.000000000E+00  0.00000E+00  9.000E+00
      21    -1     0     0   501   512  0.000000000E+00  0.000000000E+00 -4.205260033E+02  4.205260033E+02  0.000000000E+00  0.00000E+00  9.000E+00
      25     1     1     2     0     0 -9.948853359E+01 -3.613880662E+01  4.457187784E+01  1.697516832E+02  1.250000000E+02  0.00000E+00  9.000E+00
      25     1     1     2     0     0  1.029721501E+02  1.637373824E+01 -3.103681368E+02  3.504636121E+02  1.250000000E+02  0.00000E+00  9.000E+00
      21     1     1     2   502   512 -3.483616533E+00  1.976506839E+01 -2.386115820E+01  3.117929414E+01  3.371747881E-07  0.00000E+00  9.000E+00
#rwgt            1           1   3.9066254005849538E-002          10      277782           0
</event>
<event>
      5   9999  3.79277E-02  1.50802E+02 -1.00000E+00  1.16302E-01
      21    -1     0     0   502   511  0.000000000E+00  0.000000000E+00  3.691944551E+02  3.691944551E+02  0.000000000E+00  0.00000E+00  9.000E+00
      21    -1     0     0   501   502  0.000000000E+00  0.000000000E+00 -2.523217089E+02  2.523217089E+02  0.000000000E+00  0.00000E+00  9.000E+00
      25     1     1     2     0     0 -6.545451949E+01  6.520817812E+01 -1.008778829E+02  1.853044734E+02  1.250000000E+02  0.00000E+00  9.000E+00
      25     1     1     2     0     0  1.869769916E+02  2.408709006E+01  1.458763556E+02  2.691570070E+02  1.250000000E+02  0.00000E+00  9.000E+00
      21     1     1     2   501   511 -1.215224721E+02 -8.929526817E+01  7.187427341E+01  1.670546836E+02  4.156969970E-06  0.00000E+00  9.000E+00
#rwgt            1           1   5.0634950997745919E-002          10      277946           0
</event>
<event>
      5   9999  3.79277E-02  9.31240E+01 -1.00000E+00  1.25236E-01
      21    -1     0     0   502   512  0.000000000E+00  0.000000000E+00  1.164989411E+03  1.164989411E+03  0.000000000E+00  0.00000E+00  9.000E+00
      21    -1     0     0   501   502  0.000000000E+00  0.000000000E+00 -1.535585614E+02  1.535585614E+02  0.000000000E+00  0.00000E+00  9.000E+00
      25     1     1     2     0     0 -1.392093423E+02  1.487987852E+02 -1.642315363E+01  2.396143556E+02  1.250000000E+02  0.00000E+00  9.000E+00
      25     1     1     2     0     0  5.599765429E+01 -1.906066518E+02  7.183894491E+02  7.557612279E+02  1.250000000E+02  0.00000E+00  9.000E+00
      21     1     1     2   501   512  8.321168797E+01  4.180786664E+01  3.094645541E+02  3.231723889E+02  7.629394531E-06  0.00000E+00  9.000E+00
#rwgt            1           1   3.1439482582391251E-002          10      278027           0
</event>
<event>
      5   9999  3.79277E-02  3.96986E+01 -1.00000E+00  1.45044E-01
      21    -1     0     0   511   501  0.000000000E+00  0.000000000E+00  1.707268052E+03  1.707268052E+03  0.000000000E+00  0.00000E+00  9.000E+00
      21    -1     0     0   501   502  0.000000000E+00  0.000000000E+00 -3.176686908E+01  3.176686908E+01  0.000000000E+00  0.00000E+00  9.000E+00
      25     1     1     2     0     0 -1.839781154E+01 -3.592433228E+01  1.822057807E+02  2.246174162E+02  1.250000000E+02  0.00000E+00  9.000E+00
      25     1     1     2     0     0  5.776739299E+01  4.102492885E+01  4.975581994E+02  5.178892529E+02  1.250000000E+02  0.00000E+00  9.000E+00
      21     1     1     2   511   502 -3.936958145E+01 -5.100596565E+00  9.957372032E+02  9.965282524E+02  0.000000000E+00  0.00000E+00  9.000E+00
#rwgt            1           1   5.7032961350815044E-002          10      278185           0
</event>
<event>
      5   9999  3.79277E-02  1.33539E+02 -1.00000E+00  1.18430E-01
      21    -1     0     0   502   501  0.000000000E+00  0.000000000E+00  3.286749439E+02  3.286749439E+02  0.000000000E+00  0.00000E+00  9.000E+00
      21    -1     0     0   512   502  0.000000000E+00  0.000000000E+00 -1.939459627E+02  1.939459627E+02  0.000000000E+00  0.00000E+00  9.000E+00
      25     1     1     2     0     0 -9.692672020E+01 -3.421736831E-01 -3.089371703E+01  1.611655296E+02  1.250000000E+02  0.00000E+00  9.000E+00
      25     1     1     2     0     0 -3.160836672E+01 -3.587232109E+01  1.830796973E+02  2.267798224E+02  1.250000000E+02  0.00000E+00  9.000E+00
      21     1     1     2   512   501  1.285350869E+02  3.621449477E+01 -1.745699917E+01  1.346755546E+02  1.066240300E-06  0.00000E+00  9.000E+00
#rwgt            1           1   4.0263093190594547E-002          10      278261           0
</event>
<event>
      5   9999  3.79277E-02  5.33076E+01 -1.00000E+00  1.37507E-01
      21    -1     0     0   511   501  0.000000000E+00  0.000000000E+00  1.102802360E+02  1.102802360E+02  0.000000000E+00  0.00000E+00  9.000E+00
      21    -1     0     0   501   502  0.000000000E+00  0.000000000E+00 -6.999935247E+02  6.999935247E+02  0.000000000E+00  0.00000E+00  9.000E+00
      25     1     1     2     0     0 -2.351044452E+02 -4.254832830E+01 -2.346628649E+02  3.574578584E+02  1.250000000E+02  0.00000E+00  9.000E+00
      25     1     1     2     0     0  1.819363593E+02  3.869446926E+01 -3.128035134E+02  3.847975296E+02  1.250000000E+02  0.00000E+00  9.000E+00
      21     1     1     2   511   502  5.316808590E+01  3.853859045E+00 -4.224691030E+01  6.801837265E+01  1.168007728E-06  0.00000E+00  9.000E+00
#rwgt            1           1   4.1319725259816489E-002          10      278332           0
</event>
<event>
      5   9999  3.79277E-02  3.35219E+00 -1.00000E+00  2.82967E-01
      21    -1     0     0   502   501  0.000000000E+00  0.000000000E+00  7.387683654E+02  7.387683654E+02  0.000000000E+00  0.00000E+00  9.000E+00
      21    -1     0     0   501   512  0.000000000E+00  0.000000000E+00 -7.858615244E+01  7.858615244E+01  0.000000000E+00  0.00000E+00  9.000E+00
      25     1     1     2     0     0  8.646232794E+01 -1.613602953E+02  3.097836957E+02  3.809249495E+02  1.250000000E+02  0.00000E+00  9.000E+00
      25     1     1     2     0     0 -8.533098653E+01  1.645158043E+02  3.613886826E+02  4.249395334E+02  1.250000000E+02  0.00000E+00  9.000E+00
      21     1     1     2   502   512 -1.131341411E+00 -3.155509065E+00 -1.099016528E+01  1.149003497E+01  5.840038640E-07  0.00000E+00  9.000E+00
#rwgt            1           1   3.8884041725664863E-002          10      278509           0
</event>
<event>
      5   9999  3.79277E-02  6.84371E+01 -1.00000E+00  1.31719E-01
      21    -1     0     0   511   501  0.000000000E+00  0.000000000E+00  6.200292491E+02  6.200292491E+02  0.000000000E+00  0.00000E+00  9.000E+00
      21    -1     0     0   501   502  0.000000000E+00  0.000000000E+00 -6.948780283E+01  6.948780283E+01  0.000000000E+00  0.00000E+00  9.000E+00
      25     1     1     2     0     0 -2.000746961E+01 -1.096071396E+02  2.389812203E+02  2.918065242E+02  1.250000000E+02  0.00000E+00  9.000E+00
      25     1     1     2     0     0 -2.048701326E+01  5.443617895E+01  8.716860573E+01  1.631146257E+02  1.250000000E+02  0.00000E+00  9.000E+00
      21     1     1     2   511   502  4.049448287E+01  5.517096063E+01  2.243916202E+02  2.345959021E+02  3.814697266E-06  0.00000E+00  9.000E+00
#rwgt            1           1   3.4492009103943434E-002          10      278944           0
</event>
<event>
      5   9999  3.79277E-02  8.84444E+00 -1.00000E+00  2.02131E-01
      21    -1     0     0   502   501  0.000000000E+00  0.000000000E+00  8.822463355E+02  8.822463355E+02  0.000000000E+00  0.00000E+00  9.000E+00
      21    -1     0     0   501   512  0.000000000E+00  0.000000000E+00 -7.839481966E+01  7.839481966E+01  0.000000000E+00  0.00000E+00  9.000E+00
      25     1     1     2     0     0  1.553331116E+02  1.469298184E+02  4.099141172E+02  4.789272706E+02  1.250000000E+02  0.00000E+00  9.000E+00
      25     1     1     2     0     0 -1.567077711E+02 -1.381928596E+02  4.018449482E+02  4.698499275E+02  1.250000000E+02  0.00000E+00  9.000E+00
      21     1     1     2   502   512  1.374659472E+00 -8.736958789E+00 -7.907549516E+00  1.186395705E+01  2.920019320E-07  0.00000E+00  9.000E+00
#rwgt            1           1  0.18383731793664512               10      279051           0
</event>
<event>
      5   9999  3.79277E-02  1.76598E+02 -1.00000E+00  1.13651E-01
      21    -1     0     0   502   511  0.000000000E+00  0.000000000E+00  1.183105043E+03  1.183105043E+03  0.000000000E+00  0.00000E+00  9.000E+00
      21    -1     0     0   501   502  0.000000000E+00  0.000000000E+00 -1.139121501E+02  1.139121501E+02  0.000000000E+00  0.00000E+00  9.000E+00
      25     1     1     2     0     0 -3.061344839E+00 -4.820108232E+01  8.496098764E+00  1.342754626E+02  1.250000000E+02  0.00000E+00  9.000E+00
      25     1     1     2     0     0 -5.720904226E+01  2.141964273E+02  3.649640050E+02  4.449457371E+02  1.250000000E+02  0.00000E+00  9.000E+00
      21     1     1     2   501   511  6.027038710E+01 -1.659953450E+02  6.957327890E+02  7.177959932E+02  1.525878906E-05  0.00000E+00  9.000E+00
#rwgt            2          11   9.8293790789066469E-004          10      279412           0
</event>
<event>
      5   9999  3.79277E-02  5.24378E+01 -1.00000E+00  1.37906E-01
      21    -1     0     0   502   501  0.000000000E+00  0.000000000E+00  1.364743441E+02  1.364743441E+02  0.000000000E+00  0.00000E+00  9.000E+00
      21    -1     0     0   512   502  0.000000000E+00  0.000000000E+00 -4.422460510E+02  4.422460510E+02  0.000000000E+00  0.00000E+00  9.000E+00
      25     1     1     2     0     0 -1.628762833E+02 -1.025815173E+02 -1.454114924E+02  2.717004849E+02  1.250000000E+02  0.00000E+00  9.000E+00
      25     1     1     2     0     0  1.106889735E+02  1.077010006E+02 -8.713228006E+01  2.169529641E+02  1.250000000E+02  0.00000E+00  9.000E+00
      21     1     1     2   512   501  5.218730978E+01 -5.119483357E+00 -7.322793435E+01  9.006694611E+01  9.536743164E-07  0.00000E+00  9.000E+00
#rwgt            1           1   4.7002803888455631E-002          10      279432           0
</event>
<event>
      5   9999  3.79277E-02  7.75742E+01 -1.00000E+00  1.29000E-01
      21    -1     0     0   511   501  0.000000000E+00  0.000000000E+00  7.428582702E+02  7.428582702E+02  0.000000000E+00  0.00000E+00  9.000E+00
      21    -1     0     0   501   502  0.000000000E+00  0.000000000E+00 -1.771578098E+02  1.771578098E+02  0.000000000E+00  0.00000E+00  9.000E+00
      25     1     1     2     0     0 -1.650072731E+02  1.510018127E+02  3.237901865E+02  4.129092303E+02  1.250000000E+02  0.00000E+00  9.000E+00
      25     1     1     2     0     0  2.365360198E+02 -1.810249647E+02  8.806943297E+01  3.348142045E+02  1.250000000E+02  0.00000E+00  9.000E+00
      21     1     1     2   511   502 -7.152874676E+01  3.002315203E+01  1.538408409E+02  1.722926452E+02  0.000000000E+00  0.00000E+00  9.000E+00
#rwgt            1           1   7.2364241367825627E-002          10      279642           0
</event>
<event>
      5   9999  3.79277E-02  8.02578E+00 -1.00000E+00  2.07488E-01
      21    -1     0     0   512   501  0.000000000E+00  0.000000000E+00  1.357064892E+02  1.357064892E+02  0.000000000E+00  0.00000E+00  9.000E+00
      21    -1     0     0   501   502  0.000000000E+00  0.000000000E+00 -3.628963300E+02  3.628963300E+02  0.000000000E+00  0.00000E+00  9.000E+00
      25     1     1     2     0     0 -4.544282404E+01 -1.612877041E+02 -6.782084538E+01  2.197804378E+02  1.250000000E+02  0.00000E+00  9.000E+00
      25     1     1     2     0     0  5.231970947E+01  1.654255336E+02 -1.640612294E+02  2.695255946E+02  1.250000000E+02  0.00000E+00  9.000E+00
      21     1     1     2   512   502 -6.876885428E+00 -4.137829469E+00  4.692233936E+00  9.296786822E+00  0.000000000E+00  0.00000E+00  9.000E+00
#rwgt            1           1   4.5323827568528666E-002          10      279781           0
</event>
<event>
      5   9999  3.79277E-02  1.29075E+02 -1.00000E+00  1.19040E-01
      21    -1     0     0   502   501  0.000000000E+00  0.000000000E+00  3.744005286E+02  3.744005286E+02  0.000000000E+00  0.00000E+00  9.000E+00
      21    -1     0     0   501   511  0.000000000E+00  0.000000000E+00 -2.662175420E+02  2.662175420E+02  0.000000000E+00  0.00000E+00  9.000E+00
      25     1     1     2     0     0  2.008557661E+02 -4.389870643E+01  2.317491747E+02  3.340700752E+02  1.250000000E+02  0.00000E+00  9.000E+00
      25     1     1     2     0     0 -8.360015624E+01 -1.005862557E+01 -7.770681756E+01  1.695686043E+02  1.250000000E+02  0.00000E+00  9.000E+00
      21     1     1     2   502   511 -1.172556098E+02  5.395733200E+01 -4.585937057E+01  1.369793911E+02  0.000000000E+00  0.00000E+00  9.000E+00
#rwgt            1           1   5.3172630486090486E-002          10      280006           0
</event>
<event>
      5   9999  3.79277E-02  1.04652E+02 -1.00000E+00  1.22946E-01
      21    -1     0     0   502   512  0.000000000E+00  0.000000000E+00  1.610942683E+02  1.610942683E+02  0.000000000E+00  0.00000E+00  9.000E+00
      21    -1     0     0   501   502  0.000000000E+00  0.000000000E+00 -7.764245547E+02  7.764245547E+02  0.000000000E+00  0.00000E+00  9.000E+00
      25     1     1     2     0     0  1.695893147E+02 -1.054756307E+01 -1.662372712E+02  2.685732993E+02  1.250000000E+02  0.00000E+00  9.000E+00
      25     1     1     2     0     0 -2.549018954E+02 -5.006354075E+01 -4.799202878E+02  5.598480303E+02  1.250000000E+02  0.00000E+00  9.000E+00
      21     1     1     2   501   512  8.531258068E+01  6.061110383E+01  3.082727257E+01  1.090974934E+02  1.685873940E-06  0.00000E+00  9.000E+00
#rwgt            1           1   3.0735954363076773E-002          10      280062           0
</event>
<event>
      5   9999  3.79277E-02  9.22627E+01 -1.00000E+00  1.25422E-01
      21    -1     0     0   502   501  0.000000000E+00  0.000000000E+00  2.492645438E+02  2.492645438E+02  0.000000000E+00  0.00000E+00  9.000E+00
      -5    -1     0     0     0   502  0.000000000E+00  0.000000000E+00 -2.399639594E+02  2.399639594E+02  0.000000000E+00  0.00000E+00  9.000E+00
      25     1     1     2     0     0  1.678206741E+02  4.041698748E+01  4.006007260E+01  2.168573746E+02  1.250000000E+02  0.00000E+00  9.000E+00
      25     1     1     2     0     0 -8.816021687E+01 -8.696397265E+01 -3.734433164E+01  1.798737209E+02  1.250000000E+02  0.00000E+00  9.000E+00
      -5     1     1     2     0   501 -7.966045718E+01  4.654698516E+01  6.584843460E+00  9.249740769E+01  5.196212463E-07  0.00000E+00  9.000E+00
#rwgt            1           1   3.5282122377197744E-002          10      280154           0
</event>
<event>
      5   9999  3.79277E-02  2.03025E+01 -1.00000E+00  1.65833E-01
      21    -1     0     0   511   501  0.000000000E+00  0.000000000E+00  1.657713686E+02  1.657713686E+02  0.000000000E+00  0.00000E+00  9.000E+00
      21    -1     0     0   501   502  0.000000000E+00  0.000000000E+00 -2.450604339E+02  2.450604339E+02  0.000000000E+00  0.00000E+00  9.000E+00
      25     1     1     2     0     0  7.468590419E+01  1.185841849E+02 -3.252999249E+01  1.905869712E+02  1.250000000E+02  0.00000E+00  9.000E+00
      25     1     1     2     0     0 -7.102135117E+01 -9.861516867E+01 -7.133415537E+01  1.883681118E+02  1.250000000E+02  0.00000E+00  9.000E+00
      21     1     1     2   511   502 -3.664553027E+00 -1.996901625E+01  2.457508254E+01  3.187671941E+01  4.768371582E-07  0.00000E+00  9.000E+00
#rwgt            1           1   3.8367413300577510E-002          10      280247           0
</event>
<event>
      5   9999  3.79277E-02  5.09993E+01 -1.00000E+00  1.38587E-01
      21    -1     0     0   512   501  0.000000000E+00  0.000000000E+00  5.346721743E+02  5.346721743E+02  0.000000000E+00  0.00000E+00  9.000E+00
      21    -1     0     0   501   502  0.000000000E+00  0.000000000E+00 -2.378996297E+02  2.378996297E+02  0.000000000E+00  0.00000E+00  9.000E+00
      25     1     1     2     0     0  3.809290345E+01 -8.205690744E+01  4.117459272E+01  1.597020740E+02  1.250000000E+02  0.00000E+00  9.000E+00
      25     1     1     2     0     0 -8.356126069E+01  5.895803027E+01 -1.401584186E+02  2.138408659E+02  1.250000000E+02  0.00000E+00  9.000E+00
      21     1     1     2   512   502  4.546835724E+01  2.309887717E+01  3.957563704E+02  3.990288641E+02  5.394796609E-06  0.00000E+00  9.000E+00
#rwgt            1           1   3.5964589908502292E-002          10      280395           0
</event>
<event>
      5   9999  3.79277E-02  5.79050E+01 -1.00000E+00  1.35533E-01
      21    -1     0     0   502   501  0.000000000E+00  0.000000000E+00  1.374152873E+02  1.374152873E+02  0.000000000E+00  0.00000E+00  9.000E+00
      21    -1     0     0   511   502  0.000000000E+00  0.000000000E+00 -4.332203113E+02  4.332203113E+02  0.000000000E+00  0.00000E+00  9.000E+00
      25     1     1     2     0     0  1.333619151E+02 -3.656374685E+00  2.201991639E+01  1.841430047E+02  1.250000000E+02  0.00000E+00  9.000E+00
      25     1     1     2     0     0 -9.377003194E+01 -3.859846993E+01 -2.497175599E+02  2.970968200E+02  1.250000000E+02  0.00000E+00  9.000E+00
      21     1     1     2   511   501 -3.959188313E+01  4.225484462E+01 -6.810738050E+01  8.939577385E+01  0.000000000E+00  0.00000E+00  9.000E+00
#rwgt            1           1   3.0312554111059695E-002          10      280529           0
</event>
<event>
      5   9999  3.79277E-02  4.35719E+01 -1.00000E+00  1.42573E-01
      21    -1     0     0   502   501  0.000000000E+00  0.000000000E+00  1.327793225E+03  1.327793225E+03  0.000000000E+00  0.00000E+00  9.000E+00
      21    -1     0     0   512   502  0.000000000E+00  0.000000000E+00 -1.532611188E+02  1.532611188E+02  0.000000000E+00  0.00000E+00  9.000E+00
      25     1     1     2     0     0  1.807811664E+02  1.392925149E+01  7.974978552E+02  8.273473776E+02  1.250000000E+02  0.00000E+00  9.000E+00
      25     1     1     2     0     0 -2.031649794E+02  2.345362302E+01  4.829613012E+02  5.391685262E+02  1.250000000E+02  0.00000E+00  9.000E+00
      21     1     1     2   512   501  2.238381295E+01 -3.738287452E+01 -1.059270499E+02  1.145384403E+02  4.046097457E-06  0.00000E+00  9.000E+00
#rwgt            1           1   3.0487161427926828E-002          10      280621           0
</event>
<event>
      5   9999  3.79277E-02  2.98511E+01 -1.00000E+00  1.53190E-01
      21    -1     0     0   502   501  0.000000000E+00  0.000000000E+00  7.212174684E+01  7.212174684E+01  0.000000000E+00  0.00000E+00  9.000E+00
       1    -1     0     0   501     0  0.000000000E+00  0.000000000E+00 -8.050143782E+02  8.050143782E+02  0.000000000E+00  0.00000E+00  9.000E+00
      25     1     1     2     0     0 -1.633914775E+02 -7.068283316E+01 -3.232327762E+02  3.896116855E+02  1.250000000E+02  0.00000E+00  9.000E+00
      25     1     1     2     0     0  1.627764861E+02  1.005276327E+02 -3.891977554E+02  4.513334490E+02  1.250000000E+02  0.00000E+00  9.000E+00
       1     1     1     2   502     0  6.149914287E-01 -2.984479956E+01 -2.046209978E+01  3.619099063E+01  3.371747881E-07  0.00000E+00  9.000E+00
#rwgt            1           1   4.3062158352161269E-002          10      280766           0
</event>
<event>
      5   9999  3.79277E-02  1.77606E+01 -1.00000E+00  1.70740E-01
      21    -1     0     0   502   511  0.000000000E+00  0.000000000E+00  2.608112051E+02  2.608112051E+02  0.000000000E+00  0.00000E+00  9.000E+00
      21    -1     0     0   501   502  0.000000000E+00  0.000000000E+00 -5.139616996E+02  5.139616996E+02  0.000000000E+00  0.00000E+00  9.000E+00
      25     1     1     2     0     0 -1.322416130E+02 -1.426666827E+01 -2.799091560E+02  3.341639084E+02  1.250000000E+02  0.00000E+00  9.000E+00
      25     1     1     2     0     0  1.372429687E+02  3.130857054E+01 -1.636076560E+02  2.494159661E+02  1.250000000E+02  0.00000E+00  9.000E+00
      21     1     1     2   501   511 -5.001355700E+00 -1.704190228E+01  1.903663175E+02  1.911930303E+02  0.000000000E+00  0.00000E+00  9.000E+00
#rwgt            1           1   1.9943853737174687E-002          10      280923           0
</event>
<event>
      5   9999  3.79277E-02  6.21935E+01 -1.00000E+00  1.33875E-01
      21    -1     0     0   502   501  0.000000000E+00  0.000000000E+00  7.532768445E+01  7.532768445E+01  0.000000000E+00  0.00000E+00  9.000E+00
      21    -1     0     0   501   512  0.000000000E+00  0.000000000E+00 -2.249707793E+03  2.249707793E+03  0.000000000E+00  0.00000E+00  9.000E+00
      25     1     1     2     0     0  1.685033447E+02  1.654075249E+02 -2.491002517E+02  3.652792930E+02  1.250000000E+02  0.00000E+00  9.000E+00
      25     1     1     2     0     0 -1.112112241E+02 -1.896076441E+02 -9.688488562E+02  1.001305199E+03  1.250000000E+02  0.00000E+00  9.000E+00
      21     1     1     2   502   512 -5.729212060E+01  2.420011912E+01 -9.564310012E+02  9.584509862E+02  1.525878906E-05  0.00000E+00  9.000E+00
#rwgt            1           1   1.4078717888275404E-002          10      281121           0
</event>
<event>
      5   9999  3.79277E-02  1.76728E+02 -1.00000E+00  1.13639E-01
       2    -1     0     0   502     0  0.000000000E+00  0.000000000E+00  1.093905897E+03  1.093905897E+03  0.000000000E+00  0.00000E+00  9.000E+00
      21    -1     0     0   501   502  0.000000000E+00  0.000000000E+00 -2.285041262E+02  2.285041262E+02  0.000000000E+00  0.00000E+00  9.000E+00
      25     1     1     2     0     0 -1.533487799E+02  1.463581183E+02 -1.186336963E+02  2.731949871E+02  1.250000000E+02  0.00000E+00  9.000E+00
      25     1     1     2     0     0  6.443313822E+01  6.372971398E+00  1.942399113E+02  2.398882807E+02  1.250000000E+02  0.00000E+00  9.000E+00
       2     1     1     2   501     0  8.891564171E+01 -1.527310897E+02  7.897955553E+02  8.093267549E+02  1.078959322E-05  0.00000E+00  9.000E+00
#rwgt            2          18   6.4798627984260474E-004          10      281312           0
</event>
<event>
      5   9999  3.79277E-02  1.18832E+02 -1.00000E+00  1.20549E-01
      21    -1     0     0   502   501  0.000000000E+00  0.000000000E+00  4.079327589E+02  4.079327589E+02  0.000000000E+00  0.00000E+00  9.000E+00
      21    -1     0     0   501   511  0.000000000E+00  0.000000000E+00 -2.349652695E+02  2.349652695E+02  0.000000000E+00  0.00000E+00  9.000E+00
      25     1     1     2     0     0  3.624151987E+01  1.442881663E+02  1.013580147E+02  2.191596903E+02  1.250000000E+02  0.00000E+00  9.000E+00
      25     1     1     2     0     0 -1.550697535E+02 -1.433178577E+02  1.440777509E+02  2.845523415E+02  1.250000000E+02  0.00000E+00  9.000E+00
      21     1     1     2   502   511  1.188282336E+02 -9.703086579E-01 -7.246827623E+01  1.391859966E+02  2.132480600E-06  0.00000E+00  9.000E+00
#rwgt            1           1   3.0294993754864545E-002          10      281331           0
</event>
<event>
      5   9999  3.79277E-02  3.11905E+01 -1.00000E+00  1.51875E-01
      21    -1     0     0   502   501  0.000000000E+00  0.000000000E+00  1.702074704E+02  1.702074704E+02  0.000000000E+00  0.00000E+00  9.000E+00
      21    -1     0     0   501   512  0.000000000E+00  0.000000000E+00 -2.764732975E+02  2.764732975E+02  0.000000000E+00  0.00000E+00  9.000E+00
      25     1     1     2     0     0  8.363883916E+01 -4.626290333E+01 -1.047303448E+02  1.890215775E+02  1.250000000E+02  0.00000E+00  9.000E+00
      25     1     1     2     0     0 -5.253759979E+01  4.862128923E+01  8.390666671E+01  1.667020032E+02  1.250000000E+02  0.00000E+00  9.000E+00
      21     1     1     2   502   512 -3.110123937E+01 -2.358385900E+00 -8.544214905E+01  9.095718723E+01  0.000000000E+00  0.00000E+00  9.000E+00
#rwgt            1           1   4.2562932323644657E-002          10      281494           0
</event>
<event>
      5   9999  3.79277E-02  8.03152E+01 -1.00000E+00  1.28267E-01
      21    -1     0     0   502   501  0.000000000E+00  0.000000000E+00  2.449765048E+02  2.449765048E+02  0.000000000E+00  0.00000E+00  9.000E+00
      21    -1     0     0   511   502  0.000000000E+00  0.000000000E+00 -4.922667930E+02  4.922667930E+02  0.000000000E+00  0.00000E+00  9.000E+00
      25     1     1     2     0     0 -2.344314098E+02  4.911666258E+01 -2.147144455E+02  3.451055282E+02  1.250000000E+02  0.00000E+00  9.000E+00
      25     1     1     2     0     0  2.432495627E+02 -1.289462805E+02  7.339824678E+00  3.024506010E+02  1.250000000E+02  0.00000E+00  9.000E+00
      21     1     1     2   511   501 -8.818152852E+00  7.982961790E+01 -3.991566744E+01  8.968716866E+01  8.259061849E-07  0.00000E+00  9.000E+00
#rwgt            1           1   3.9631739537254462E-002          10      281835           0
</event>
<event>
      5   9999  3.79277E-02  1.11457E+02 -1.00000E+00  1.21746E-01
      21    -1     0     0   502   501  0.000000000E+00  0.000000000E+00  4.262553333E+02  4.262553333E+02  0.000000000E+00  0.00000E+00  9.000E+00
      21    -1     0     0   501   512  0.000000000E+00  0.000000000E+00 -3.630537060E+02  3.630537060E+02  0.000000000E+00  0.00000E+00  9.000E+00
      25     1     1     2     0     0  2.433235562E+01 -1.233064937E+02  7.680453669E+01  1.931851230E+02  1.250000000E+02  0.00000E+00  9.000E+00
      25     1     1     2     0     0 -1.325578833E+02  1.499508694E+02  2.292008961E+02  3.289603417E+02  1.250000000E+02  0.00000E+00  9.000E+00
      21     1     1     2   502   512  1.082255277E+02 -2.664437574E+01 -2.428038055E+02  2.671635746E+02  4.672030912E-06  0.00000E+00  9.000E+00
#rwgt            1           1   3.2301699354411857E-002          10      282015           0
</event>
<event>
      5   9999  3.79277E-02  2.10428E+02 -1.00000E+00  1.10850E-01
      21    -1     0     0   502   511  0.000000000E+00  0.000000000E+00  3.146711178E+02  3.146711178E+02  0.000000000E+00  0.00000E+00  9.000E+00
      21    -1     0     0   501   502  0.000000000E+00  0.000000000E+00 -9.865583073E+02  9.865583073E+02  0.000000000E+00  0.00000E+00  9.000E+00
      25     1     1     2     0     0  1.909748504E+02 -1.439921711E+02 -3.809386251E+02  4.668451295E+02  1.250000000E+02  0.00000E+00  9.000E+00
      25     1     1     2     0     0 -7.016451777E+01 -2.830104701E+01 -5.100697411E+02  5.305847242E+02  1.250000000E+02  0.00000E+00  9.000E+00
      21     1     1     2   501   511 -1.208103327E+02  1.722932181E+02  2.191211767E+02  3.037995714E+02  7.136645101E-06  0.00000E+00  9.000E+00
#rwgt            1           1   4.1695812115425696E-002          10      282207           0
</event>
<event>
      5   9999  3.79277E-02  7.89983E+01 -1.00000E+00  1.28615E-01
      21    -1     0     0   502   501  0.000000000E+00  0.000000000E+00  2.646907075E+02  2.646907075E+02  0.000000000E+00  0.00000E+00  9.000E+00
      21    -1     0     0   501   512  0.000000000E+00  0.000000000E+00 -2.166354426E+02  2.166354426E+02  0.000000000E+00  0.00000E+00  9.000E+00
      25     1     1     2     0     0 -8.264060965E+01 -4.401421279E+01  9.977685045E+01  1.853298173E+02  1.250000000E+02  0.00000E+00  9.000E+00
      25     1     1     2     0     0  1.597644586E+02  6.112120519E+01 -2.930498698E+01  2.138790925E+02  1.250000000E+02  0.00000E+00  9.000E+00
      21     1     1     2   502   512 -7.712384897E+01 -1.710699240E+01 -2.241659857E+01  8.211724034E+01  4.129530925E-07  0.00000E+00  9.000E+00
#rwgt            1           1   4.1833113320387159E-002          10      282410           0
</event>
<event>
      5   9999  3.79277E-02  1.83790E+01 -1.00000E+00  1.69456E-01
      21    -1     0     0   502   511  0.000000000E+00  0.000000000E+00  1.046964479E+02  1.046964479E+02  0.000000000E+00  0.00000E+00  9.000E+00
      21    -1     0     0   501   502  0.000000000E+00  0.000000000E+00 -4.758749603E+02  4.758749603E+02  0.000000000E+00  0.00000E+00  9.000E+00
      25     1     1     2     0     0 -9.591509441E+01 -5.227230980E+01 -1.974108299E+02  2.579304857E+02  1.250000000E+02  0.00000E+00  9.000E+00
      25     1     1     2     0     0  1.099351811E+02  4.038854980E+01 -2.165320672E+02  2.760943953E+02  1.250000000E+02  0.00000E+00  9.000E+00
      21     1     1     2   501   511 -1.402008664E+01  1.188376000E+01  4.276438474E+01  4.654652708E+01  8.259061849E-07  0.00000E+00  9.000E+00
#rwgt            1           1   3.4698797322676875E-002          10      282496           0
</event>
<event>
      5   9999  3.79277E-02  1.28627E+01 -1.00000E+00  1.83913E-01
      21    -1     0     0   502   501  0.000000000E+00  0.000000000E+00  5.662871419E+02  5.662871419E+02  0.000000000E+00  0.00000E+00  9.000E+00
      21    -1     0     0   501   512  0.000000000E+00  0.000000000E+00 -1.196892128E+02  1.196892128E+02  0.000000000E+00  0.00000E+00  9.000E+00
      25     1     1     2     0     0 -3.217789472E+01  1.311628473E+02  4.444342200E+02  4.810258677E+02  1.250000000E+02  0.00000E+00  9.000E+00
      25     1     1     2     0     0  4.242102595E+01 -1.389427472E+02 -1.206709144E+00  1.916535588E+02  1.250000000E+02  0.00000E+00  9.000E+00
      21     1     1     2   502   512 -1.024313123E+01  7.779899950E+00  3.370418272E+00  1.329692822E+01  1.192092896E-07  0.00000E+00  9.000E+00
#rwgt            1           1   2.9491620809504186E-002          10      282675           0
</event>
<event>
      5   9999  3.79277E-02  4.72522E+01 -1.00000E+00  1.40491E-01
      21    -1     0     0   511   501  0.000000000E+00  0.000000000E+00  1.817890177E+03  1.817890177E+03  0.000000000E+00  0.00000E+00  9.000E+00
      21    -1     0     0   501   502  0.000000000E+00  0.000000000E+00 -1.349309742E+02  1.349309742E+02  0.000000000E+00  0.00000E+00  9.000E+00
      25     1     1     2     0     0 -4.528857458E+01 -1.056067596E+01  3.093828975E+02  3.369055656E+02  1.250000000E+02  0.00000E+00  9.000E+00
      25     1     1     2     0     0  4.070706084E+01 -3.646891163E+01 -8.226365575E+01  1.593089934E+02  1.250000000E+02  0.00000E+00  9.000E+00
      21     1     1     2   511   502  4.581513741E+00  4.702958759E+01  1.455839961E+03  1.456606592E+03  0.000000000E+00  0.00000E+00  9.000E+00
#rwgt            2          11   1.5892346670915577E-003          10      282913           0
</event>
<event>
      5   9999  3.79277E-02  5.39238E+01 -1.00000E+00  1.37229E-01
      21    -1     0     0   502   501  0.000000000E+00  0.000000000E+00  6.301407493E+01  6.301407493E+01  0.000000000E+00  0.00000E+00  9.000E+00
      -2    -1     0     0     0   502  0.000000000E+00  0.000000000E+00 -1.225459686E+03  1.225459686E+03  0.000000000E+00  0.00000E+00  9.000E+00
      25     1     1     2     0     0 -2.195538152E+02  7.372119120E+00 -4.419579448E+02  5.091267533E+02  1.250000000E+02  0.00000E+00  9.000E+00
      25     1     1     2     0     0  1.677917740E+02  7.742971758E+00 -3.734084391E+02  4.281038372E+02  1.250000000E+02  0.00000E+00  9.000E+00
      -2     1     1     2     0   501  5.176204126E+01 -1.511509088E+01 -3.470792273E+02  3.512431706E+02  5.394796609E-06  0.00000E+00  9.000E+00
#rwgt            1           1   3.5359612267427475E-002          10      283068           0
</event>
<event>
      5   9999  3.79277E-02  1.01272E+02 -1.00000E+00  1.23582E-01
      21    -1     0     0   502   511  0.000000000E+00  0.000000000E+00  1.704535625E+02  1.704535625E+02  0.000000000E+00  0.00000E+00  9.000E+00
      21    -1     0     0   501   502  0.000000000E+00  0.000000000E+00 -9.769589355E+02  9.769589355E+02  0.000000000E+00  0.00000E+00  9.000E+00
      25     1     1     2     0     0 -1.753345059E+02  3.470811554E+01 -2.125473807E+02  3.045459428E+02  1.250000000E+02  0.00000E+00  9.000E+00
      25     1     1     2     0     0  2.058350727E+02  6.186186393E+01 -6.710235299E+02  7.156064177E+02  1.250000000E+02  0.00000E+00  9.000E+00
      21     1     1     2   501   511 -3.050056682E+01 -9.656997947E+01  7.706553760E+01  1.272601375E+02  3.015782986E-06  0.00000E+00  9.000E+00
#rwgt            1           1   3.0169790994441732E-002          10      283145           0
</event>
<event>
      5   9999  3.79277E-02  4.44792E+00 -1.00000E+00  2.53061E-01
      21    -1     0     0   502   501  0.000000000E+00  0.000000000E+00  4.358183436E+01  4.358183436E+01  0.000000000E+00  0.00000E+00  9.000E+00
      21    -1     0     0   501   512  0.000000000E+00  0.000000000E+00 -8.790576935E+02  8.790576935E+02  0.000000000E+00  0.00000E+00  9.000E+00
      25     1     1     2     0     0  3.220458164E+01  1.268482742E+02 -2.678445297E+02  3.232542526E+02  1.250000000E+02  0.00000E+00  9.000E+00
      25     1     1     2     0     0 -3.461682637E+01 -1.305852581E+02 -5.212384835E+02  5.527796948E+02  1.250000000E+02  0.00000E+00  9.000E+00
      21     1     1     2   502   512  2.412244730E+00  3.736983960E+00 -4.639284588E+01  4.660558039E+01  9.536743164E-07  0.00000E+00  9.000E+00
#rwgt            2          11   1.1529549242305145E-003          10      283223           0
</event>
<event>
      5   9999  3.79277E-02  4.09773E+01 -1.00000E+00  1.44193E-01
      21    -1     0     0   511   501  0.000000000E+00  0.000000000E+00  4.101214178E+01  4.101214178E+01  0.000000000E+00  0.00000E+00  9.000E+00
      21    -1     0     0   501   502  0.000000000E+00  0.000000000E+00 -1.166962115E+03  1.166962115E+03  0.000000000E+00  0.00000E+00  9.000E+00
      25     1     1     2     0     0  1.250414917E+02 -3.885456758E+01 -4.243670350E+02  4.613647500E+02  1.250000000E+02  0.00000E+00  9.000E+00
      25     1     1     2     0     0 -1.429828375E+02  7.569541095E+01 -6.458261654E+02  6.774144396E+02  1.250000000E+02  0.00000E+00  9.000E+00
      21     1     1     2   511   502  1.794134583E+01 -3.684084337E+01 -5.575677323E+01  6.919506768E+01  1.348699152E-06  0.00000E+00  9.000E+00
#rwgt            1           1   4.3351595142438519E-002          10      283243           0
</event>
<event>
      5   9999  3.79277E-02  4.23426E+01 -1.00000E+00  1.43324E-01
      21    -1     0     0   502   501  0.000000000E+00  0.000000000E+00  2.762034047E+02  2.762034047E+02  0.000000000E+00  0.00000E+00  9.000E+00
       2    -1     0     0   501     0  0.000000000E+00  0.000000000E+00 -7.279175321E+02  7.279175321E+02  0.000000000E+00  0.00000E+00  9.000E+00
      25     1     1     2     0     0  3.197063356E+02 -8.248459586E+01 -1.861867463E+02  3.991320008E+02  1.250000000E+02  0.00000E+00  9.000E+00
      25     1     1     2     0     0 -3.252413637E+02  1.244638712E+02 -3.617623509E+01  3.717619129E+02  1.250000000E+02  0.00000E+00  9.000E+00
       2     1     1     2   502     0  5.535028113E+00 -4.197927534E+01 -2.293511460E+02  2.332270231E+02  2.697398305E-06  0.00000E+00  9.000E+00
#rwgt            1           1   4.9419576119737456E-002          10      283569           0
</event>
<event>
      5   9999  3.79277E-02  4.91133E+01 -1.00000E+00  1.39520E-01
      21    -1     0     0   502   501  0.000000000E+00  0.000000000E+00  3.169697007E+02  3.169697007E+02  0.000000000E+00  0.00000E+00  9.000E+00
      21    -1     0     0   501   511  0.000000000E+00  0.000000000E+00 -8.871309687E+02  8.871309687E+02  0.000000000E+00  0.00000E+00  9.000E+00
      25     1     1     2     0     0  7.035762333E+01  1.086272332E+01 -6.780518318E+01  1.590306159E+02  1.250000000E+02  0.00000E+00  9.000E+00
      25     1     1     2     0     0 -7.276388365E+01 -5.991701925E+01  2.479064601E+02  2.932017137E+02  1.250000000E+02  0.00000E+00  9.000E+00
      21     1     1     2   502   511  2.406260313E+00  4.905429592E+01 -7.502625450E+02  7.518683398E+02  1.078959322E-05  0.00000E+00  9.000E+00
#rwgt            1           1   4.5686660816107359E-002          10      283685           0
</event>
<event>
      5   9999  3.79277E-02  2.34925E+01 -1.00000E+00  1.60801E-01
      21    -1     0     0   502   501  0.000000000E+00  0.000000000E+00  5.577040393E+02  5.577040393E+02  0.000000000E+00  0.00000E+00  9.000E+00
      21    -1     0     0   512   502  0.000000000E+00  0.000000000E+00 -8.260426523E+01  8.260426523E+01  0.000000000E+00  0.00000E+00  9.000E+00
      25     1     1     2     0     0  1.129965810E+02  8.909927801E+01  2.591242357E+02  3.216788432E+02  1.250000000E+02  0.00000E+00  9.000E+00
      25     1     1     2     0     0 -1.175102790E+02 -6.604442466E+01  2.274754309E+02  2.924732524E+02  1.250000000E+02  0.00000E+00  9.000E+00
      21     1     1     2   512   501  4.513698084E+00 -2.305485336E+01 -1.149989257E+01  2.615620888E+01  8.596304120E-07  0.00000E+00  9.000E+00
#rwgt            1           1   4.1574427418221038E-002          10      283746           0
</event>
<event>
      5   9999  3.79277E-02  2.93710E+01 -1.00000E+00  1.53682E-01
      21    -1     0     0   502   501  0.000000000E+00  0.000000000E+00  4.161662414E+01  4.161662414E+01  0.000000000E+00  0.00000E+00  9.000E+00
      21    -1     0     0   511   502  0.000000000E+00  0.000000000E+00 -1.281761848E+03  1.281761848E+03  0.000000000E+00  0.00000E+00  9.000E+00
      25     1     1     2     0     0  4.242135280E+01 -9.966331207E+01 -1.726507205E+02  2.390933253E+02  1.250000000E+02  0.00000E+00  9.000E+00
      25     1     1     2     0     0 -1.414641074E+01  9.171461753E+01 -7.865067118E+02  8.017664870E+02  1.250000000E+02  0.00000E+00  9.000E+00
      21     1     1     2   511   501 -2.827494206E+01  7.948694540E+00 -2.809877920E+02  2.825186602E+02  3.814697266E-06  0.00000E+00  9.000E+00
#rwgt            1           1   4.7616153748998219E-002          10      283954           0
</event>
<event>
      5   9999  3.79277E-02  5.90960E+01 -1.00000E+00  1.35057E-01
      21    -1     0     0   502   501  0.000000000E+00  0.000000000E+00  6.913794682E+01  6.913794682E+01  0.000000000E+00  0.00000E+00  9.000E+00
      21    -1     0     0   501   512  0.000000000E+00  0.000000000E+00 -8.624969632E+02  8.624969632E+02  0.000000000E+00  0.00000E+00  9.000E+00
      25     1     1     2     0     0 -1.123582790E+02  3.567391599E+01 -3.262874113E+02  3.687620993E+02  1.250000000E+02  0.00000E+00  9.000E+00
      25     1     1     2     0     0  6.690514294E+01 -7.344092810E+01 -9.428392147E+01  1.854301106E+02  1.250000000E+02  0.00000E+00  9.000E+00
      21     1     1     2   502   512  4.545313606E+01  3.776701211E+01 -3.727876836E+02  3.774427001E+02  7.629394531E-06  0.00000E+00  9.000E+00
#rwgt            1           1   5.5084065200088107E-002          10      284079           0
</event>
<event>
      5   9999  3.79277E-02  4.34973E+01 -1.00000E+00  1.42618E-01
      21    -1     0     0   502   501  0.000000000E+00  0.000000000E+00  3.847134160E+02  3.847134160E+02  0.000000000E+00  0.00000E+00  9.000E+00
      21    -1     0     0   511   502  0.000000000E+00  0.000000000E+00 -2.085878870E+02  2.085878870E+02  0.000000000E+00  0.00000E+00  9.000E+00
      25     1     1     2     0     0  1.675543955E+02  1.240275613E+01  2.138507955E+02  2.993083135E+02  1.250000000E+02  0.00000E+00  9.000E+00
      25     1     1     2     0     0 -1.611660712E+02  3.062285471E+01  3.505656492E+01  2.092037870E+02  1.250000000E+02  0.00000E+00  9.000E+00
      21     1     1     2   511   501 -6.388324289E+00 -4.302561083E+01 -7.278183147E+01  8.478920253E+01  9.536743164E-07  0.00000E+00  9.000E+00
#rwgt            1           1   3.8656867553539531E-002          10      284171           0
</event>
<event>
      5   9999  3.79277E-02  7.66317E+01 -1.00000E+00  1.29260E-01
      21    -1     0     0   512   501  0.000000000E+00  0.000000000E+00  1.491187433E+02  1.491187433E+02  0.000000000E+00  0.00000E+00  9.000E+00
      21    -1     0     0   501   502  0.000000000E+00  0.000000000E+00 -5.205372811E+02  5.205372811E+02  0.000000000E+00  0.00000E+00  9.000E+00
      25     1     1     2     0     0 -1.168013336E+02 -1.659790623E+02 -1.258333364E+02  2.695378066E+02  1.250000000E+02  0.00000E+00  9.000E+00
      25     1     1     2     0     0  1.647249223E+02  1.061814815E+02 -2.179750669E+02  3.186643011E+02  1.250000000E+02  0.00000E+00  9.000E+00
      21     1     1     2   512   502 -4.792358870E+01  5.979758075E+01 -2.761013447E+01  8.145391668E+01  8.259061849E-07  0.00000E+00  9.000E+00
#rwgt            1           1  0.24650525595659586               10      284249           0
</event>
<event>
      5   9999  3.79277E-02  4.38075E+01 -1.00000E+00  1.42433E-01
      21    -1     0     0   511   501  0.000000000E+00  0.000000000E+00  9.478149125E+01  9.478149125E+01  0.000000000E+00  0.00000E+00  9.000E+00
      21    -1     0     0   501   502  0.000000000E+00  0.000000000E+00 -1.557020798E+03  1.557020798E+03  0.000000000E+00  0.00000E+00  9.000E+00
      25     1     1     2     0     0  1.042369239E+02 -8.644947803E+01 -9.903612856E+02  1.007362559E+03  1.250000000E+02  0.00000E+00  9.000E+00
      25     1     1     2     0     0 -6.701804305E+01  1.095547261E+02 -5.369088718E+02  5.660298514E+02  1.250000000E+02  0.00000E+00  9.000E+00
      21     1     1     2   511   502 -3.721888084E+01 -2.310524802E+01  6.503085078E+01  7.840987903E+01  1.651812370E-06  0.00000E+00  9.000E+00
#rwgt            1           1   3.7129451747827773E-002          10      284352           0
</event>
<event>
      5   9999  3.79277E-02  6.10384E+01 -1.00000E+00  1.34306E-01
      21    -1     0     0   502   501  0.000000000E+00  0.000000000E+00  9.368653506E+01  9.368653506E+01  0.000000000E+00  0.00000E+00  9.000E+00
      21    -1     0     0   512   502  0.000000000E+00  0.000000000E+00 -1.085018526E+03  1.085018526E+03  0.000000000E+00  0.00000E+00  9.000E+00
      25     1     1     2     0     0  1.625994094E+02  5.752159925E+01 -2.105115840E+02  2.994785957E+02  1.250000000E+02  0.00000E+00  9.000E+00
      25     1     1     2     0     0 -1.688326060E+02 -1.182408546E+02 -2.589066010E+02  3.537555322E+02  1.250000000E+02  0.00000E+00  9.000E+00
      21     1     1     2   512   501  6.233196636E+00  6.071925534E+01 -5.219138055E+02  5.254709327E+02  0.000000000E+00  0.00000E+00  9.000E+00
#rwgt            1           1   4.7369722961364220E-002          10      284410           0
</event>
<event>
      5   9999  3.79277E-02  6.04047E+01 -1.00000E+00  1.34548E-01
      21    -1     0     0   502   501  0.000000000E+00  0.000000000E+00  1.242068326E+02  1.242068326E+02  0.000000000E+00  0.00000E+00  9.000E+00
      21    -1     0     0   511   502  0.000000000E+00  0.000000000E+00 -5.490125094E+02  5.490125094E+02  0.000000000E+00  0.00000E+00  9.000E+00
      25     1     1     2     0     0  3.238738038E+01  1.836212395E+02 -9.766536032E+01  2.448044620E+02  1.250000000E+02  0.00000E+00  9.000E+00
      25     1     1     2     0     0  1.346710089E+01 -1.443008877E+02 -1.559479777E+02  2.468782711E+02  1.250000000E+02  0.00000E+00  9.000E+00
      21     1     1     2   511   501 -4.585448127E+01 -3.932035180E+01 -1.711923387E+02  1.815366089E+02  1.907348633E-06  0.00000E+00  9.000E+00
#rwgt            1           1   3.7696490479875000E-002          10      284452           0
</event>
<event>
      5   9999  3.79277E-02  9.66615E+00 -1.00000E+00  1.97477E-01
      21    -1     0     0   512   501  0.000000000E+00  0.000000000E+00  3.263206960E+02  3.263206960E+02  0.000000000E+00  0.00000E+00  9.000E+00
      21    -1     0     0   501   502  0.000000000E+00  0.000000000E+00 -3.335979848E+02  3.335979848E+02  0.000000000E+00  0.00000E+00  9.000E+00
      25     1     1     2     0     0  1.982904955E+02 -1.614028262E+02 -1.587576239E+02  3.258818437E+02  1.250000000E+02  0.00000E+00  9.000E+00
      25     1     1     2     0     0 -1.954886646E+02  1.706539986E+02  1.471487810E+02  3.234445377E+02  1.250000000E+02  0.00000E+00  9.000E+00
      21     1     1     2   512   502 -2.801830836E+00 -9.251172394E+00  4.331554058E+00  1.059229943E+01  2.384185791E-07  0.00000E+00  9.000E+00
#rwgt            1           1   3.3019350518366491E-002          10      284590           0
</event>
<event>
      5   9999  3.79277E-02  1.28980E+02 -1.00000E+00  1.19053E-01
      21    -1     0     0   511   501  0.000000000E+00  0.000000000E+00  2.685135264E+02  2.685135264E+02  0.000000000E+00  0.00000E+00  9.000E+00
      21    -1     0     0   501   502  0.000000000E+00  0.000000000E+00 -6.493006572E+02  6.493006572E+02  0.000000000E+00  0.00000E+00  9.000E+00
      25     1     1     2     0     0 -5.851653665E+01  1.513376038E+02 -3.836500824E+02  4.349018753E+02  1.250000000E+02  0.00000E+00  9.000E+00
      25     1     1     2     0     0 -7.038768732E+01 -1.557655469E+02 -1.669594258E+02  2.696623482E+02  1.250000000E+02  0.00000E+00  9.000E+00
      21     1     1     2   511   502  1.289042240E+02  4.427943113E+00  1.698223774E+02  2.132499602E+02  1.907348633E-06  0.00000E+00  9.000E+00
#rwgt            2          11   3.5494020118353054E-003          10      285140           0
</event>
<event>
      5   9999  3.79277E-02  7.08327E+00 -1.00000E+00  2.14830E-01
      21    -1     0     0   502   501  0.000000000E+00  0.000000000E+00  4.405587655E+02  4.405587655E+02  0.000000000E+00  0.00000E+00  9.000E+00
      21    -1     0     0   501   512  0.000000000E+00  0.000000000E+00 -7.698306295E+01  7.698306295E+01  0.000000000E+00  0.00000E+00  9.000E+00
      25     1     1     2     0     0 -7.319314810E+01  2.621118021E+01  5.984815404E+01  1.589058351E+02  1.250000000E+02  0.00000E+00  9.000E+00
      25     1     1     2     0     0  7.532890423E+01 -3.296479501E+01  3.130266630E+02  3.469464127E+02  1.250000000E+02  0.00000E+00  9.000E+00
      21     1     1     2   502   512 -2.135756132E+00  6.753614795E+00 -9.299114446E+00  1.168958068E+01  0.000000000E+00  0.00000E+00  9.000E+00
#rwgt            1           1   4.2456815599425997E-002          10      285160           0
</event>
<event>
      5   9999  3.79277E-02  3.91939E+00 -1.00000E+00  2.65571E-01
      21    -1     0     0   502   501  0.000000000E+00  0.000000000E+00  1.076701812E+02  1.076701812E+02  0.000000000E+00  0.00000E+00  9.000E+00
      21    -1     0     0   501   511  0.000000000E+00  0.000000000E+00 -5.118904974E+02  5.118904974E+02  0.000000000E+00  0.00000E+00  9.000E+00
      25     1     1     2     0     0 -4.481019748E+01  1.495270774E+02 -4.563615646E+01  2.051193786E+02  1.250000000E+02  0.00000E+00  9.000E+00
      25     1     1     2     0     0  4.270574753E+01 -1.462205856E+02 -3.210233987E+02  3.766766027E+02  1.250000000E+02  0.00000E+00  9.000E+00
      21     1     1     2   502   511  2.104449951E+00 -3.306491809E+00 -3.756076095E+01  3.776469728E+01  4.768371582E-07  0.00000E+00  9.000E+00
#rwgt            1           1   3.2892279703024593E-002          10      285422           0
</event>
<event>
      5   9999  3.79277E-02  1.21208E+01 -1.00000E+00  1.86572E-01
      21    -1     0     0   502   501  0.000000000E+00  0.000000000E+00  2.772611449E+01  2.772611449E+01  0.000000000E+00  0.00000E+00  9.000E+00
      21    -1     0     0   501   512  0.000000000E+00  0.000000000E+00 -1.491364731E+03  1.491364731E+03  0.000000000E+00  0.00000E+00  9.000E+00
      25     1     1     2     0     0 -1.346598860E+01 -6.830497212E+01 -9.984149136E+02  1.008615012E+03  1.250000000E+02  0.00000E+00  9.000E+00
      25     1     1     2     0     0  2.150931207E+01  7.737242680E+01 -2.230722216E+02  2.680211913E+02  1.250000000E+02  0.00000E+00  9.000E+00
      21     1     1     2   502   512 -8.043323476E+00 -9.067454681E+00 -2.421514807E+02  2.424546420E+02  3.814697266E-06  0.00000E+00  9.000E+00
#rwgt            1           1   4.0258519786768095E-002          10      285898           0
</event>
<event>
      5   9999  3.79277E-02  4.03096E+01 -1.00000E+00  1.44633E-01
      21    -1     0     0   502   511  0.000000000E+00  0.000000000E+00  3.418290625E+02  3.418290625E+02  0.000000000E+00  0.00000E+00  9.000E+00
      21    -1     0     0   501   502  0.000000000E+00  0.000000000E+00 -2.766485152E+02  2.766485152E+02  0.000000000E+00  0.00000E+00  9.000E+00
      25     1     1     2     0     0  1.479905567E+02  1.230086145E+02  1.812866224E+02  2.924417268E+02  1.250000000E+02  0.00000E+00  9.000E+00
      25     1     1     2     0     0 -1.853281312E+02 -1.078173967E+02 -1.338671615E+02  2.819867447E+02  1.250000000E+02  0.00000E+00  9.000E+00
      21     1     1     2   501   511  3.733757451E+01 -1.519121780E+01  1.776108634E+01  4.404910619E+01  2.384185791E-07  0.00000E+00  9.000E+00
#rwgt            1           1   4.2929094303841731E-002          10      286133           0
</event>
<event>
      5   9999  3.79277E-02  3.58501E+02 -1.00000E+00  1.03138E-01
      -1    -1     0     0     0   501  0.000000000E+00  0.000000000E+00  5.053801414E+02  5.053801414E+02  0.000000000E+00  0.00000E+00  9.000E+00
      21    -1     0     0   501   502  0.000000000E+00  0.000000000E+00 -8.221109886E+02  8.221109886E+02  0.000000000E+00  0.00000E+00  9.000E+00
      25     1     1     2     0     0 -7.992951095E+01 -1.909823218E+02 -5.426530994E+02  5.941046711E+02  1.250000000E+02  0.00000E+00  9.000E+00
      25     1     1     2     0     0  2.276055985E+02 -1.356901395E+02 -2.762476315E+01  2.942860002E+02  1.250000000E+02  0.00000E+00  9.000E+00
      -1     1     1     2     0   502 -1.476760875E+02  3.266724613E+02  2.535470153E+02  4.391004586E+02  3.814697266E-06  0.00000E+00  9.000E+00
#rwgt            1           1   3.4860392043991939E-002          10      286421           0
</event>
<event>
      5   9999  3.79277E-02  7.66184E+00 -1.00000E+00  2.10154E-01
      21    -1     0     0   502   511  0.000000000E+00  0.000000000E+00  8.080197316E+01  8.080197316E+01  0.000000000E+00  0.00000E+00  9.000E+00
      21    -1     0     0   501   502  0.000000000E+00  0.000000000E+00 -1.669342789E+03  1.669342789E+03  0.000000000E+00  0.00000E+00  9.000E+00
      25     1     1     2     0     0 -3.754041931E+00 -9.425981772E+01 -1.422319455E+02  2.115512524E+02  1.250000000E+02  0.00000E+00  9.000E+00
      25     1     1     2     0     0 -3.843106497E+00  9.525337616E+01 -1.487961145E+03  1.496242408E+03  1.250000000E+02  0.00000E+00  9.000E+00
      21     1     1     2   501   511  7.597148428E+00 -9.935584443E-01  4.165227463E+01  4.235110158E+01  2.739220927E-06  0.00000E+00  9.000E+00
#rwgt            1           1   4.0967567977413084E-002          10      286452           0
</event>
<event>
      5   9999  3.79277E-02  1.03016E+02 -1.00000E+00  1.23250E-01
      21    -1     0     0   502   501  0.000000000E+00  0.000000000E+00  3.410588857E+02  3.410588857E+02  0.000000000E+00  0.00000E+00  9.000E+00
       2    -1     0     0   501     0  0.000000000E+00  0.000000000E+00 -8.958453533E+02  8.958453533E+02  0.000000000E+00  0.00000E+00  9.000E+00
      25     1     1     2     0     0 -1.670112247E+02 -1.535345699E+01 -1.114833955E+01  2.094701967E+02  1.250000000E+02  0.00000E+00  9.000E+00
      25     1     1     2     0     0  6.409030477E+01  1.978275233E+01  2.173266212E+02  2.595280038E+02  1.250000000E+02  0.00000E+00  9.000E+00
       2     1     1     2   502     0  1.029209199E+02 -4.429295339E+00 -7.609647493E+02  7.679060386E+02  0.000000000E+00  0.00000E+00  9.000E+00
#rwgt            1           1   4.0102540430738222E-002          10      286824           0
</event>
<event>
      5   9999  3.79277E-02  1.19256E+01 -1.00000E+00  1.87312E-01
      21    -1     0     0   502   501  0.000000000E+00  0.000000000E+00  1.931118767E+02  1.931118767E+02  0.000000000E+00  0.00000E+00  9.000E+00
      21    -1     0     0   511   502  0.000000000E+00  0.000000000E+00 -2.353551398E+02  2.353551398E+02  0.000000000E+00  0.00000E+00  9.000E+00
      25     1     1     2     0     0 -5.053635799E+01  1.186671616E+02 -1.097648962E+02  2.104973899E+02  1.250000000E+02  0.00000E+00  9.000E+00
      25     1     1     2     0     0  5.256033744E+01 -1.069145656E+02  8.834970743E+01  1.939690290E+02  1.250000000E+02  0.00000E+00  9.000E+00
      21     1     1     2   511   501 -2.023979448E+00 -1.175259594E+01 -2.082807426E+01  2.400059753E+01  4.129530925E-07  0.00000E+00  9.000E+00
#rwgt            1           1   4.3057875167051854E-002          10      286973           0
</event>
<event>
      5   9999  3.79277E-02  4.66899E+00 -1.00000E+00  2.48587E-01
      21    -1     0     0   512   501  0.000000000E+00  0.000000000E+00  2.929819563E+02  2.929819563E+02  0.000000000E+00  0.00000E+00  9.000E+00
      21    -1     0     0   501   502  0.000000000E+00  0.000000000E+00 -1.674418544E+02  1.674418544E+02  0.000000000E+00  0.00000E+00  9.000E+00
      25     1     1     2     0     0 -1.255988666E+02 -1.826785067E+01  7.589727992E+01  1.936341570E+02  1.250000000E+02  0.00000E+00  9.000E+00
      25     1     1     2     0     0  1.259742945E+02  2.292172106E+01 -3.473627702E+01  1.822814777E+02  1.250000000E+02  0.00000E+00  9.000E+00
      21     1     1     2   512   502 -3.754278846E-01 -4.653870386E+00  8.437909898E+01  8.450817594E+01  1.651812370E-06  0.00000E+00  9.000E+00
#rwgt            1           1   9.4721090763680085E-003          10      287169           0
</event>
<event>
      5   9999  3.79277E-02  7.83750E+01 -1.00000E+00  1.28782E-01
      21    -1     0     0   502   501  0.000000000E+00  0.000000000E+00  5.737133181E+02  5.737133181E+02  0.000000000E+00  0.00000E+00  9.000E+00
      21    -1     0     0   511   502  0.000000000E+00  0.000000000E+00 -1.005417290E+02  1.005417290E+02  0.000000000E+00  0.00000E+00  9.000E+00
      25     1     1     2     0     0  4.151925264E+01  1.740553876E+02  2.224300491E+02  3.116396204E+02  1.250000000E+02  0.00000E+00  9.000E+00
      25     1     1     2     0     0  1.538139892E+01 -1.201576933E+02  2.145689479E+02  2.762956607E+02  1.250000000E+02  0.00000E+00  9.000E+00
      21     1     1     2   511   501 -5.690065156E+01 -5.389769425E+01  3.617259206E+01  8.631976604E+01  4.768371582E-07  0.00000E+00  9.000E+00
#rwgt            1           1   3.7425006216687436E-002          10      287525           0
</event>
<event>
      5   9999  3.79277E-02  3.37542E+01 -1.00000E+00  1.49566E-01
      21    -1     0     0   512   501  0.000000000E+00  0.000000000E+00  5.458861886E+01  5.458861886E+01  0.000000000E+00  0.00000E+00  9.000E+00
      21    -1     0     0   501   502  0.000000000E+00  0.000000000E+00 -1.190007743E+03  1.190007743E+03  0.000000000E+00  0.00000E+00  9.000E+00
      25     1     1     2     0     0 -1.531120809E+02 -4.613004018E+01 -8.912033432E+02  9.140238995E+02  1.250000000E+02  0.00000E+00  9.000E+00
      25     1     1     2     0     0  1.383020324E+02  1.579844660E+01 -2.212444257E+02  2.897432294E+02  1.250000000E+02  0.00000E+00  9.000E+00
      21     1     1     2   512   502  1.481004855E+01  3.033159357E+01 -2.297135536E+01  4.082923308E+01  3.371747881E-07  0.00000E+00  9.000E+00
#rwgt            1           1   3.5604435855985606E-002          10      287806           0
</event>
<event>
      5   9999  3.79277E-02  8.41702E+00 -1.00000E+00  2.04826E-01
      21    -1     0     0   502   501  0.000000000E+00  0.000000000E+00  1.511278754E+01  1.511278754E+01  0.000000000E+00  0.00000E+00  9.000E+00
      21    -1     0     0   511   502  0.000000000E+00  0.000000000E+00 -2.205588129E+03  2.205588129E+03  0.000000000E+00  0.00000E+00  9.000E+00
      25     1     1     2     0     0  8.006869451E+01  8.475861485E+01 -7.739357820E+02  7.925885523E+02  1.250000000E+02  0.00000E+00  9.000E+00
      25     1     1     2     0     0 -8.771533500E+01 -8.124078680E+01 -1.343229761E+03  1.354320950E+03  1.250000000E+02  0.00000E+00  9.000E+00
      21     1     1     2   511   501  7.646640490E+00 -3.517828049E+00 -7.330979815E+01  7.379141366E+01  9.536743164E-07  0.00000E+00  9.000E+00
#rwgt            1           1  0.15073804026552529               10      287927           0
</event>
<event>
      5   9999  3.79277E-02  7.70368E+01 -1.00000E+00  1.29148E-01
      21    -1     0     0   502   501  0.000000000E+00  0.000000000E+00  8.340404143E+02  8.340404143E+02  0.000000000E+00  0.00000E+00  9.000E+00
      21    -1     0     0   512   502  0.000000000E+00  0.000000000E+00 -1.501400662E+02  1.501400662E+02  0.000000000E+00  0.00000E+00  9.000E+00
      25     1     1     2     0     0 -3.363258693E+01  1.719012774E+02  3.004578674E+02  3.695688436E+02  1.250000000E+02  0.00000E+00  9.000E+00
      25     1     1     2     0     0  7.312002029E+01 -2.380481327E+02  4.387690325E+02  5.197660192E+02  1.250000000E+02  0.00000E+00  9.000E+00
      21     1     1     2   512   501 -3.948743336E+01  6.614685527E+01 -5.532655176E+01  9.484561764E+01  1.168007728E-06  0.00000E+00  9.000E+00
#rwgt            1           1   3.1584504926072392E-002          10      288171           0
</event>
<event>
      5   9999  3.79277E-02  5.04236E+01 -1.00000E+00  1.38867E-01
      21    -1     0     0   511   501  0.000000000E+00  0.000000000E+00  2.792395805E+01  2.792395805E+01  0.000000000E+00  0.00000E+00  9.000E+00
      21    -1     0     0   501   502  0.000000000E+00  0.000000000E+00 -3.013617370E+03  3.013617370E+03  0.000000000E+00  0.00000E+00  9.000E+00
      25     1     1     2     0     0 -2.042609130E+02 -3.638308555E+01 -1.067338819E+03  1.094478599E+03  1.250000000E+02  0.00000E+00  9.000E+00
      25     1     1     2     0     0  2.188274061E+02  8.465689493E+01 -1.781247629E+03  1.800977607E+03  1.250000000E+02  0.00000E+00  9.000E+00
      21     1     1     2   511   502 -1.456649310E+01 -4.827380937E+01 -1.371069636E+02  1.460851220E+02  1.907348633E-06  0.00000E+00  9.000E+00
#rwgt            1           1   4.2507935721314435E-002          10      288229           0
</event>
<event>
      5   9999  3.79277E-02  7.10644E+01 -1.00000E+00  1.30890E-01
      21    -1     0     0   502   501  0.000000000E+00  0.000000000E+00  7.399081807E+02  7.399081807E+02  0.000000000E+00  0.00000E+00  9.000E+00
      21    -1     0     0   512   502  0.000000000E+00  0.000000000E+00 -3.145391521E+02  3.145391521E+02  0.000000000E+00  0.00000E+00  9.000E+00
      25     1     1     2     0     0 -7.751852225E+01  4.773274595E+01  1.136185177E+02  1.918898223E+02  1.250000000E+02  0.00000E+00  9.000E+00
      25     1     1     2     0     0  5.530276031E+01 -1.152353966E+02  5.686074328E+02  5.960511761E+02  1.250000000E+02  0.00000E+00  9.000E+00
      21     1     1     2   512   501  2.221576194E+01  6.750265062E+01 -2.568569219E+02  2.665063344E+02  3.814697266E-06  0.00000E+00  9.000E+00
#rwgt            1           1   2.9912265262194444E-002          10      288782           0
</event>
<event>
      5   9999  3.79277E-02  7.11753E+01 -1.00000E+00  1.30855E-01
      21    -1     0     0   502   501  0.000000000E+00  0.000000000E+00  4.431020195E+02  4.431020195E+02  0.000000000E+00  0.00000E+00  9.000E+00
      21    -1     0     0   511   502  0.000000000E+00  0.000000000E+00 -1.930823702E+02  1.930823702E+02  0.000000000E+00  0.00000E+00  9.000E+00
      25     1     1     2     0     0  2.116982805E+02 -5.131653082E+01  5.886674509E+01  2.579531779E+02  1.250000000E+02  0.00000E+00  9.000E+00
      25     1     1     2     0     0 -1.828272789E+02 -1.374029575E+01  2.090254232E+02  3.048462517E+02  1.250000000E+02  0.00000E+00  9.000E+00
      21     1     1     2   511   501 -2.887100164E+01  6.505682657E+01 -1.787251898E+01  7.338496000E+01  1.892388805E-06  0.00000E+00  9.000E+00
#rwgt            1           1   3.4935278424977276E-002          10      288954           0
</event>
<event>
      5   9999  3.79277E-02  1.12314E+01 -1.00000E+00  1.90102E-01
      21    -1     0     0   502   501  0.000000000E+00  0.000000000E+00  1.572913985E+03  1.572913985E+03  0.000000000E+00  0.00000E+00  9.000E+00
      21    -1     0     0   501   512  0.000000000E+00  0.000000000E+00 -2.989653118E+01  2.989653118E+01  0.000000000E+00  0.00000E+00  9.000E+00
      25     1     1     2     0     0 -5.983728435E+00  9.061191296E+01  1.306185651E+03  1.315291708E+03  1.250000000E+02  0.00000E+00  9.000E+00
      25     1     1     2     0     0  1.549994708E+01 -8.464659126E+01  2.188874398E+02  2.663494041E+02  1.250000000E+02  0.00000E+00  9.000E+00
      21     1     1     2   502   512 -9.516218642E+00 -5.965321698E+00  1.794436319E+01  2.116940364E+01  0.000000000E+00  0.00000E+00  9.000E+00
#rwgt            1           1   4.0023636123438781E-002          10      289015           0
</event>
<event>
      5   9999  3.79277E-02  2.33578E+01 -1.00000E+00  1.60993E-01
      21    -1     0     0   502   501  0.000000000E+00  0.000000000E+00  1.371211392E+03  1.371211392E+03  0.000000000E+00  0.00000E+00  9.000E+00
      21    -1     0     0   511   502  0.000000000E+00  0.000000000E+00 -2.470658255E+01  2.470658255E+01  0.000000000E+00  0.00000E+00  9.000E+00
      25     1     1     2     0     0  8.460699715E+01 -2.879515655E+01  4.107225305E+02  4.385265124E+02  1.250000000E+02  0.00000E+00  9.000E+00
      25     1     1     2     0     0 -6.240939151E+01  3.606532739E+01  9.144311006E+02  9.257455794E+02  1.250000000E+02  0.00000E+00  9.000E+00
      21     1     1     2   511   501 -2.219760564E+01 -7.270170841E+00  2.135117835E+01  3.164588278E+01  7.907449699E-07  0.00000E+00  9.000E+00
#rwgt            1           1   4.3460840130198859E-002          10      289195           0
</event>
<event>
      5   9999  3.79277E-02  6.29917E+01 -1.00000E+00  1.33584E-01
      21    -1     0     0   512   501  0.000000000E+00  0.000000000E+00  4.962536664E+02  4.962536664E+02  0.000000000E+00  0.00000E+00  9.000E+00
      21    -1     0     0   501   502  0.000000000E+00  0.000000000E+00 -7.686747059E+02  7.686747059E+02  0.000000000E+00  0.00000E+00  9.000E+00
      25     1     1     2     0     0 -1.053628838E+02 -1.225589806E+02 -5.701972018E+02  6.056995047E+02  1.250000000E+02  0.00000E+00  9.000E+00
      25     1     1     2     0     0  4.583586117E+01  1.019559065E+02 -1.390749812E+02  2.178595498E+02  1.250000000E+02  0.00000E+00  9.000E+00
      21     1     1     2   512   502  5.952702265E+01  2.060307414E+01  4.368511435E+02  4.413693178E+02  0.000000000E+00  0.00000E+00  9.000E+00
#rwgt            1           1   4.5596262593737273E-002          10      289363           0
</event>
<event>
      5   9999  3.79277E-02  1.03330E+02 -1.00000E+00  1.23191E-01
      21    -1     0     0   502   501  0.000000000E+00  0.000000000E+00  2.891538510E+02  2.891538510E+02  0.000000000E+00  0.00000E+00  9.000E+00
       1    -1     0     0   501     0  0.000000000E+00  0.000000000E+00 -9.322322559E+02  9.322322559E+02  0.000000000E+00  0.00000E+00  9.000E+00
      25     1     1     2     0     0 -2.311970589E+02  4.373321562E+01  2.876095592E+01  2.679866914E+02  1.250000000E+02  0.00000E+00  9.000E+00
      25     1     1     2     0     0  1.927863700E+02 -1.396592115E+02  4.793193640E+00  2.689223950E+02  1.250000000E+02  0.00000E+00  9.000E+00
       1     1     1     2   502     0  3.841068890E+01  9.592599592E+01 -6.766325544E+02  6.844770204E+02  7.629394531E-06  0.00000E+00  9.000E+00
#rwgt            1           1   4.2529539295247040E-002          10      289449           0
</event>
<event>
      5   9999  3.79277E-02  8.02682E+00 -1.00000E+00  2.07481E-01
      21    -1     0     0   511   501  0.000000000E+00  0.000000000E+00  2.680489324E+02  2.680489324E+02  0.000000000E+00  0.00000E+00  9.000E+00
      21    -1     0     0   501   502  0.000000000E+00  0.000000000E+00 -1.547211035E+02  1.547211035E+02  0.000000000E+00  0.00000E+00  9.000E+00
      25     1     1     2     0     0  1.397608981E+02  5.878250326E+01  4.655160825E+01  2.019419311E+02  1.250000000E+02  0.00000E+00  9.000E+00
      25     1     1     2     0     0 -1.344130694E+02 -6.476837237E+01  4.810061758E+01  2.005005853E+02  1.250000000E+02  0.00000E+00  9.000E+00
      21     1     1     2   511   502 -5.347828683E+00  5.985869105E+00  1.867560305E+01  2.032751952E+01  0.000000000E+00  0.00000E+00  9.000E+00
#rwgt            1           1   3.4215455848353907E-002          10      289570           0
</event>
<event>
      5   9999  3.79277E-02  6.21185E+01 -1.00000E+00  1.33903E-01
      21    -1     0     0   502   501  0.000000000E+00  0.000000000E+00  5.930686696E+02  5.930686696E+02  0.000000000E+00  0.00000E+00  9.000E+00
      21    -1     0     0   512   502  0.000000000E+00  0.000000000E+00 -1.385645560E+02  1.385645560E+02  0.000000000E+00  0.00000E+00  9.000E+00
      25     1     1     2     0     0 -7.114086620E+01  1.622076344E+02  3.790762460E+02  4.366876914E+02  1.250000000E+02  0.00000E+00  9.000E+00
      25     1     1     2     0     0  1.279204348E+01 -1.835179392E+02  6.681967599E+01  2.322333729E+02  1.250000000E+02  0.00000E+00  9.000E+00
      21     1     1     2   512   501  5.834882272E+01  2.131030480E+01  8.608191583E+00  6.271216123E+01  8.596304120E-07  0.00000E+00  9.000E+00
#rwgt            1           1   2.9472980809920810E-002          10      289902           0
</event>
<event>
      5   9999  3.79277E-02  4.69664E+01 -1.00000E+00  1.40644E-01
      21    -1     0     0   511   501  0.000000000E+00  0.000000000E+00  1.912772090E+02  1.912772090E+02  0.000000000E+00  0.00000E+00  9.000E+00
      21    -1     0     0   501   502  0.000000000E+00  0.000000000E+00 -3.795176783E+02  3.795176783E+02  0.000000000E+00  0.00000E+00  9.000E+00
      25     1     1     2     0     0  1.238596481E+02 -1.745687538E+02 -1.497589701E+02  2.896000887E+02  1.250000000E+02  0.00000E+00  9.000E+00
      25     1     1     2     0     0 -7.702705552E+01  1.781109719E+02 -2.413741487E+01  2.320868380E+02  1.250000000E+02  0.00000E+00  9.000E+00
      21     1     1     2   511   502 -4.683259261E+01 -3.542218109E+00 -1.434408437E+01  4.910796061E+01  6.078504936E-07  0.00000E+00  9.000E+00
#rwgt            1           1   6.5245336140892507E-002          10      289992           0
</event>
<event>
      5   9999  3.79277E-02  1.81324E+02 -1.00000E+00  1.13220E-01
      21    -1     0     0   502   501  0.000000000E+00  0.000000000E+00  3.116606367E+02  3.116606367E+02  0.000000000E+00  0.00000E+00  9.000E+00
      21    -1     0     0   512   502  0.000000000E+00  0.000000000E+00 -7.896532334E+02  7.896532334E+02  0.000000000E+00  0.00000E+00  9.000E+00
      25     1     1     2     0     0  5.257449016E+01  7.452939318E+01 -3.979003376E+02  4.269290176E+02  1.250000000E+02  0.00000E+00  9.000E+00
      25     1     1     2     0     0 -2.205971950E+02 -6.360982876E+00  2.120159009E+02  3.305742380E+02  1.250000000E+02  0.00000E+00  9.000E+00
      21     1     1     2   512   501  1.680227049E+02 -6.816841031E+01 -2.921081600E+02  3.438106145E+02  5.394796609E-06  0.00000E+00  9.000E+00
#rwgt            1           1   1.5536682883933790E-002          10      290155           0
</event>
<event>
      5   9999 -3.79277E-02  5.90488E+00 -1.00000E+00  2.26555E-01
      -3    -1     0     0     0   501  0.000000000E+00  0.000000000E+00  7.541176456E+02  7.541176456E+02  0.000000000E+00  0.00000E+00  9.000E+00
      21    -1     0     0   501   502  0.000000000E+00  0.000000000E+00 -1.505207847E+03  1.505207847E+03  0.000000000E+00  0.00000E+00  9.000E+00
      25     1     1     2     0     0 -9.392469150E+01  7.568636140E+01 -1.245148418E+03  1.257207165E+03  1.250000000E+02  0.00000E+00  9.000E+00
      25     1     1     2     0     0  8.809532912E+01 -7.662770026E+01 -2.252231275E+02  2.828127448E+02  1.250000000E+02  0.00000E+00  9.000E+00
      -3     1     1     2     0   502  5.829362383E+00  9.413388632E-01  7.192813448E+02  7.193055822E+02  0.000000000E+00  0.00000E+00  9.000E+00
#rwgt            1           1  -7.3881032430049010E-002          10      290183           0
</event>
<event>
      5   9999  3.79277E-02  2.09501E+01 -1.00000E+00  1.64723E-01
      21    -1     0     0   502   511  0.000000000E+00  0.000000000E+00  2.292591639E+02  2.292591639E+02  0.000000000E+00  0.00000E+00  9.000E+00
      21    -1     0     0   501   502  0.000000000E+00  0.000000000E+00 -2.241648344E+02  2.241648344E+02  0.000000000E+00  0.00000E+00  9.000E+00
      25     1     1     2     0     0 -8.902614251E+00  1.366188332E+02 -2.329670576E+01  1.868467250E+02  1.250000000E+02  0.00000E+00  9.000E+00
      25     1     1     2     0     0 -3.044345731E+00 -1.538285715E+02 -3.367046063E+01  2.010751038E+02  1.250000000E+02  0.00000E+00  9.000E+00
      21     1     1     2   501   511  1.194695998E+01  1.720973828E+01  6.206149585E+01  6.550216952E+01  6.743495762E-07  0.00000E+00  9.000E+00
#rwgt            1           1   4.4219774814296078E-002          10      290423           0
</event>
<event>
      5   9999  3.79277E-02  1.18751E+02 -1.00000E+00  1.20562E-01
      21    -1     0     0   502   512  0.000000000E+00  0.000000000E+00  9.291199322E+02  9.291199322E+02  0.000000000E+00  0.00000E+00  9.000E+00
      21    -1     0     0   501   502  0.000000000E+00  0.000000000E+00 -3.432954134E+02  3.432954134E+02  0.000000000E+00  0.00000E+00  9.000E+00
      25     1     1     2     0     0  2.180704255E+02 -1.667116466E+02 -1.753059041E+02  3.488619263E+02  1.250000000E+02  0.00000E+00  9.000E+00
      25     1     1     2     0     0 -3.358026532E+02  1.511927701E+02  4.759385130E+02  6.146260194E+02  1.250000000E+02  0.00000E+00  9.000E+00
      21     1     1     2   501   512  1.177322277E+02  1.551887650E+01  2.851919098E+02  3.089273999E+02  5.394796609E-06  0.00000E+00  9.000E+00
#rwgt            1           1  0.14550640259185516               10      290569           0
</event>
<event>
      5   9999  3.79277E-02  4.98039E+01 -1.00000E+00  1.39173E-01
      21    -1     0     0   502   501  0.000000000E+00  0.000000000E+00  1.510799993E+03  1.510799993E+03  0.000000000E+00  0.00000E+00  9.000E+00
      21    -1     0     0   511   502  0.000000000E+00  0.000000000E+00 -3.510040668E+01  3.510040668E+01  0.000000000E+00  0.00000E+00  9.000E+00
      25     1     1     2     0     0 -8.145620418E+01  1.239988393E+02  1.071085303E+03  1.088512541E+03  1.250000000E+02  0.00000E+00  9.000E+00
      25     1     1     2     0     0  4.497944765E+01 -9.008899515E+01  2.733478104E+02  3.169908567E+02  1.250000000E+02  0.00000E+00  9.000E+00
      21     1     1     2   511   501  3.647675653E+01 -3.390984414E+01  1.312664730E+02  1.403970022E+02  2.697398305E-06  0.00000E+00  9.000E+00
#rwgt            1           1   3.1792460378828324E-002          10      290780           0
</event>
<event>
      5   9999  3.79277E-02  1.48961E+01 -1.00000E+00  1.77668E-01
      21    -1     0     0   502   501  0.000000000E+00  0.000000000E+00  1.143308547E+02  1.143308547E+02  0.000000000E+00  0.00000E+00  9.000E+00
      21    -1     0     0   512   502  0.000000000E+00  0.000000000E+00 -1.008619580E+03  1.008619580E+03  0.000000000E+00  0.00000E+00  9.000E+00
      25     1     1     2     0     0  7.134355018E+01 -4.474578621E+01 -7.402122472E+02  7.554013889E+02  1.250000000E+02  0.00000E+00  9.000E+00
      25     1     1     2     0     0 -5.752648366E+01  5.031191979E+01  5.607099528E+01  1.568742876E+02  1.250000000E+02  0.00000E+00  9.000E+00
      21     1     1     2   512   501 -1.381706652E+01 -5.566133579E+00 -2.101474730E+02  2.106747578E+02  3.814697266E-06  0.00000E+00  9.000E+00
#rwgt            1           1   5.0028115324785211E-002          10      291016           0
</event>
<event>
      5   9999  3.79277E-02  3.85451E+01 -1.00000E+00  1.45845E-01
      21    -1     0     0   511   501  0.000000000E+00  0.000000000E+00  1.474777307E+02  1.474777307E+02  0.000000000E+00  0.00000E+00  9.000E+00
      21    -1     0     0   501   502  0.000000000E+00  0.000000000E+00 -9.138040318E+02  9.138040318E+02  0.000000000E+00  0.00000E+00  9.000E+00
      25     1     1     2     0     0  1.407254058E+02 -1.460487976E+02 -5.538752481E+02  6.029400315E+02  1.250000000E+02  0.00000E+00  9.000E+00
      25     1     1     2     0     0 -1.022696200E+02  1.486719461E+02 -2.947216899E+02  3.674891797E+02  1.250000000E+02  0.00000E+00  9.000E+00
      21     1     1     2   511   502 -3.845578580E+01 -2.623148429E+00  8.227063695E+01  9.085255127E+01  1.348699152E-06  0.00000E+00  9.000E+00
#rwgt            1           1   3.8790126029076312E-002          10      291383           0
</event>
<event>
      5   9999  3.79277E-02  5.95916E+01 -1.00000E+00  1.34862E-01
      21    -1     0     0   502   512  0.000000000E+00  0.000000000E+00  5.631270720E+02  5.631270720E+02  0.000000000E+00  0.00000E+00  9.000E+00
      21    -1     0     0   501   502  0.000000000E+00  0.000000000E+00 -9.233393455E+01  9.233393455E+01  0.000000000E+00  0.00000E+00  9.000E+00
      25     1     1     2     0     0 -1.035875880E+02  7.330088560E+01  1.657099542E+02  2.432862453E+02  1.250000000E+02  0.00000E+00  9.000E+00
      25     1     1     2     0     0  1.529968552E+02 -3.998601820E+01  1.669410199E+02  2.617273839E+02  1.250000000E+02  0.00000E+00  9.000E+00
      21     1     1     2   501   512 -4.940926725E+01 -3.331486739E+01  1.381421633E+02  1.504473774E+02  0.000000000E+00  0.00000E+00  9.000E+00
#rwgt            1           1   3.2971731026572547E-002          10      291579           0
</event>
<event>
      5   9999  3.79277E-02  1.14004E+02 -1.00000E+00  1.21321E-01
      21    -1     0     0   502   501  0.000000000E+00  0.000000000E+00  6.996826319E+02  6.996826319E+02  0.000000000E+00  0.00000E+00  9.000E+00
      21    -1     0     0   511   502  0.000000000E+00  0.000000000E+00 -1.184374231E+02  1.184374231E+02  0.000000000E+00  0.00000E+00  9.000E+00
      25     1     1     2     0     0 -1.425468582E+02 -4.068824752E+01  4.007065724E+02  4.451582835E+02  1.250000000E+02  0.00000E+00  9.000E+00
      25     1     1     2     0     0  9.285365938E+01  1.432923548E+02  1.291576173E+02  2.479136768E+02  1.250000000E+02  0.00000E+00  9.000E+00
      21     1     1     2   511   501  4.969319878E+01 -1.026041073E+02  5.138101913E+01  1.250480946E+02  6.743495762E-07  0.00000E+00  9.000E+00
#rwgt            1           1   4.0125708213226849E-002          10      291693           0
</event>
<event>
      5   9999  3.79277E-02  4.49777E+01 -1.00000E+00  1.41750E-01
      21    -1     0     0   502   512  0.000000000E+00  0.000000000E+00  3.006679053E+02  3.006679053E+02  0.000000000E+00  0.00000E+00  9.000E+00
      21    -1     0     0   501   502  0.000000000E+00  0.000000000E+00 -1.841252968E+02  1.841252968E+02  0.000000000E+00  0.00000E+00  9.000E+00
      25     1     1     2     0     0  5.217460850E+01 -1.781772112E+02  6.556190525E+01  2.332223655E+02  1.250000000E+02  0.00000E+00  9.000E+00
      25     1     1     2     0     0 -2.276129989E+01  1.441500154E+02  1.280818140E+01  1.925781743E+02  1.250000000E+02  0.00000E+00  9.000E+00
      21     1     1     2   501   512 -2.941330861E+01  3.402719572E+01  3.817252189E+01  5.899266225E+01  4.768371582E-07  0.00000E+00  9.000E+00
#rwgt            1           1   2.0812099488100446E-002          10      291958           0
</event>
<event>
      5   9999  3.79277E-02  5.10463E+01 -1.00000E+00  1.38564E-01
      21    -1     0     0   502   501  0.000000000E+00  0.000000000E+00  5.307226042E+02  5.307226042E+02  0.000000000E+00  0.00000E+00  9.000E+00
      21    -1     0     0   511   502  0.000000000E+00  0.000000000E+00 -2.432801359E+02  2.432801359E+02  0.000000000E+00  0.00000E+00  9.000E+00
      25     1     1     2     0     0  1.588312606E+02  2.279249312E+02  3.205344404E+02  4.422041058E+02  1.250000000E+02  0.00000E+00  9.000E+00
      25     1     1     2     0     0 -1.168587721E+02 -1.988727113E+02  1.347492714E+01  2.627030673E+02  1.250000000E+02  0.00000E+00  9.000E+00
      21     1     1     2   511   501 -4.197248853E+01 -2.905221993E+01 -4.656689924E+01  6.909556702E+01  6.743495762E-07  0.00000E+00  9.000E+00
#rwgt            1           1   4.4359132429770555E-002          10      292060           0
</event>
<event>
      5   9999  3.79277E-02  7.29216E+00 -1.00000E+00  2.13074E-01
      21    -1     0     0   502   512  0.000000000E+00  0.000000000E+00  1.186214867E+02  1.186214867E+02  0.000000000E+00  0.00000E+00  9.000E+00
      21    -1     0     0   501   502  0.000000000E+00  0.000000000E+00 -7.186266872E+02  7.186266872E+02  0.000000000E+00  0.00000E+00  9.000E+00
      25     1     1     2     0     0 -1.934793052E+01  1.905471872E+02 -5.250743231E+02  5.727221121E+02  1.250000000E+02  0.00000E+00  9.000E+00
      25     1     1     2     0     0  2.628092245E+01 -1.928075506E+02 -8.969143452E+01  2.480624758E+02  1.250000000E+02  0.00000E+00  9.000E+00
      21     1     1     2   501   512 -6.932991935E+00  2.260363410E+00  1.476055706E+01  1.646358602E+01  2.920019320E-07  0.00000E+00  9.000E+00
#rwgt            1           1   3.3741706479698590E-002          10      292227           0
</event>
<event>
      5   9999 -3.79277E-02  4.82776E+01 -1.00000E+00  1.39950E-01
      21    -1     0     0   502   511  0.000000000E+00  0.000000000E+00  1.040250388E+02  1.040250388E+02  0.000000000E+00  0.00000E+00  9.000E+00
      21    -1     0     0   501   502  0.000000000E+00  0.000000000E+00 -3.574176073E+02  3.574176073E+02  0.000000000E+00  0.00000E+00  9.000E+00
      25     1     1     2     0     0  7.500825382E+01  3.075264136E+01 -6.615966454E+01  1.630155339E+02  1.250000000E+02  0.00000E+00  9.000E+00
      25     1     1     2     0     0 -2.795595082E+01 -1.994502356E+01 -2.086275907E+02  2.456212750E+02  1.250000000E+02  0.00000E+00  9.000E+00
      21     1     1     2   501   511 -4.705230300E+01 -1.080761780E+01  2.139468663E+01  5.280583715E+01  4.768371582E-07  0.00000E+00  9.000E+00
#rwgt            1           1  -3.0626240204693251E-002          10      292685           0
</event>
<event>
      5   9999  3.79277E-02  4.95758E+01 -1.00000E+00  1.39287E-01
      21    -1     0     0   502   512  0.000000000E+00  0.000000000E+00  6.122032735E+01  6.122032735E+01  0.000000000E+00  0.00000E+00  9.000E+00
      21    -1     0     0   501   502  0.000000000E+00  0.000000000E+00 -8.031696571E+02  8.031696571E+02  0.000000000E+00  0.00000E+00  9.000E+00
      25     1     1     2     0     0  9.619320885E+01  5.061288350E+00 -2.090060499E+02  2.618917314E+02  1.250000000E+02  0.00000E+00  9.000E+00
      25     1     1     2     0     0 -1.418866930E+02  1.417053587E+01 -5.165923824E+02  5.502956726E+02  1.250000000E+02  0.00000E+00  9.000E+00
      21     1     1     2   501   512  4.569348414E+01 -1.923182422E+01 -1.635089738E+01  5.220258041E+01  9.830249847E-07  0.00000E+00  9.000E+00
#rwgt            1           1   3.3923344692378822E-002          10      292778           0
</event>
<event>
      5   9999  3.79277E-02  1.43755E+01 -1.00000E+00  1.79141E-01
      21    -1     0     0   502   501  0.000000000E+00  0.000000000E+00  4.441037071E+02  4.441037071E+02  0.000000000E+00  0.00000E+00  9.000E+00
      21    -1     0     0   511   502  0.000000000E+00  0.000000000E+00 -1.003581364E+02  1.003581364E+02  0.000000000E+00  0.00000E+00  9.000E+00
      25     1     1     2     0     0 -1.103415770E+02 -1.070370004E+02  1.889694123E+02  2.738003321E+02  1.250000000E+02  0.00000E+00  9.000E+00
      25     1     1     2     0     0  1.246376837E+02  1.055278367E+02  1.526702275E+02  2.561325338E+02  1.250000000E+02  0.00000E+00  9.000E+00
      21     1     1     2   511   501 -1.429610670E+01  1.509163776E+00  2.105930957E+00  1.452897751E+01  2.457562462E-07  0.00000E+00  9.000E+00
#rwgt            1           1   3.6478453778643560E-002          10      292881           0
</event>
<event>
      5   9999  3.79277E-02  8.64293E+01 -1.00000E+00  1.26745E-01
       2    -1     0     0   502     0  0.000000000E+00  0.000000000E+00  1.466442192E+03  1.466442192E+03  0.000000000E+00  0.00000E+00  9.000E+00
      21    -1     0     0   501   502  0.000000000E+00  0.000000000E+00 -8.166071966E+02  8.166071966E+02  0.000000000E+00  0.00000E+00  9.000E+00
      25     1     1     2     0     0  1.856608106E+02  1.854353401E+02 -3.671078376E+02  4.682407142E+02  1.250000000E+02  0.00000E+00  9.000E+00
      25     1     1     2     0     0 -1.679717406E+02 -2.700350891E+02 -3.241165355E+02  4.709670727E+02  1.250000000E+02  0.00000E+00  9.000E+00
       2     1     1     2   501     0 -1.768906999E+01  8.459974897E+01  1.341059369E+03  1.343841602E+03  1.525878906E-05  0.00000E+00  9.000E+00
#rwgt            1           1   3.5780726628564852E-002          10      293275           0
</event>
<event>
      5   9999  3.79277E-02  3.69772E+01 -1.00000E+00  1.46989E-01
      21    -1     0     0   502   501  0.000000000E+00  0.000000000E+00  5.616636087E+02  5.616636087E+02  0.000000000E+00  0.00000E+00  9.000E+00
       1    -1     0     0   501     0  0.000000000E+00  0.000000000E+00 -1.116252371E+02  1.116252371E+02  0.000000000E+00  0.00000E+00  9.000E+00
      25     1     1     2     0     0  3.213178581E+01  6.714086750E+01  4.441395437E+02  4.673599063E+02  1.250000000E+02  0.00000E+00  9.000E+00
      25     1     1     2     0     0 -4.860515687E+01 -1.002458810E+02  1.416281870E+01  1.680395292E+02  1.250000000E+02  0.00000E+00  9.000E+00
       1     1     1     2   502     0  1.647337106E+01  3.310501354E+01 -8.263990756E+00  3.788941037E+01  6.848052319E-07  0.00000E+00  9.000E+00
#rwgt            1           1   4.6316043141322476E-002          10      293465           0
</event>
<event>
      5   9999  3.79277E-02  5.83749E+01 -1.00000E+00  1.35344E-01
      21    -1     0     0   502   501  0.000000000E+00  0.000000000E+00  8.054396262E+01  8.054396262E+01  0.000000000E+00  0.00000E+00  9.000E+00
       1    -1     0     0   501     0  0.000000000E+00  0.000000000E+00 -2.445858547E+03  2.445858547E+03  0.000000000E+00  0.00000E+00  9.000E+00
      25     1     1     2     0     0  3.784767321E+01 -6.423730522E+01 -5.840032479E+00  1.456639411E+02  1.250000000E+02  0.00000E+00  9.000E+00
      25     1     1     2     0     0  2.048317860E+01  6.196970474E+01 -4.781851698E+02  4.985437408E+02  1.250000000E+02  0.00000E+00  9.000E+00
       1     1     1     2   502     0 -5.833085181E+01  2.267600472E+00 -1.881289382E+03  1.882194827E+03  2.157918644E-05  0.00000E+00  9.000E+00
#rwgt            1           1   3.8531574100686340E-002          10      293617           0
</event>
<event>
      5   9999  3.79277E-02  2.67575E+01 -1.00000E+00  1.56572E-01
      21    -1     0     0   502   501  0.000000000E+00  0.000000000E+00  1.363239786E+02  1.363239786E+02  0.000000000E+00  0.00000E+00  9.000E+00
      21    -1     0     0   501   511  0.000000000E+00  0.000000000E+00 -1.172775360E+03  1.172775360E+03  0.000000000E+00  0.00000E+00  9.000E+00
      25     1     1     2     0     0 -2.163099781E+02 -1.496865853E+02 -6.566200583E+02  7.183112010E+02  1.250000000E+02  0.00000E+00  9.000E+00
      25     1     1     2     0     0  2.275048825E+02  1.253835954E+02 -9.328619496E+01  3.029964220E+02  1.250000000E+02  0.00000E+00  9.000E+00
      21     1     1     2   502   511 -1.119490444E+01  2.430298991E+01 -2.865451284E+02  2.877917161E+02  3.814697266E-06  0.00000E+00  9.000E+00
#rwgt            1           1   4.2008983815462871E-002          10      293831           0
</event>
<event>
      5   9999  3.79277E-02  6.64043E+02 -1.00000E+00  9.54730E-02
      21    -1     0     0   502   501  0.000000000E+00  0.000000000E+00  1.403235967E+03  1.403235967E+03  0.000000000E+00  0.00000E+00  9.000E+00
      21    -1     0     0   501   512  0.000000000E+00  0.000000000E+00 -9.806996215E+02  9.806996215E+02  0.000000000E+00  0.00000E+00  9.000E+00
      25     1     1     2     0     0  3.545273134E+02 -1.320848238E+02  7.791189500E+02  8.750927693E+02  1.250000000E+02  0.00000E+00  9.000E+00
      25     1     1     2     0     0  2.287957958E+02  4.493971958E+02  2.789373600E+02  5.896917895E+02  1.250000000E+02  0.00000E+00  9.000E+00
      21     1     1     2   502   512 -5.833231092E+02 -3.173123720E+02 -6.355199642E+02  9.191510301E+02  7.629394531E-06  0.00000E+00  9.000E+00
#rwgt            2          11   6.5772555804178093E-004          10      294182           0
</event>
<event>
      5   9999  3.79277E-02  3.71823E+01 -1.00000E+00  1.46835E-01
      21    -1     0     0   502   501  0.000000000E+00  0.000000000E+00  2.815413500E+02  2.815413500E+02  0.000000000E+00  0.00000E+00  9.000E+00
      21    -1     0     0   511   502  0.000000000E+00  0.000000000E+00 -3.592155117E+02  3.592155117E+02  0.000000000E+00  0.00000E+00  9.000E+00
      25     1     1     2     0     0 -1.848399496E+02 -1.922906905E+02  7.357348372E+01  3.036108926E+02  1.250000000E+02  0.00000E+00  9.000E+00
      25     1     1     2     0     0  1.649143568E+02  1.608980632E+02 -1.446311418E+02  2.993795233E+02  1.250000000E+02  0.00000E+00  9.000E+00
      21     1     1     2   511   501  1.992559281E+01  3.139262732E+01 -6.616503649E+00  3.776644568E+01  8.513246093E-07  0.00000E+00  9.000E+00
#rwgt            1           1   2.4497743308233733E-002          10      294232           0
</event>
<event>
      5   9999 -3.79277E-02  1.66760E+02 -1.00000E+00  1.14599E-01
      21    -1     0     0   502   501  0.000000000E+00  0.000000000E+00  1.571683018E+02  1.571683018E+02  0.000000000E+00  0.00000E+00  9.000E+00
      21    -1     0     0   501   512  0.000000000E+00  0.000000000E+00 -1.750395100E+03  1.750395100E+03  0.000000000E+00  0.00000E+00  9.000E+00
      25     1     1     2     0     0 -7.794351063E+01  2.382815185E+02 -2.598078998E+02  3.820712207E+02  1.250000000E+02  0.00000E+00  9.000E+00
      25     1     1     2     0     0  2.371604303E+02 -1.886931142E+02 -2.090298579E+02  3.888041185E+02  1.250000000E+02  0.00000E+00  9.000E+00
      21     1     1     2   502   512 -1.592169197E+02 -4.958840422E+01 -1.124389040E+03  1.136688063E+03  1.525878906E-05  0.00000E+00  9.000E+00
#rwgt            1           1 -0.18416954750731959               10      294398           0
</event>
<event>
      5   9999  3.79277E-02  4.00911E+01 -1.00000E+00  1.44779E-01
      21    -1     0     0   502   501  0.000000000E+00  0.000000000E+00  5.759563084E+02  5.759563084E+02  0.000000000E+00  0.00000E+00  9.000E+00
      21    -1     0     0   511   502  0.000000000E+00  0.000000000E+00 -1.539324215E+02  1.539324215E+02  0.000000000E+00  0.00000E+00  9.000E+00
      25     1     1     2     0     0 -1.626180729E+01  9.133632030E+01  4.637877126E+02  4.892144848E+02  1.250000000E+02  0.00000E+00  9.000E+00
      25     1     1     2     0     0  2.946212046E+01 -1.291919480E+02  8.503377582E-01  1.821655814E+02  1.250000000E+02  0.00000E+00  9.000E+00
      21     1     1     2   511   501 -1.320031317E+01  3.785562767E+01 -4.261416337E+01  5.850866375E+01  6.743495762E-07  0.00000E+00  9.000E+00
#rwgt            1           1   4.7378727534937611E-002          10      294545           0
</event>
<event>
      5   9999  3.79277E-02  1.17047E+02 -1.00000E+00  1.20829E-01
      21    -1     0     0   502   501  0.000000000E+00  0.000000000E+00  1.308429535E+03  1.308429535E+03  0.000000000E+00  0.00000E+00  9.000E+00
      21    -1     0     0   501   512  0.000000000E+00  0.000000000E+00 -2.146555007E+02  2.146555007E+02  0.000000000E+00  0.00000E+00  9.000E+00
      25     1     1     2     0     0 -2.080087014E+01 -7.192170400E+01  6.930168179E+02  7.081685658E+02  1.250000000E+02  0.00000E+00  9.000E+00
      25     1     1     2     0     0  6.819523184E+01  1.789441093E+02  5.671272959E+02  6.114981224E+02  1.250000000E+02  0.00000E+00  9.000E+00
      21     1     1     2   502   512 -4.739436170E+01 -1.070224054E+02 -1.663700794E+02  2.034183475E+02  2.697398305E-06  0.00000E+00  9.000E+00
#rwgt            1           1   4.7393495671228858E-002          10      294698           0
</event>
<event>
      5   9999  3.79277E-02  1.72686E+01 -1.00000E+00  1.71809E-01
      21    -1     0     0   502   511  0.000000000E+00  0.000000000E+00  1.066012252E+03  1.066012252E+03  0.000000000E+00  0.00000E+00  9.000E+00
      21    -1     0     0   501   502  0.000000000E+00  0.000000000E+00 -3.297273236E+02  3.297273236E+02  0.000000000E+00  0.00000E+00  9.000E+00
      25     1     1     2     0     0  6.304184430E+01  1.710587928E+01 -2.599070646E+02  2.957085854E+02  1.250000000E+02  0.00000E+00  9.000E+00
      25     1     1     2     0     0 -7.972082235E+01 -2.157980471E+01  5.640644952E+01  1.600868047E+02  1.250000000E+02  0.00000E+00  9.000E+00
      21     1     1     2   501   511  1.667897805E+01  4.473925424E+00  9.397855432E+02  9.399441853E+02  1.525878906E-05  0.00000E+00  9.000E+00
#rwgt            1           1   2.6263195757303716E-002          10      294850           0
</event>
<event>
      5   9999  3.79277E-02  3.50593E+01 -1.00000E+00  1.48483E-01
      21    -1     0     0   502   501  0.000000000E+00  0.000000000E+00  3.065504207E+01  3.065504207E+01  0.000000000E+00  0.00000E+00  9.000E+00
      21    -1     0     0   501   512  0.000000000E+00  0.000000000E+00 -1.740932344E+03  1.740932344E+03  0.000000000E+00  0.00000E+00  9.000E+00
      25     1     1     2     0     0 -9.179309879E+01 -1.896113035E+01 -1.336424467E+03  1.345526237E+03  1.250000000E+02  0.00000E+00  9.000E+00
      25     1     1     2     0     0  6.602018619E+01  4.272901202E+01 -1.994696809E+02  2.481886119E+02  1.250000000E+02  0.00000E+00  9.000E+00
      21     1     1     2   502   512  2.577291259E+01 -2.376788167E+01 -1.743831536E+02  1.778725372E+02  3.814697266E-06  0.00000E+00  9.000E+00
#rwgt            1           1   6.7115006882624700E-002          10      295041           0
</event>
<event>
      5   9999  3.79277E-02  2.58441E+01 -1.00000E+00  1.57678E-01
      21    -1     0     0   502   501  0.000000000E+00  0.000000000E+00  4.293464667E+02  4.293464667E+02  0.000000000E+00  0.00000E+00  9.000E+00
      21    -1     0     0   511   502  0.000000000E+00  0.000000000E+00 -1.144840087E+02  1.144840087E+02  0.000000000E+00  0.00000E+00  9.000E+00
      25     1     1     2     0     0  6.421451743E+00 -1.233418068E+02  3.177722562E+01  1.785755538E+02  1.250000000E+02  0.00000E+00  9.000E+00
      25     1     1     2     0     0  1.120197247E+01  1.422449951E+02  2.813853260E+02  3.393550125E+02  1.250000000E+02  0.00000E+00  9.000E+00
      21     1     1     2   511   501 -1.762342422E+01 -1.890318831E+01  1.699906321E+00  2.589990909E+01  2.665600750E-07  0.00000E+00  9.000E+00
#rwgt            1           1   7.4229851182223347E-002          10      295173           0
</event>
<event>
      5   9999  3.79277E-02  5.81530E+01 -1.00000E+00  1.35433E-01
      21    -1     0     0   502   501  0.000000000E+00  0.000000000E+00  2.620178160E+03  2.620178160E+03  0.000000000E+00  0.00000E+00  9.000E+00
      21    -1     0     0   501   512  0.000000000E+00  0.000000000E+00 -4.705134999E+01  4.705134999E+01  0.000000000E+00  0.00000E+00  9.000E+00
      25     1     1     2     0     0 -6.887558538E+01  6.181888201E+01  4.332622565E+02  4.603331438E+02  1.250000000E+02  0.00000E+00  9.000E+00
      25     1     1     2     0     0  1.155210326E+01 -5.203189734E+01  2.144274890E+03  2.148576406E+03  1.250000000E+02  0.00000E+00  9.000E+00
      21     1     1     2   502   512  5.732348211E+01 -9.786984673E+00 -4.410336379E+00  5.831996003E+01  3.187594880E-06  0.00000E+00  9.000E+00
#rwgt            1           1   2.1470851303945260E-002          10      295459           0
</event>
<event>
      5   9999  3.79277E-02  1.11117E+02 -1.00000E+00  1.21803E-01
      21    -1     0     0   511   501  0.000000000E+00  0.000000000E+00  3.766969085E+02  3.766969085E+02  0.000000000E+00  0.00000E+00  9.000E+00
      21    -1     0     0   501   502  0.000000000E+00  0.000000000E+00 -4.843987629E+02  4.843987629E+02  0.000000000E+00  0.00000E+00  9.000E+00
      25     1     1     2     0     0 -2.239812233E+02  1.111220835E+02 -1.566490816E+02  3.204366405E+02  1.250000000E+02  0.00000E+00  9.000E+00
      25     1     1     2     0     0  2.588983728E+02 -5.633850376E+00 -1.412595372E+02  3.203737888E+02  1.250000000E+02  0.00000E+00  9.000E+00
      21     1     1     2   511   502 -3.491714953E+01 -1.054882331E+02  1.902067644E+02  2.202852421E+02  2.697398305E-06  0.00000E+00  9.000E+00
#rwgt            2          11   2.0986214412212455E-003          10      295674           0
</event>
<event>
      5   9999  3.79277E-02  5.19500E+01 -1.00000E+00  1.38134E-01
      21    -1     0     0   512   501  0.000000000E+00  0.000000000E+00  1.040386760E+02  1.040386760E+02  0.000000000E+00  0.00000E+00  9.000E+00
      21    -1     0     0   501   502  0.000000000E+00  0.000000000E+00 -8.379041047E+02  8.379041047E+02  0.000000000E+00  0.00000E+00  9.000E+00
      25     1     1     2     0     0 -1.654654587E+02 -5.792645922E+00 -1.528663619E+02  2.576926413E+02  1.250000000E+02  0.00000E+00  9.000E+00
      25     1     1     2     0     0  1.232658844E+02  3.609121187E+01 -6.020770107E+02  6.281868995E+02  1.250000000E+02  0.00000E+00  9.000E+00
      21     1     1     2   512   502  4.219957420E+01 -3.029856594E+01  2.107794397E+01  5.606324003E+01  1.215700987E-06  0.00000E+00  9.000E+00
#rwgt            1           1   3.1985735321926154E-002          10      295739           0
</event>
<event>
      5   9999  3.79277E-02  1.84264E+01 -1.00000E+00  1.69360E-01
      21    -1     0     0   511   501  0.000000000E+00  0.000000000E+00  1.240703568E+02  1.240703568E+02  0.000000000E+00  0.00000E+00  9.000E+00
      21    -1     0     0   501   502  0.000000000E+00  0.000000000E+00 -3.584105399E+02  3.584105399E+02  0.000000000E+00  0.00000E+00  9.000E+00
      25     1     1     2     0     0 -2.138751671E+01 -8.144004829E+01 -2.700357702E+02  3.092478367E+02  1.250000000E+02  0.00000E+00  9.000E+00
      25     1     1     2     0     0  2.979928912E+00  8.227243008E+01  2.448568118E+01  1.516647003E+02  1.250000000E+02  0.00000E+00  9.000E+00
      21     1     1     2   511   502  1.840758780E+01 -8.323817909E-01  1.120990587E+01  2.156835964E+01  5.591411304E-07  0.00000E+00  9.000E+00
#rwgt            1           1   5.3578685780050560E-002          10      295820           0
</event>
<event>
      5   9999  3.79277E-02  7.11046E+01 -1.00000E+00  1.30877E-01
      21    -1     0     0   502   501  0.000000000E+00  0.000000000E+00  6.873456030E+02  6.873456030E+02  0.000000000E+00  0.00000E+00  9.000E+00
      21    -1     0     0   512   502  0.000000000E+00  0.000000000E+00 -1.307158262E+02  1.307158262E+02  0.000000000E+00  0.00000E+00  9.000E+00
      25     1     1     2     0     0  3.577706426E+01 -5.778729722E+01  5.650226888E+02  5.826620023E+02  1.250000000E+02  0.00000E+00  9.000E+00
      25     1     1     2     0     0  3.504208112E+01  6.415219577E+01 -4.978541789E+01  1.531242616E+02  1.250000000E+02  0.00000E+00  9.000E+00
      21     1     1     2   512   501 -7.081914539E+01 -6.364898546E+00  4.139250589E+01  8.227516533E+01  1.261592536E-06  0.00000E+00  9.000E+00
#rwgt            1           1   4.5171420795311709E-002          10      296063           0
</event>
<event>
      5   9999  3.79277E-02  1.12580E+01 -1.00000E+00  1.89990E-01
      21    -1     0     0   502   501  0.000000000E+00  0.000000000E+00  2.393066098E+02  2.393066098E+02  0.000000000E+00  0.00000E+00  9.000E+00
      21    -1     0     0   511   502  0.000000000E+00  0.000000000E+00 -2.337054710E+02  2.337054710E+02  0.000000000E+00  0.00000E+00  9.000E+00
      25     1     1     2     0     0 -2.490546706E+01  1.625818553E+02  1.083130676E+02  2.332592176E+02  1.250000000E+02  0.00000E+00  9.000E+00
      25     1     1     2     0     0  1.372142558E+01 -1.612934159E+02 -1.018057742E+02  2.284584409E+02  1.250000000E+02  0.00000E+00  9.000E+00
      21     1     1     2   511   501  1.118404148E+01 -1.288439394E+00 -9.061545088E-01  1.129442233E+01  3.066527192E-07  0.00000E+00  9.000E+00
#rwgt            1           1   4.2494904928194376E-002          10      296347           0
</event>
<event>
      5   9999 -3.79277E-02  3.88495E+01 -1.00000E+00  1.45631E-01
      -1    -1     0     0     0   501  0.000000000E+00  0.000000000E+00  6.655339208E+02  6.655339208E+02  0.000000000E+00  0.00000E+00  9.000E+00
      21    -1     0     0   501   502  0.000000000E+00  0.000000000E+00 -1.438838318E+02  1.438838318E+02  0.000000000E+00  0.00000E+00  9.000E+00
      25     1     1     2     0     0  1.098162535E+02 -1.380221282E+02  2.613256513E+01  2.177558917E+02  1.250000000E+02  0.00000E+00  9.000E+00
      25     1     1     2     0     0 -1.423106828E+02  1.167290803E+02  2.181836243E+02  3.116201254E+02  1.250000000E+02  0.00000E+00  9.000E+00
      -1     1     1     2     0   502  3.249442932E+01  2.129304795E+01  2.773338995E+02  2.800417355E+02  5.394796609E-06  0.00000E+00  9.000E+00
#rwgt            1           1  -8.9868691301428688E-002          10      296625           0
</event>
<event>
      5   9999  3.79277E-02  5.48307E+01 -1.00000E+00  1.36828E-01
      21    -1     0     0   502   501  0.000000000E+00  0.000000000E+00  8.298486452E+01  8.298486452E+01  0.000000000E+00  0.00000E+00  9.000E+00
      21    -1     0     0   501   511  0.000000000E+00  0.000000000E+00 -7.432585511E+02  7.432585511E+02  0.000000000E+00  0.00000E+00  9.000E+00
      25     1     1     2     0     0 -3.311037104E+01  1.028248757E+02 -3.415439456E+02  3.794028446E+02  1.250000000E+02  0.00000E+00  9.000E+00
      25     1     1     2     0     0 -2.169910111E+01 -1.012982474E+02 -4.612194607E+01  1.687732794E+02  1.250000000E+02  0.00000E+00  9.000E+00
      21     1     1     2   502   511  5.480947215E+01 -1.526628213E+00 -2.726077949E+02  2.780672916E+02  6.607249480E-06  0.00000E+00  9.000E+00
#rwgt            1           1   4.6024500492438711E-002          10      296841           0
</event>
<event>
      5   9999  3.79277E-02  3.45059E+01 -1.00000E+00  1.48935E-01
      21    -1     0     0   502   512  0.000000000E+00  0.000000000E+00  1.516012195E+03  1.516012195E+03  0.000000000E+00  0.00000E+00  9.000E+00
      21    -1     0     0   501   502  0.000000000E+00  0.000000000E+00 -5.403726823E+01  5.403726823E+01  0.000000000E+00  0.00000E+00  9.000E+00
      25     1     1     2     0     0 -1.467330024E+02 -3.788567152E+01  1.961536648E+02  2.776097230E+02  1.250000000E+02  0.00000E+00  9.000E+00
      25     1     1     2     0     0  1.122307896E+02  3.738353554E+01  5.617012183E+02  5.874747122E+02  1.250000000E+02  0.00000E+00  9.000E+00
      21     1     1     2   501   512  3.450221276E+01  5.021359783E-01  7.041200441E+02  7.049650284E+02  0.000000000E+00  0.00000E+00  9.000E+00
#rwgt            1           1   4.3867297482879576E-002          10      296934           0
</event>
<event>
      5   9999  3.79277E-02  3.27900E+02 -1.00000E+00  1.04352E-01
      21    -1     0     0   502   511  0.000000000E+00  0.000000000E+00  1.351533048E+03  1.351533048E+03  0.000000000E+00  0.00000E+00  9.000E+00
      21    -1     0     0   501   502  0.000000000E+00  0.000000000E+00 -4.405530553E+02  4.405530553E+02  0.000000000E+00  0.00000E+00  9.000E+00
      25     1     1     2     0     0 -1.694654275E+01  6.205836986E+02  4.109429437E+01  6.346062191E+02  1.250000000E+02  0.00000E+00  9.000E+00
      25     1     1     2     0     0  7.996311691E+01 -2.987958976E+02  1.487048991E+02  3.652550280E+02  1.250000000E+02  0.00000E+00  9.000E+00
      21     1     1     2   501   511 -6.301657415E+01 -3.217878009E+02  7.211807992E+02  7.922248561E+02  7.629394531E-06  0.00000E+00  9.000E+00
#rwgt            1           1  0.12151096888768970               10      297091           0
</event>
<event>
      5   9999  3.79277E-02  7.67380E+00 -1.00000E+00  2.10063E-01
      21    -1     0     0   512   501  0.000000000E+00  0.000000000E+00  1.087242108E+03  1.087242108E+03  0.000000000E+00  0.00000E+00  9.000E+00
      21    -1     0     0   501   502  0.000000000E+00  0.000000000E+00 -3.452861333E+02  3.452861333E+02  0.000000000E+00  0.00000E+00  9.000E+00
      25     1     1     2     0     0  2.367612587E+01 -2.161338052E+02 -1.011914303E+02  2.704423899E+02  1.250000000E+02  0.00000E+00  9.000E+00
      25     1     1     2     0     0 -1.736052875E+01  2.204927600E+02 -5.825772876E+01  2.606480541E+02  1.250000000E+02  0.00000E+00  9.000E+00
      21     1     1     2   512   502 -6.315597113E+00 -4.358954793E+00  9.014051338E+02  9.014377973E+02  0.000000000E+00  0.00000E+00  9.000E+00
#rwgt            1           1   3.6748450317511470E-002          10      297161           0
</event>
<event>
      5   9999  3.79277E-02  4.61440E+01 -1.00000E+00  1.41094E-01
      21    -1     0     0   511   501  0.000000000E+00  0.000000000E+00  2.617104510E+03  2.617104510E+03  0.000000000E+00  0.00000E+00  9.000E+00
      21    -1     0     0   501   502  0.000000000E+00  0.000000000E+00 -5.609387883E+01  5.609387883E+01  0.000000000E+00  0.00000E+00  9.000E+00
      25     1     1     2     0     0  2.056626022E+02  1.718656762E+02  9.774843205E+02  1.021242142E+03  1.250000000E+02  0.00000E+00  9.000E+00
      25     1     1     2     0     0 -2.040977913E+02 -2.179831815E+02  7.466433492E+02  8.138021054E+02  1.250000000E+02  0.00000E+00  9.000E+00
      21     1     1     2   511   502 -1.564810888E+00  4.611750533E+01  8.368829615E+02  8.381541411E+02  1.078959322E-05  0.00000E+00  9.000E+00
#rwgt            1           1   3.7669321949503703E-002          10      297547           0
</event>
<event>
      5   9999  3.79277E-02  3.33361E+01 -1.00000E+00  1.49926E-01
      21    -1     0     0   502   501  0.000000000E+00  0.000000000E+00  2.510829578E+02  2.510829578E+02  0.000000000E+00  0.00000E+00  9.000E+00
      21    -1     0     0   512   502  0.000000000E+00  0.000000000E+00 -2.189726563E+02  2.189726563E+02  0.000000000E+00  0.00000E+00  9.000E+00
      25     1     1     2     0     0 -5.889395436E+01  1.387533445E+02  9.274351555E+01  2.166733674E+02  1.250000000E+02  0.00000E+00  9.000E+00
      25     1     1     2     0     0  4.127288408E+01 -1.670516757E+02 -5.239061016E+01  2.190422090E+02  1.250000000E+02  0.00000E+00  9.000E+00
      21     1     1     2   512   501  1.762107027E+01  2.829833116E+01 -8.242603901E+00  3.434003761E+01  5.196212463E-07  0.00000E+00  9.000E+00
#rwgt            1           1   3.6262564161487522E-002          10      297743           0
</event>
<event>
      5   9999  3.79277E-02  3.75946E+01 -1.00000E+00  1.46531E-01
      21    -1     0     0   502   501  0.000000000E+00  0.000000000E+00  1.052141800E+02  1.052141800E+02  0.000000000E+00  0.00000E+00  9.000E+00
       2    -1     0     0   501     0  0.000000000E+00  0.000000000E+00 -3.114316567E+03  3.114316567E+03  0.000000000E+00  0.00000E+00  9.000E+00
      25     1     1     2     0     0 -7.954769730E+01 -4.373510127E+01  9.543500376E+00  1.547794354E+02  1.250000000E+02  0.00000E+00  9.000E+00
      25     1     1     2     0     0  8.158263228E+01  8.127461936E+01 -2.921112450E+02  3.379574960E+02  1.250000000E+02  0.00000E+00  9.000E+00
       2     1     1     2   502     0 -2.034934980E+00 -3.753951809E+01 -2.726534643E+03  2.726793816E+03  0.000000000E+00  0.00000E+00  9.000E+00
#rwgt            1           1   4.1242285902840653E-002          10      297939           0
</event>
<event>
      5   9999  3.79277E-02  2.54254E+01 -1.00000E+00  1.58204E-01
      21    -1     0     0   511   501  0.000000000E+00  0.000000000E+00  3.530054257E+02  3.530054257E+02  0.000000000E+00  0.00000E+00  9.000E+00
      21    -1     0     0   501   502  0.000000000E+00  0.000000000E+00 -1.550098853E+02  1.550098853E+02  0.000000000E+00  0.00000E+00  9.000E+00
      25     1     1     2     0     0  5.615075641E+00  1.530661138E+02  9.159447679E+01  2.178883027E+02  1.250000000E+02  0.00000E+00  9.000E+00
      25     1     1     2     0     0  5.729927552E+00 -1.758200007E+02  4.060444217E+01  2.195887644E+02  1.250000000E+02  0.00000E+00  9.000E+00
      21     1     1     2   511   502 -1.134500319E+01  2.275388689E+01  6.579662145E+01  7.053824395E+01  9.536743164E-07  0.00000E+00  9.000E+00
#rwgt            1           1   3.2582422899929991E-002          10      298066           0
</event>
<event>
      5   9999  3.79277E-02  1.25119E+02 -1.00000E+00  1.19603E-01
      21    -1     0     0   502   501  0.000000000E+00  0.000000000E+00  6.949895289E+02  6.949895289E+02  0.000000000E+00  0.00000E+00  9.000E+00
      21    -1     0     0   501   512  0.000000000E+00  0.000000000E+00 -1.935109313E+02  1.935109313E+02  0.000000000E+00  0.00000E+00  9.000E+00
      25     1     1     2     0     0  4.988682867E+01 -2.238451222E+02  2.455813711E+02  3.585115678E+02  1.250000000E+02  0.00000E+00  9.000E+00
      25     1     1     2     0     0  7.297965498E+01  2.474798032E+02  2.820333367E+02  4.021692256E+02  1.250000000E+02  0.00000E+00  9.000E+00
      21     1     1     2   502   512 -1.228664837E+02 -2.363468095E+01 -2.613611026E+01  1.278196668E+02  2.360223517E-06  0.00000E+00  9.000E+00
#rwgt            1           1   4.1150643671243645E-002          10      298156           0
</event>
<event>
      5   9999  3.79277E-02  7.70056E+00 -1.00000E+00  2.09861E-01
      21    -1     0     0   502   501  0.000000000E+00  0.000000000E+00  5.016781741E+01  5.016781741E+01  0.000000000E+00  0.00000E+00  9.000E+00
       1    -1     0     0   501     0  0.000000000E+00  0.000000000E+00 -3.762939125E+03  3.762939125E+03  0.000000000E+00  0.00000E+00  9.000E+00
      25     1     1     2     0     0  8.269088392E+01 -7.770058323E+01 -2.270120838E+02  2.829039574E+02  1.250000000E+02  0.00000E+00  9.000E+00
      25     1     1     2     0     0 -8.110861627E+01  8.523683338E+01 -3.093829380E+02  3.538173650E+02  1.250000000E+02  0.00000E+00  9.000E+00
       1     1     1     2   502     0 -1.582267648E+00 -7.536250151E+00 -3.176376286E+03  3.176385620E+03  4.315837288E-05  0.00000E+00  9.000E+00
#rwgt            1           1   3.8721531729952983E-002          10      298285           0
</event>
<event>
      5   9999  3.79277E-02  2.69595E+01 -1.00000E+00  1.56335E-01
      21    -1     0     0   502   501  0.000000000E+00  0.000000000E+00  4.744785912E+02  4.744785912E+02  0.000000000E+00  0.00000E+00  9.000E+00
      21    -1     0     0   501   511  0.000000000E+00  0.000000000E+00 -2.488501253E+02  2.488501253E+02  0.000000000E+00  0.00000E+00  9.000E+00
      25     1     1     2     0     0  2.502848346E+02 -8.695208356E+01  4.842733606E+01  2.969400110E+02  1.250000000E+02  0.00000E+00  9.000E+00
      25     1     1     2     0     0 -2.771643025E+02  8.487577312E+01  2.135596174E+02  3.811255143E+02  1.250000000E+02  0.00000E+00  9.000E+00
      21     1     1     2   502   511  2.687946789E+01  2.076310437E+00 -3.635848762E+01  4.526319124E+01  4.768371582E-07  0.00000E+00  9.000E+00
#rwgt            1           1   4.2898476847269107E-002          10      298616           0
</event>
<event>
      5   9999  3.79277E-02  4.73847E+01 -1.00000E+00  1.40420E-01
      21    -1     0     0   502   501  0.000000000E+00  0.000000000E+00  4.523525901E+02  4.523525901E+02  0.000000000E+00  0.00000E+00  9.000E+00
      21    -1     0     0   512   502  0.000000000E+00  0.000000000E+00 -9.904278871E+01  9.904278871E+01  0.000000000E+00  0.00000E+00  9.000E+00
      25     1     1     2     0     0  1.270575214E+01 -7.583159257E+01  1.595966507E+01  1.476197056E+02  1.250000000E+02  0.00000E+00  9.000E+00
      25     1     1     2     0     0  2.700135297E+01  1.016899946E+02  3.062153613E+02  3.470774778E+02  1.250000000E+02  0.00000E+00  9.000E+00
      21     1     1     2   512   501 -3.970710511E+01 -2.585840204E+01  3.113477495E+01  5.669819541E+01  0.000000000E+00  0.00000E+00  9.000E+00
#rwgt            1           1   3.8157658427594367E-002          10      298822           0
</event>
<event>
      5   9999  3.79277E-02  7.07361E+01 -1.00000E+00  1.30991E-01
      21    -1     0     0   511   501  0.000000000E+00  0.000000000E+00  2.077652880E+02  2.077652880E+02  0.000000000E+00  0.00000E+00  9.000E+00
      21    -1     0     0   501   502  0.000000000E+00  0.000000000E+00 -2.465789886E+02  2.465789886E+02  0.000000000E+00  0.00000E+00  9.000E+00
      25     1     1     2     0     0  9.072622163E+00  3.711700925E+01 -1.610426911E+02  2.074119890E+02  1.250000000E+02  0.00000E+00  9.000E+00
      25     1     1     2     0     0 -4.370974205E+01  2.455844234E+01  4.451383099E+01  1.418454786E+02  1.250000000E+02  0.00000E+00  9.000E+00
      21     1     1     2   511   502  3.463711988E+01 -6.167545160E+01  7.771515950E+01  1.050868090E+02  1.348699152E-06  0.00000E+00  9.000E+00
#rwgt            1           1   3.1201399897098143E-002          10      298974           0
</event>
<event>
      5   9999  3.79277E-02  1.46125E+02 -1.00000E+00  1.16846E-01
      21    -1     0     0   502   512  0.000000000E+00  0.000000000E+00  2.027008566E+03  2.027008566E+03  0.000000000E+00  0.00000E+00  9.000E+00
      21    -1     0     0   501   502  0.000000000E+00  0.000000000E+00 -2.817827445E+02  2.817827445E+02  0.000000000E+00  0.00000E+00  9.000E+00
      25     1     1     2     0     0 -1.370504955E+02 -3.998790939E+01 -1.538810011E+02  2.443076620E+02  1.250000000E+02  0.00000E+00  9.000E+00
      25     1     1     2     0     0  1.417234257E+02 -1.060624849E+02  6.737747587E+01  2.269350223E+02  1.250000000E+02  0.00000E+00  9.000E+00
      21     1     1     2   501   512 -4.672930134E+00  1.460503943E+02  1.831729347E+03  1.837548626E+03  2.157918644E-05  0.00000E+00  9.000E+00
#rwgt            1           1   4.0513657901434706E-002          10      299057           0
</event>
<event>
      5   9999  3.79277E-02  4.63931E+01 -1.00000E+00  1.40957E-01
      21    -1     0     0   502   511  0.000000000E+00  0.000000000E+00  6.672510463E+01  6.672510463E+01  0.000000000E+00  0.00000E+00  9.000E+00
      21    -1     0     0   501   502  0.000000000E+00  0.000000000E+00 -9.181742965E+02  9.181742965E+02  0.000000000E+00  0.00000E+00  9.000E+00
      25     1     1     2     0     0 -1.012387291E+02  9.627112637E+01 -1.481353903E+02  2.389278215E+02  1.250000000E+02  0.00000E+00  9.000E+00
      25     1     1     2     0     0  5.495512424E+01 -9.945727537E+01 -6.640296085E+02  6.851803677E+02  1.250000000E+02  0.00000E+00  9.000E+00
      21     1     1     2   501   511  4.628360482E+01  3.186149005E+00 -3.928419302E+01  6.079121188E+01  1.348699152E-06  0.00000E+00  9.000E+00
#rwgt            1           1   3.4749351290341811E-002          10      299095           0
</event>
<event>
      5   9999  3.79277E-02  2.11422E+02 -1.00000E+00  1.10777E-01
       1    -1     0     0   502     0  0.000000000E+00  0.000000000E+00  1.540259437E+03  1.540259437E+03  0.000000000E+00  0.00000E+00  9.000E+00
      21    -1     0     0   501   502  0.000000000E+00  0.000000000E+00 -2.635812264E+02  2.635812264E+02  0.000000000E+00  0.00000E+00  9.000E+00
      25     1     1     2     0     0 -6.104866737E+01  3.476843634E+02 -5.737754674E+01  3.788516058E+02  1.250000000E+02  0.00000E+00  9.000E+00
      25     1     1     2     0     0 -1.064271379E+02 -2.186445301E+02  9.244751619E+02  9.640599002E+02  1.250000000E+02  0.00000E+00  9.000E+00
       1     1     1     2   501     0  1.674758053E+02 -1.290398333E+02  4.095805957E+02  4.609291576E+02  0.000000000E+00  0.00000E+00  9.000E+00
#rwgt            1           1   9.4902893589718526E-002          10      299260           0
</event>
<event>
      5   9999 -4.52423E-02  2.54415E+02 -1.00000E+00  1.07971E-01
      21    -1     0     0   502   501  0.000000000E+00  0.000000000E+00  3.424297345E+02  3.424297345E+02  0.000000000E+00  0.00000E+00  9.000E+00
      21    -1     0     0   501   511  0.000000000E+00  0.000000000E+00 -6.245075412E+02  6.245075412E+02  0.000000000E+00  0.00000E+00  9.000E+00
      25     1     1     2     0     0  1.957765382E+02 -3.364233962E+02 -9.274908424E+01  4.192094310E+02  1.250000000E+02  0.00000E+00  9.000E+00
      25     1     1     2     0     0 -8.546109289E+01  1.071688318E+02  5.652748134E+01  1.939306914E+02  1.250000000E+02  0.00000E+00  9.000E+00
      21     1     1     2   502   511 -1.103154453E+02  2.292545644E+02 -2.458562038E+02  3.537971534E+02  0.000000000E+00  0.00000E+00  9.000E+00
#rwgt            1           1 -0.40919078932780484               10      299346           0
</event>
<event>
      5   9999  3.79277E-02  6.93562E+01 -1.00000E+00  1.31424E-01
      21    -1     0     0   512   501  0.000000000E+00  0.000000000E+00  8.558540908E+01  8.558540908E+01  0.000000000E+00  0.00000E+00  9.000E+00
      21    -1     0     0   501   502  0.000000000E+00  0.000000000E+00 -1.332380232E+03  1.332380232E+03  0.000000000E+00  0.00000E+00  9.000E+00
      25     1     1     2     0     0  1.040046317E+02  1.629016709E+02 -9.685796583E+02  9.955528476E+02  1.250000000E+02  0.00000E+00  9.000E+00
      25     1     1     2     0     0 -3.465521047E+01 -1.619295498E+02 -2.852235907E+02  3.527033590E+02  1.250000000E+02  0.00000E+00  9.000E+00
      21     1     1     2   512   502 -6.934942127E+01 -9.721210246E-01  7.008425982E+00  6.970943469E+01  6.529361695E-07  0.00000E+00  9.000E+00
#rwgt            1           1   3.5546517535881540E-002          10      299382           0
</event>
<event>
      5   9999  3.79277E-02  3.08912E+01 -1.00000E+00  1.52162E-01
      21    -1     0     0   502   501  0.000000000E+00  0.000000000E+00  3.014899184E+02  3.014899184E+02  0.000000000E+00  0.00000E+00  9.000E+00
      21    -1     0     0   501   511  0.000000000E+00  0.000000000E+00 -2.571914442E+02  2.571914442E+02  0.000000000E+00  0.00000E+00  9.000E+00
      25     1     1     2     0     0  1.733155080E+02  1.336409366E+02  6.742584581E+01  2.609011497E+02  1.250000000E+02  0.00000E+00  9.000E+00
      25     1     1     2     0     0 -1.674524224E+02 -1.639706767E+02 -2.526819849E+01  2.668148767E+02  1.250000000E+02  0.00000E+00  9.000E+00
      21     1     1     2   502   511 -5.863085561E+00  3.032974004E+01  2.140826870E+00  3.096533615E+01  3.650024150E-07  0.00000E+00  9.000E+00
#rwgt            1           1   7.2609764205576813E-002          10      299500           0
</event>
<event>
      5   9999  3.79277E-02  8.75613E+00 -1.00000E+00  2.02671E-01
      21    -1     0     0   502   512  0.000000000E+00  0.000000000E+00  1.619447589E+03  1.619447589E+03  0.000000000E+00  0.00000E+00  9.000E+00
      21    -1     0     0   501   502  0.000000000E+00  0.000000000E+00 -3.550362695E+01  3.550362695E+01  0.000000000E+00  0.00000E+00  9.000E+00
      25     1     1     2     0     0 -1.583074103E+02 -4.600789253E+01  9.096399443E+02  9.328707256E+02  1.250000000E+02  0.00000E+00  9.000E+00
      25     1     1     2     0     0  1.517789378E+02  4.017274807E+01  3.989140699E+02  4.465513753E+02  1.250000000E+02  0.00000E+00  9.000E+00
      21     1     1     2   501   512  6.528472514E+00  5.835144454E+00  2.753899474E+02  2.755291146E+02  3.814697266E-06  0.00000E+00  9.000E+00
#rwgt            1           1   7.1004632086210384E-002          10      299704           0
</event>
<event>
      5   9999  3.79277E-02  3.19091E+01 -1.00000E+00  1.51202E-01
      21    -1     0     0   502   501  0.000000000E+00  0.000000000E+00  4.078784515E+01  4.078784515E+01  0.000000000E+00  0.00000E+00  9.000E+00
      21    -1     0     0   501   511  0.000000000E+00  0.000000000E+00 -9.620355260E+02  9.620355260E+02  0.000000000E+00  0.00000E+00  9.000E+00
      25     1     1     2     0     0 -3.482654705E+01 -2.451210853E+01 -1.017969035E+02  1.667373426E+02  1.250000000E+02  0.00000E+00  9.000E+00
      25     1     1     2     0     0  4.519117300E+01 -5.666755148E+00 -6.214807208E+02  6.355608866E+02  1.250000000E+02  0.00000E+00  9.000E+00
      21     1     1     2   502   511 -1.036462595E+01  3.017886368E+01 -1.979700565E+02  2.005251420E+02  0.000000000E+00  0.00000E+00  9.000E+00
#rwgt            1           1   4.4564025692134884E-002          10      300183           0
</event>
<event>
      5   9999  3.79277E-02  7.03362E+01 -1.00000E+00  1.31115E-01
      21    -1     0     0   502   501  0.000000000E+00  0.000000000E+00  1.785189917E+02  1.785189917E+02  0.000000000E+00  0.00000E+00  9.000E+00
      21    -1     0     0   501   512  0.000000000E+00  0.000000000E+00 -8.507100586E+02  8.507100586E+02  0.000000000E+00  0.00000E+00  9.000E+00
      25     1     1     2     0     0  2.772490777E+02  5.654652857E+01 -1.510545416E+02  3.442485084E+02  1.250000000E+02  0.00000E+00  9.000E+00
      25     1     1     2     0     0 -2.159843565E+02 -2.199495834E+01 -1.200887750E+02  2.778116886E+02  1.250000000E+02  0.00000E+00  9.000E+00
      21     1     1     2   502   512 -6.126472119E+01 -3.455157023E+01 -4.010477504E+02  4.071688533E+02  5.394796609E-06  0.00000E+00  9.000E+00
#rwgt            1           1  0.17389077042111864               10      300417           0
</event>
<event>
      5   9999 -3.79277E-02  1.09807E+02 -1.00000E+00  1.22028E-01
      21    -1     0     0   511   501  0.000000000E+00  0.000000000E+00  1.819550021E+03  1.819550021E+03  0.000000000E+00  0.00000E+00  9.000E+00
      21    -1     0     0   501   502  0.000000000E+00  0.000000000E+00 -2.432897324E+02  2.432897324E+02  0.000000000E+00  0.00000E+00  9.000E+00
      25     1     1     2     0     0  1.880140022E+02  1.293830043E+02 -1.268092255E+02  2.894733260E+02  1.250000000E+02  0.00000E+00  9.000E+00
      25     1     1     2     0     0 -2.166797876E+02 -2.353825651E+02  1.532402394E+03  1.570425796E+03  1.250000000E+02  0.00000E+00  9.000E+00
      21     1     1     2   511   502  2.866578544E+01  1.059995608E+02  1.706671202E+02  2.029406319E+02  2.697398305E-06  0.00000E+00  9.000E+00
#rwgt            1           1 -0.16498388222811503               10      300555           0
</event>
<event>
      5   9999  3.79277E-02  1.62779E+01 -1.00000E+00  1.74102E-01
      21    -1     0     0   502   501  0.000000000E+00  0.000000000E+00  4.989111486E+02  4.989111486E+02  0.000000000E+00  0.00000E+00  9.000E+00
      21    -1     0     0   501   512  0.000000000E+00  0.000000000E+00 -2.220162677E+02  2.220162677E+02  0.000000000E+00  0.00000E+00  9.000E+00
      25     1     1     2     0     0 -1.784419461E+02 -2.774942832E+01  2.923496990E+02  3.656568137E+02  1.250000000E+02  0.00000E+00  9.000E+00
      25     1     1     2     0     0  1.751586234E+02  1.180604990E+01  1.007734491E+02  2.379079953E+02  1.250000000E+02  0.00000E+00  9.000E+00
      21     1     1     2   502   512  3.283322671E+00  1.594337842E+01 -1.162282672E+02  1.173626074E+02  0.000000000E+00  0.00000E+00  9.000E+00
#rwgt            1           1   3.9112310014554098E-002          10      300729           0
</event>
<event>
      5   9999  3.79277E-02  3.99098E+01 -1.00000E+00  1.44901E-01
      21    -1     0     0   502   501  0.000000000E+00  0.000000000E+00  3.867291938E+02  3.867291938E+02  0.000000000E+00  0.00000E+00  9.000E+00
      21    -1     0     0   501   511  0.000000000E+00  0.000000000E+00 -2.451373991E+02  2.451373991E+02  0.000000000E+00  0.00000E+00  9.000E+00
      25     1     1     2     0     0 -1.595205658E+02 -1.174948537E+02  2.433540165E+02  3.377839974E+02  1.250000000E+02  0.00000E+00  9.000E+00
      25     1     1     2     0     0  1.342040882E+02  1.483472310E+02 -8.397677663E+01  2.503891716E+02  1.250000000E+02  0.00000E+00  9.000E+00
      21     1     1     2   502   511  2.531647765E+01 -3.085237731E+01 -1.778544522E+01  4.369342385E+01  5.331201500E-07  0.00000E+00  9.000E+00
#rwgt            1           1   3.8932886514559159E-002          10      301106           0
</event>
<event>
      5   9999  3.79277E-02  5.86957E+00 -1.00000E+00  2.26964E-01
      21    -1     0     0   502   501  0.000000000E+00  0.000000000E+00  1.466365758E+02  1.466365758E+02  0.000000000E+00  0.00000E+00  9.000E+00
      21    -1     0     0   501   512  0.000000000E+00  0.000000000E+00 -3.310770097E+02  3.310770097E+02  0.000000000E+00  0.00000E+00  9.000E+00
      25     1     1     2     0     0  1.084052923E+02 -7.605511261E+01 -5.764171117E+01  1.910069486E+02  1.250000000E+02  0.00000E+00  9.000E+00
      25     1     1     2     0     0 -1.141264383E+02  7.474349517E+01 -2.729892165E+01  1.870338609E+02  1.250000000E+02  0.00000E+00  9.000E+00
      21     1     1     2   502   512  5.721146024E+00  1.311617447E+00 -9.949980114E+01  9.967277601E+01  1.348699152E-06  0.00000E+00  9.000E+00
#rwgt            1           1   3.0643860210641326E-002          10      301274           0
</event>
<event>
      5   9999  3.79277E-02  1.56653E+01 -1.00000E+00  1.75626E-01
      21    -1     0     0   502   501  0.000000000E+00  0.000000000E+00  6.323966244E+01  6.323966244E+01  0.000000000E+00  0.00000E+00  9.000E+00
      21    -1     0     0   511   502  0.000000000E+00  0.000000000E+00 -1.257335834E+03  1.257335834E+03  0.000000000E+00  0.00000E+00  9.000E+00
      25     1     1     2     0     0 -6.663406359E+01 -2.044711552E+02 -7.071054599E+02  7.495810051E+02  1.250000000E+02  0.00000E+00  9.000E+00
      25     1     1     2     0     0  8.217683671E+01  2.064264189E+02 -3.494071188E+02  4.325219458E+02  1.250000000E+02  0.00000E+00  9.000E+00
      21     1     1     2   511   501 -1.554277312E+01 -1.955263668E+00 -1.375835934E+02  1.384725461E+02  2.697398305E-06  0.00000E+00  9.000E+00
#rwgt            1           1   3.8777025141657040E-002          10      301623           0
</event>
<event>
      5   9999  3.79277E-02  9.39446E+01 -1.00000E+00  1.25060E-01
      21    -1     0     0   512   501  0.000000000E+00  0.000000000E+00  3.146085250E+02  3.146085250E+02  0.000000000E+00  0.00000E+00  9.000E+00
      21    -1     0     0   501   502  0.000000000E+00  0.000000000E+00 -1.405832572E+02  1.405832572E+02  0.000000000E+00  0.00000E+00  9.000E+00
      25     1     1     2     0     0  4.099777032E+01  1.033959013E+02  3.820039887E+01  1.716269211E+02  1.250000000E+02  0.00000E+00  9.000E+00
      25     1     1     2     0     0 -8.499422637E+01 -2.039045042E+01  6.446688680E+01  1.655921752E+02  1.250000000E+02  0.00000E+00  9.000E+00
      21     1     1     2   512   502  4.399645605E+01 -8.300545084E+01  7.135798217E+01  1.179726860E+02  1.651812370E-06  0.00000E+00  9.000E+00
#rwgt            1           1   2.9131725048861603E-002          10      301837           0
</event>
<event>
      5   9999  3.79277E-02  7.49714E+00 -1.00000E+00  2.11427E-01
      21    -1     0     0   502   511  0.000000000E+00  0.000000000E+00  5.558263975E+02  5.558263975E+02  0.000000000E+00  0.00000E+00  9.000E+00
      21    -1     0     0   501   502  0.000000000E+00  0.000000000E+00 -2.874362796E+02  2.874362796E+02  0.000000000E+00  0.00000E+00  9.000E+00
      25     1     1     2     0     0  3.216912762E+02 -1.540077169E+02  1.919333692E+02  4.238715280E+02  1.250000000E+02  0.00000E+00  9.000E+00
      25     1     1     2     0     0 -3.211629008E+02  1.465292171E+02  3.372165702E+01  3.760034182E+02  1.250000000E+02  0.00000E+00  9.000E+00
      21     1     1     2   501   511 -5.283753691E-01  7.478499721E+00  4.273509166E+01  4.338773096E+01  6.743495762E-07  0.00000E+00  9.000E+00
#rwgt            1           1   2.3754093364832293E-002          10      301935           0
</event>
<event>
      5   9999  3.79277E-02  5.84527E+01 -1.00000E+00  1.35313E-01
      21    -1     0     0   502   501  0.000000000E+00  0.000000000E+00  2.656727497E+02  2.656727497E+02  0.000000000E+00  0.00000E+00  9.000E+00
      21    -1     0     0   512   502  0.000000000E+00  0.000000000E+00 -8.420885876E+02  8.420885876E+02  0.000000000E+00  0.00000E+00  9.000E+00
      25     1     1     2     0     0  1.131760043E+02  3.355704821E+01  4.792492430E+01  1.784844021E+02  1.250000000E+02  0.00000E+00  9.000E+00
      25     1     1     2     0     0 -1.708498859E+02 -4.306689886E+01  7.410627855E+01  2.283882261E+02  1.250000000E+02  0.00000E+00  9.000E+00
      21     1     1     2   512   501  5.767388166E+01  9.509850656E+00 -6.984470407E+02  7.008887091E+02  7.629394531E-06  0.00000E+00  9.000E+00
#rwgt            1           1   3.2255306780330908E-002          10      302330           0
</event>
<event>
      5   9999  3.79277E-02  1.40520E+01 -1.00000E+00  1.80097E-01
      21    -1     0     0   502   501  0.000000000E+00  0.000000000E+00  5.638358866E+01  5.638358866E+01  0.000000000E+00  0.00000E+00  9.000E+00
      21    -1     0     0   511   502  0.000000000E+00  0.000000000E+00 -8.741352308E+02  8.741352308E+02  0.000000000E+00  0.00000E+00  9.000E+00
      25     1     1     2     0     0 -1.353491801E+02 -1.991874192E+01 -5.659547684E+02  5.955215837E+02  1.250000000E+02  0.00000E+00  9.000E+00
      25     1     1     2     0     0  1.461690423E+02  1.095266585E+01 -1.862255651E+02  2.679371399E+02  1.250000000E+02  0.00000E+00  9.000E+00
      21     1     1     2   511   501 -1.081986219E+01  8.966076067E+00 -6.557130867E+01  6.706009587E+01  0.000000000E+00  0.00000E+00  9.000E+00
#rwgt            1           1   4.3030493287359001E-002          10      302406           0
</event>
<event>
      5   9999  3.79277E-02  2.42804E+01 -1.00000E+00  1.59707E-01
      21    -1     0     0   502   501  0.000000000E+00  0.000000000E+00  5.253301214E+02  5.253301214E+02  0.000000000E+00  0.00000E+00  9.000E+00
      21    -1     0     0   501   512  0.000000000E+00  0.000000000E+00 -7.964475139E+01  7.964475139E+01  0.000000000E+00  0.00000E+00  9.000E+00
      25     1     1     2     0     0 -1.061204277E+02 -9.686331025E+01  2.553200723E+02  3.185237595E+02  1.250000000E+02  0.00000E+00  9.000E+00
      25     1     1     2     0     0  1.198583333E+02  7.684315066E+01  1.733742792E+02  2.568161416E+02  1.250000000E+02  0.00000E+00  9.000E+00
      21     1     1     2   502   512 -1.373790559E+01  2.002015959E+01  1.699101854E+01  2.963497176E+01  7.152557373E-07  0.00000E+00  9.000E+00
#rwgt            1           1   7.4497443285229045E-002          10      302582           0
</event>
<event>
      5   9999  3.79277E-02  1.01740E+02 -1.00000E+00  1.23492E-01
      21    -1     0     0   511   501  0.000000000E+00  0.000000000E+00  8.147428893E+02  8.147428893E+02  0.000000000E+00  0.00000E+00  9.000E+00
      21    -1     0     0   501   502  0.000000000E+00  0.000000000E+00 -1.355439823E+02  1.355439823E+02  0.000000000E+00  0.00000E+00  9.000E+00
      25     1     1     2     0     0  6.731828878E-02  5.100353400E-01 -7.735198376E+01  1.469986192E+02  1.250000000E+02  0.00000E+00  9.000E+00
      25     1     1     2     0     0 -1.001738715E+02 -1.866794315E+01  3.709266280E+02  4.044686143E+02  1.250000000E+02  0.00000E+00  9.000E+00
      21     1     1     2   511   502  1.001065532E+02  1.815790781E+01  3.856242628E+02  3.988196380E+02  5.394796609E-06  0.00000E+00  9.000E+00
#rwgt            2          11   1.2520250302717672E-003          10      302781           0
</event>
<event>
      5   9999  3.79277E-02  1.10350E+02 -1.00000E+00  1.21934E-01
      21    -1     0     0   502   501  0.000000000E+00  0.000000000E+00  8.387124828E+02  8.387124828E+02  0.000000000E+00  0.00000E+00  9.000E+00
       1    -1     0     0   501     0  0.000000000E+00  0.000000000E+00 -1.272644831E+02  1.272644831E+02  0.000000000E+00  0.00000E+00  9.000E+00
      25     1     1     2     0     0  1.585214615E+02 -1.132623450E+02  4.228624558E+02  4.820737174E+02  1.250000000E+02  0.00000E+00  9.000E+00
      25     1     1     2     0     0 -9.084703559E+01  2.004248067E+02  1.144648741E+02  2.777597782E+02  1.250000000E+02  0.00000E+00  9.000E+00
       1     1     1     2   502     0 -6.767442588E+01 -8.716246168E+01  1.741206699E+02  2.061434703E+02  1.907348633E-06  0.00000E+00  9.000E+00
#rwgt            1           1   3.8138003410268830E-002          10      302846           0
</event>
<event>
      5   9999  3.79277E-02  6.22208E+01 -1.00000E+00  1.33865E-01
      21    -1     0     0   502   511  0.000000000E+00  0.000000000E+00  5.769788487E+02  5.769788487E+02  0.000000000E+00  0.00000E+00  9.000E+00
      21    -1     0     0   501   502  0.000000000E+00  0.000000000E+00 -1.292801002E+02  1.292801002E+02  0.000000000E+00  0.00000E+00  9.000E+00
      25     1     1     2     0     0 -1.680145181E+02  1.518981321E+02  2.076317929E+02  3.317195838E+02  1.250000000E+02  0.00000E+00  9.000E+00
      25     1     1     2     0     0  1.594234846E+02 -9.027331033E+01  1.617026506E+02  2.744774403E+02  1.250000000E+02  0.00000E+00  9.000E+00
      21     1     1     2   501   511  8.591033573E+00 -6.162482172E+01  7.836430499E+01  1.000619249E+02  9.536743164E-07  0.00000E+00  9.000E+00
#rwgt            1           1   4.1317994163565283E-002          10      302926           0
</event>
<event>
      5   9999  3.79277E-02  5.45154E+01 -1.00000E+00  1.36966E-01
      21    -1     0     0   502   501  0.000000000E+00  0.000000000E+00  2.223663009E+02  2.223663009E+02  0.000000000E+00  0.00000E+00  9.000E+00
      21    -1     0     0   501   512  0.000000000E+00  0.000000000E+00 -5.720366562E+02  5.720366562E+02  0.000000000E+00  0.00000E+00  9.000E+00
      25     1     1     2     0     0 -1.007455655E+02 -1.307646700E+01  1.162956163E+02  1.986714205E+02  1.250000000E+02  0.00000E+00  9.000E+00
      25     1     1     2     0     0  6.103917276E+01  5.043054484E+01 -2.338151799E+01  1.498022558E+02  1.250000000E+02  0.00000E+00  9.000E+00
      21     1     1     2   502   512  3.970639277E+01 -3.735407785E+01 -4.425844537E+02  4.459292807E+02  5.394796609E-06  0.00000E+00  9.000E+00
#rwgt            1           1   4.3600882777118211E-002          10      303074           0
</event>
<event>
      5   9999  3.79277E-02  4.10358E+01 -1.00000E+00  1.44155E-01
       2    -1     0     0   502     0  0.000000000E+00  0.000000000E+00  5.311061376E+02  5.311061376E+02  0.000000000E+00  0.00000E+00  9.000E+00
      21    -1     0     0   501   502  0.000000000E+00  0.000000000E+00 -9.673896954E+02  9.673896954E+02  0.000000000E+00  0.00000E+00  9.000E+00
      25     1     1     2     0     0  1.922960818E+02  7.873088658E+01 -5.434100992E+02  5.950595528E+02  1.250000000E+02  0.00000E+00  9.000E+00
      25     1     1     2     0     0 -1.827496620E+02 -3.882092633E+01 -3.654674452E+02  4.290640474E+02  1.250000000E+02  0.00000E+00  9.000E+00
       2     1     1     2   501     0 -9.546419784E+00 -3.990996025E+01  4.725939866E+02  4.743722328E+02  0.000000000E+00  0.00000E+00  9.000E+00
#rwgt            1           1   3.6481334440005411E-002          10      303243           0
</event>
<event>
      5   9999  3.79277E-02  1.11966E+01 -1.00000E+00  1.90249E-01
      21    -1     0     0   502   511  0.000000000E+00  0.000000000E+00  2.580550866E+01  2.580550866E+01  0.000000000E+00  0.00000E+00  9.000E+00
      21    -1     0     0   501   502  0.000000000E+00  0.000000000E+00 -1.769473874E+03  1.769473874E+03  0.000000000E+00  0.00000E+00  9.000E+00
      25     1     1     2     0     0  1.532905900E+02 -5.455054939E+01 -9.516470769E+02  9.735147284E+02  1.250000000E+02  0.00000E+00  9.000E+00
      25     1     1     2     0     0 -1.515764004E+02  6.561511185E+01 -7.642009907E+02  7.917757904E+02  1.250000000E+02  0.00000E+00  9.000E+00
      21     1     1     2   501   511 -1.714189545E+00 -1.106456246E+01 -2.782029724E+01  2.998886338E+01  3.371747881E-07  0.00000E+00  9.000E+00
#rwgt            1           1   4.7039497487832510E-002          10      303436           0
</event>
<event>
      5   9999  3.79277E-02  8.60957E+01 -1.00000E+00  1.26825E-01
      21    -1     0     0   502   501  0.000000000E+00  0.000000000E+00  1.113814926E+02  1.113814926E+02  0.000000000E+00  0.00000E+00  9.000E+00
      21    -1     0     0   512   502  0.000000000E+00  0.000000000E+00 -9.033480137E+02  9.033480137E+02  0.000000000E+00  0.00000E+00  9.000E+00
      25     1     1     2     0     0  2.436465500E+02  7.222494507E+01 -3.897681793E+02  4.817928161E+02  1.250000000E+02  0.00000E+00  9.000E+00
      25     1     1     2     0     0 -1.824326343E+02 -1.327668325E+02 -2.569162713E+02  3.640599791E+02  1.250000000E+02  0.00000E+00  9.000E+00
      21     1     1     2   512   501 -6.121391568E+01  6.054188741E+01 -1.452820704E+02  1.688767112E+02  2.697398305E-06  0.00000E+00  9.000E+00
#rwgt            1           1  0.17483663243438208               10      303772           0
</event>
<event>
      5   9999  3.79277E-02  1.41872E+02 -1.00000E+00  1.17361E-01
      21    -1     0     0   502   501  0.000000000E+00  0.000000000E+00  8.409419174E+01  8.409419174E+01  0.000000000E+00  0.00000E+00  9.000E+00
       1    -1     0     0   501     0  0.000000000E+00  0.000000000E+00 -1.729151906E+03  1.729151906E+03  0.000000000E+00  0.00000E+00  9.000E+00
      25     1     1     2     0     0 -1.079519033E+02  4.475317059E+00 -1.046050007E+02  1.955526734E+02  1.250000000E+02  0.00000E+00  9.000E+00
      25     1     1     2     0     0  1.253829682E+02 -1.452719150E+02 -3.465277828E+02  4.153688990E+02  1.250000000E+02  0.00000E+00  9.000E+00
       1     1     1     2   502     0 -1.743106482E+01  1.407965979E+02 -1.193924931E+03  1.202324525E+03  1.525878906E-05  0.00000E+00  9.000E+00
#rwgt            1           1   3.7772411391821567E-002          10      303871           0
</event>
<event>
      5   9999  3.79277E-02  6.77304E+01 -1.00000E+00  1.31950E-01
      21    -1     0     0   502   501  0.000000000E+00  0.000000000E+00  2.742699602E+02  2.742699602E+02  0.000000000E+00  0.00000E+00  9.000E+00
      21    -1     0     0   511   502  0.000000000E+00  0.000000000E+00 -2.630491291E+02  2.630491291E+02  0.000000000E+00  0.00000E+00  9.000E+00
      25     1     1     2     0     0 -1.082350625E+02 -3.843500559E+00  1.522395483E+02  2.247920846E+02  1.250000000E+02  0.00000E+00  9.000E+00
      25     1     1     2     0     0  1.204486683E+02  7.046361496E+01 -4.107390959E+01  1.917943398E+02  1.250000000E+02  0.00000E+00  9.000E+00
      21     1     1     2   511   501 -1.221360580E+01 -6.662011440E+01 -9.994480756E+01  1.207326649E+02  1.348699152E-06  0.00000E+00  9.000E+00
#rwgt            1           1   2.7514478151594423E-002          10      303924           0
</event>
<event>
      5   9999  3.79277E-02  9.90668E+01 -1.00000E+00  1.24011E-01
      21    -1     0     0   502   512  0.000000000E+00  0.000000000E+00  1.390079788E+02  1.390079788E+02  0.000000000E+00  0.00000E+00  9.000E+00
      21    -1     0     0   501   502  0.000000000E+00  0.000000000E+00 -6.485463901E+02  6.485463901E+02  0.000000000E+00  0.00000E+00  9.000E+00
      25     1     1     2     0     0  7.116768303E+01  5.585166323E+01  2.933566842E+01  1.570663199E+02  1.250000000E+02  0.00000E+00  9.000E+00
      25     1     1     2     0     0 -8.139925435E+01  4.268536715E+01 -5.009220605E+02  5.244004099E+02  1.250000000E+02  0.00000E+00  9.000E+00
      21     1     1     2   501   512  1.023157133E+01 -9.853703038E+01 -3.795201918E+01  1.060876391E+02  8.259061849E-07  0.00000E+00  9.000E+00
#rwgt            1           1   4.8782718367977908E-002          10      303984           0
</event>
<event>
      5   9999 -3.79277E-02  6.11505E+01 -1.00000E+00  1.34264E-01
      21    -1     0     0   511   501  0.000000000E+00  0.000000000E+00  5.698417448E+02  5.698417448E+02  0.000000000E+00  0.00000E+00  9.000E+00
      21    -1     0     0   501   502  0.000000000E+00  0.000000000E+00 -2.921060205E+02  2.921060205E+02  0.000000000E+00  0.00000E+00  9.000E+00
      25     1     1     2     0     0 -2.624729263E+02 -7.188135854E+01 -8.775714331E+01  3.120661516E+02  1.250000000E+02  0.00000E+00  9.000E+00
      25     1     1     2     0     0  2.501547607E+02  1.317783032E+02  1.872207726E+02  3.614132582E+02  1.250000000E+02  0.00000E+00  9.000E+00
      21     1     1     2   511   502  1.231816565E+01 -5.989694467E+01  1.782720950E+02  1.884683555E+02  1.907348633E-06  0.00000E+00  9.000E+00
#rwgt            1           1  -1.8886523580252366E-002          10      304056           0
</event>
<event>
      5   9999  3.79277E-02  1.89216E+02 -1.00000E+00  1.12531E-01
      21    -1     0     0   502   501  0.000000000E+00  0.000000000E+00  6.507355811E+02  6.507355811E+02  0.000000000E+00  0.00000E+00  9.000E+00
      21    -1     0     0   512   502  0.000000000E+00  0.000000000E+00 -2.601854056E+02  2.601854056E+02  0.000000000E+00  0.00000E+00  9.000E+00
      25     1     1     2     0     0  1.011515576E+02  1.415270165E+01  3.666070000E+02  4.005716278E+02  1.250000000E+02  0.00000E+00  9.000E+00
      25     1     1     2     0     0 -2.645000002E+02 -1.096508719E+02  5.891169368E+01  3.179294756E+02  1.250000000E+02  0.00000E+00  9.000E+00
      21     1     1     2   512   501  1.633484427E+02  9.549817021E+01 -3.496851808E+01  1.924198833E+02  3.371747881E-06  0.00000E+00  9.000E+00
#rwgt            1           1   4.4398141201548440E-002          10      304118           0
</event>
<event>
      5   9999  3.79277E-02  2.18578E+02 -1.00000E+00  1.10261E-01
      21    -1     0     0   502   501  0.000000000E+00  0.000000000E+00  6.163621659E+01  6.163621659E+01  0.000000000E+00  0.00000E+00  9.000E+00
       1    -1     0     0   501     0  0.000000000E+00  0.000000000E+00 -3.754793701E+03  3.754793701E+03  0.000000000E+00  0.00000E+00  9.000E+00
      25     1     1     2     0     0 -7.167190520E+01  1.141129110E+02 -5.715265395E+02  6.003550648E+02  1.250000000E+02  0.00000E+00  9.000E+00
      25     1     1     2     0     0  6.636778518E+01  1.044010492E+02 -1.356487857E+02  2.221032531E+02  1.250000000E+02  0.00000E+00  9.000E+00
       1     1     1     2   502     0  5.304120017E+00 -2.185139603E+02 -2.985982159E+03  2.993971599E+03  4.315837288E-05  0.00000E+00  9.000E+00
#rwgt            1           1   4.6576999310713803E-002          10      304165           0
</event>
<event>
      5   9999  3.79277E-02  6.22797E+00 -1.00000E+00  2.22986E-01
      21    -1     0     0   511   501  0.000000000E+00  0.000000000E+00  8.735358432E+01  8.735358432E+01  0.000000000E+00  0.00000E+00  9.000E+00
      21    -1     0     0   501   502  0.000000000E+00  0.000000000E+00 -5.178398998E+02  5.178398998E+02  0.000000000E+00  0.00000E+00  9.000E+00
      25     1     1     2     0     0 -4.707975565E+01 -1.190899606E+02 -3.470159580E+02  3.904407730E+02  1.250000000E+02  0.00000E+00  9.000E+00
      25     1     1     2     0     0  5.310821322E+01  1.175262293E+02 -9.385090436E+01  2.026472036E+02  1.250000000E+02  0.00000E+00  9.000E+00
      21     1     1     2   511   502 -6.028457569E+00  1.563731380E+00  1.038054693E+01  1.210550747E+01  2.920019320E-07  0.00000E+00  9.000E+00
#rwgt            1           1   3.7803716345984305E-002          10      304230           0
</event>
<event>
      5   9999  3.79277E-02  5.54218E+01 -1.00000E+00  1.36572E-01
      21    -1     0     0   502   501  0.000000000E+00  0.000000000E+00  1.957599798E+02  1.957599798E+02  0.000000000E+00  0.00000E+00  9.000E+00
      21    -1     0     0   501   512  0.000000000E+00  0.000000000E+00 -1.436392341E+03  1.436392341E+03  0.000000000E+00  0.00000E+00  9.000E+00
      25     1     1     2     0     0  2.819816383E+02  3.376814999E+02 -7.215254034E+02  8.542636288E+02  1.250000000E+02  0.00000E+00  9.000E+00
      25     1     1     2     0     0 -3.128614923E+02 -3.837032998E+02 -4.075532335E+02  6.533262384E+02  1.250000000E+02  0.00000E+00  9.000E+00
      21     1     1     2   502   512  3.087985404E+01  4.602179988E+01 -1.115537239E+02  1.245624533E+02  1.907348633E-06  0.00000E+00  9.000E+00
#rwgt            1           1  0.11347747393410143               10      304557           0
</event>
<event>
      5   9999  3.79277E-02  2.00842E+01 -1.00000E+00  1.66219E-01
      21    -1     0     0   502   511  0.000000000E+00  0.000000000E+00  1.559720755E+02  1.559720755E+02  0.000000000E+00  0.00000E+00  9.000E+00
      21    -1     0     0   501   502  0.000000000E+00  0.000000000E+00 -8.358787308E+02  8.358787308E+02  0.000000000E+00  0.00000E+00  9.000E+00
      25     1     1     2     0     0 -5.548102647E+01 -2.645109123E+02 -7.717932157E+01  3.076130925E+02  1.250000000E+02  0.00000E+00  9.000E+00
      25     1     1     2     0     0  3.607870572E+01  2.593220700E+02 -5.963251441E+02  6.631578141E+02  1.250000000E+02  0.00000E+00  9.000E+00
      21     1     1     2   501   511  1.940232075E+01  5.188842282E+00 -6.402189652E+00  2.107989960E+01  5.331201500E-07  0.00000E+00  9.000E+00
#rwgt            2          11   7.0805536210651028E-003          10      304702           0
</event>
<event>
      5   9999  3.79277E-02  1.45563E+01 -1.00000E+00  1.78621E-01
      21    -1     0     0   502   512  0.000000000E+00  0.000000000E+00  3.808558033E+01  3.808558033E+01  0.000000000E+00  0.00000E+00  9.000E+00
      21    -1     0     0   501   502  0.000000000E+00  0.000000000E+00 -6.694953222E+02  6.694953222E+02  0.000000000E+00  0.00000E+00  9.000E+00
      25     1     1     2     0     0 -8.251591300E+01 -1.788357133E+01 -3.407480135E+02  3.726431359E+02  1.250000000E+02  0.00000E+00  9.000E+00
      25     1     1     2     0     0  8.001347748E+01  3.222314954E+01 -2.655340251E+02  3.058983597E+02  1.250000000E+02  0.00000E+00  9.000E+00
      21     1     1     2   501   512  2.502435516E+00 -1.433957821E+01 -2.512770327E+01  2.903940699E+01  3.371747881E-07  0.00000E+00  9.000E+00
#rwgt            1           1   3.1062005611758408E-002          10      304752           0
</event>
<event>
      5   9999  3.79277E-02  8.25009E+00 -1.00000E+00  2.05938E-01
      21    -1     0     0   502   511  0.000000000E+00  0.000000000E+00  2.909248366E+02  2.909248366E+02  0.000000000E+00  0.00000E+00  9.000E+00
      21    -1     0     0   501   502  0.000000000E+00  0.000000000E+00 -2.688951793E+02  2.688951793E+02  0.000000000E+00  0.00000E+00  9.000E+00
      25     1     1     2     0     0  6.307360690E+01  9.264008915E+01  2.231255413E+02  2.792319344E+02  1.250000000E+02  0.00000E+00  9.000E+00
      25     1     1     2     0     0 -7.132225250E+01 -9.248587609E+01 -2.083632063E+02  2.695936326E+02  1.250000000E+02  0.00000E+00  9.000E+00
      21     1     1     2   501   511  8.248645600E+00 -1.542130593E-01  7.267322337E+00  1.099444905E+01  0.000000000E+00  0.00000E+00  9.000E+00
#rwgt            1           1   4.1644530500984989E-002          10      304972           0
</event>
<event>
      5   9999  3.79277E-02  7.45075E+01 -1.00000E+00  1.29863E-01
      21    -1     0     0   502   512  0.000000000E+00  0.000000000E+00  7.879282818E+02  7.879282818E+02  0.000000000E+00  0.00000E+00  9.000E+00
      21    -1     0     0   501   502  0.000000000E+00  0.000000000E+00 -3.108347280E+02  3.108347280E+02  0.000000000E+00  0.00000E+00  9.000E+00
      25     1     1     2     0     0 -2.328578686E+02  8.507808042E+01 -1.377690974E+02  3.099457871E+02  1.250000000E+02  0.00000E+00  9.000E+00
      25     1     1     2     0     0  1.700978918E+02 -1.252347619E+02  9.427614939E+01  2.629259035E+02  1.250000000E+02  0.00000E+00  9.000E+00
      21     1     1     2   501   512  6.275997679E+01  4.015668144E+01  5.205865018E+02  5.258913192E+02  7.629394531E-06  0.00000E+00  9.000E+00
#rwgt            1           1   3.6506999298395591E-002          10      305208           0
</event>
<event>
      5   9999  3.79277E-02  8.07744E+01 -1.00000E+00  1.28147E-01
      21    -1     0     0   511   501  0.000000000E+00  0.000000000E+00  1.731365415E+02  1.731365415E+02  0.000000000E+00  0.00000E+00  9.000E+00
      21    -1     0     0   501   502  0.000000000E+00  0.000000000E+00 -5.980401127E+02  5.980401127E+02  0.000000000E+00  0.00000E+00  9.000E+00
      25     1     1     2     0     0  4.918317847E+01 -1.255001484E+02 -4.290361061E+02  4.667614515E+02  1.250000000E+02  0.00000E+00  9.000E+00
      25     1     1     2     0     0  2.727781014E+01  1.515429351E+02 -5.322611193E+01  2.053469238E+02  1.250000000E+02  0.00000E+00  9.000E+00
      21     1     1     2   511   502 -7.646098861E+01 -2.604278671E+01  5.735864683E+01  9.906827890E+01  1.168007728E-06  0.00000E+00  9.000E+00
#rwgt            1           1   3.9435163058818154E-002          10      305274           0
</event>
<event>
      5   9999  3.79277E-02  3.00467E+01 -1.00000E+00  1.52993E-01
      21    -1     0     0   502   501  0.000000000E+00  0.000000000E+00  5.433282268E+02  5.433282268E+02  0.000000000E+00  0.00000E+00  9.000E+00
      21    -1     0     0   512   502  0.000000000E+00  0.000000000E+00 -1.215096763E+02  1.215096763E+02  0.000000000E+00  0.00000E+00  9.000E+00
      25     1     1     2     0     0 -1.900506324E+00  8.890220272E+01  4.252042793E+02  4.520297476E+02  1.250000000E+02  0.00000E+00  9.000E+00
      25     1     1     2     0     0 -1.723949797E+01 -6.574052649E+01  5.061073630E+01  1.510147799E+02  1.250000000E+02  0.00000E+00  9.000E+00
      21     1     1     2   512   501  1.914000430E+01 -2.316167623E+01 -5.399646514E+01  6.179337552E+01  1.348699152E-06  0.00000E+00  9.000E+00
#rwgt            1           1   3.2730320389282946E-002          10      305371           0
</event>
<event>
      5   9999  3.79277E-02  1.88327E+01 -1.00000E+00  1.68553E-01
      21    -1     0     0   511   501  0.000000000E+00  0.000000000E+00  5.865243406E+02  5.865243406E+02  0.000000000E+00  0.00000E+00  9.000E+00
      21    -1     0     0   501   502  0.000000000E+00  0.000000000E+00 -2.227356417E+02  2.227356417E+02  0.000000000E+00  0.00000E+00  9.000E+00
      25     1     1     2     0     0  1.563147704E+01  1.604786107E+02  2.169506909E+02  2.978092172E+02  1.250000000E+02  0.00000E+00  9.000E+00
      25     1     1     2     0     0  3.185878033E+00 -1.597189161E+02 -1.254570339E+02  2.385052397E+02  1.250000000E+02  0.00000E+00  9.000E+00
      21     1     1     2   511   502 -1.881735508E+01 -7.596946077E-01  2.722950419E+02  2.729455254E+02  3.814697266E-06  0.00000E+00  9.000E+00
#rwgt            1           1   2.8160168975138580E-002          10      305518           0
</event>
<event>
      5   9999  3.79277E-02  9.97548E+01 -1.00000E+00  1.23876E-01
      21    -1     0     0   502   501  0.000000000E+00  0.000000000E+00  7.916562725E+01  7.916562725E+01  0.000000000E+00  0.00000E+00  9.000E+00
      21    -1     0     0   512   502  0.000000000E+00  0.000000000E+00 -2.743813749E+03  2.743813749E+03  0.000000000E+00  0.00000E+00  9.000E+00
      25     1     1     2     0     0 -1.397063059E+02  2.744607454E+02 -1.127477290E+03  1.175447401E+03  1.250000000E+02  0.00000E+00  9.000E+00
      25     1     1     2     0     0  4.398447357E+01 -2.463832633E+02 -3.149919036E+02  4.212887913E+02  1.250000000E+02  0.00000E+00  9.000E+00
      21     1     1     2   512   501  9.572183237E+01 -2.807748210E+01 -1.222178928E+03  1.226243184E+03  2.157918644E-05  0.00000E+00  9.000E+00
#rwgt            1           1  0.14940565621683904               10      305691           0
</event>
<event>
      5   9999  3.79277E-02  2.13129E+01 -1.00000E+00  1.64123E-01
      21    -1     0     0   502   511  0.000000000E+00  0.000000000E+00  1.125027423E+03  1.125027423E+03  0.000000000E+00  0.00000E+00  9.000E+00
      21    -1     0     0   501   502  0.000000000E+00  0.000000000E+00 -7.140509276E+01  7.140509276E+01  0.000000000E+00  0.00000E+00  9.000E+00
      25     1     1     2     0     0 -1.170952473E+02  3.744372920E+01  8.980086407E+02  9.149633045E+02  1.250000000E+02  0.00000E+00  9.000E+00
      25     1     1     2     0     0  9.615735465E+01 -4.142411337E+01  4.546241980E+01  1.692750000E+02  1.250000000E+02  0.00000E+00  9.000E+00
      21     1     1     2   501   511  2.093789268E+01  3.980384172E+00  1.101512699E+02  1.121942114E+02  0.000000000E+00  0.00000E+00  9.000E+00
#rwgt            1           1   4.1542061975499166E-002          10      305815           0
</event>
<event>
      5   9999  3.79277E-02  1.30953E+01 -1.00000E+00  1.83126E-01
      21    -1     0     0   502   501  0.000000000E+00  0.000000000E+00  3.623721283E+02  3.623721283E+02  0.000000000E+00  0.00000E+00  9.000E+00
      21    -1     0     0   512   502  0.000000000E+00  0.000000000E+00 -3.633509504E+02  3.633509504E+02  0.000000000E+00  0.00000E+00  9.000E+00
      25     1     1     2     0     0 -9.388252436E+01 -1.183224333E+02  1.438753447E+02  2.431856110E+02  1.250000000E+02  0.00000E+00  9.000E+00
      25     1     1     2     0     0  9.857030995E+01  1.060949930E+02  1.144346068E+02  2.229182200E+02  1.250000000E+02  0.00000E+00  9.000E+00
      21     1     1     2   512   501 -4.687785589E+00  1.222744024E+01 -2.592887737E+02  2.596192477E+02  0.000000000E+00  0.00000E+00  9.000E+00
#rwgt            1           1   4.5802950664951637E-002          10      306042           0
</event>
<event>
      5   9999  3.79277E-02  3.51176E+01 -1.00000E+00  1.48436E-01
      21    -1     0     0   502   501  0.000000000E+00  0.000000000E+00  6.637388422E+02  6.637388422E+02  0.000000000E+00  0.00000E+00  9.000E+00
      -1    -1     0     0     0   502  0.000000000E+00  0.000000000E+00 -5.878128737E+02  5.878128737E+02  0.000000000E+00  0.00000E+00  9.000E+00
      25     1     1     2     0     0  1.955146900E+02  3.177023406E+01  3.802538126E+02  4.466019522E+02  1.250000000E+02  0.00000E+00  9.000E+00
      25     1     1     2     0     0 -2.229244526E+02 -9.816854106E+00  1.841802906E+02  3.151809982E+02  1.250000000E+02  0.00000E+00  9.000E+00
      -1     1     1     2     0   501  2.740976259E+01 -2.195337996E+01 -4.885081346E+02  4.897687654E+02  9.344061824E-06  0.00000E+00  9.000E+00
#rwgt            1           1   4.2417275696324287E-002          10      306303           0
</event>
<event>
      5   9999  3.79277E-02  9.74616E+01 -1.00000E+00  1.24332E-01
      21    -1     0     0   502   501  0.000000000E+00  0.000000000E+00  8.465855143E+02  8.465855143E+02  0.000000000E+00  0.00000E+00  9.000E+00
      21    -1     0     0   511   502  0.000000000E+00  0.000000000E+00 -2.741258303E+02  2.741258303E+02  0.000000000E+00  0.00000E+00  9.000E+00
      25     1     1     2     0     0  8.601485462E+01 -1.074986867E+02  7.688848863E+02  7.910521419E+02  1.250000000E+02  0.00000E+00  9.000E+00
      25     1     1     2     0     0  1.142244044E+01  1.053242228E+02 -1.481333337E+02  2.208894489E+02  1.250000000E+02  0.00000E+00  9.000E+00
      21     1     1     2   511   501 -9.743729506E+01  2.174463854E+00 -4.829186861E+01  1.087697538E+02  2.023048729E-06  0.00000E+00  9.000E+00
#rwgt            1           1   5.7351040743023260E-002          10      306456           0
</event>
<event>
      5   9999  3.79277E-02  2.47149E+01 -1.00000E+00  1.59125E-01
      21    -1     0     0   502   512  0.000000000E+00  0.000000000E+00  1.302821575E+03  1.302821575E+03  0.000000000E+00  0.00000E+00  9.000E+00
      21    -1     0     0   501   502  0.000000000E+00  0.000000000E+00 -1.047733212E+02  1.047733212E+02  0.000000000E+00  0.00000E+00  9.000E+00
      25     1     1     2     0     0  2.254614510E+02 -5.255566924E+01  1.617360694E+02  3.088341309E+02  1.250000000E+02  0.00000E+00  9.000E+00
      25     1     1     2     0     0 -2.149497964E+02  7.492378575E+01  5.141506208E+02  5.760146261E+02  1.250000000E+02  0.00000E+00  9.000E+00
      21     1     1     2   501   512 -1.051165462E+01 -2.236811652E+01  5.221615638E+02  5.227461393E+02  7.629394531E-06  0.00000E+00  9.000E+00
#rwgt            1           1   3.5992391968565740E-002          10      306596           0
</event>
<event>
      5   9999  3.79277E-02  5.62962E+01 -1.00000E+00  1.36199E-01
      21    -1     0     0   502   501  0.000000000E+00  0.000000000E+00  1.837510675E+02  1.837510675E+02  0.000000000E+00  0.00000E+00  9.000E+00
      21    -1     0     0   511   502  0.000000000E+00  0.000000000E+00 -9.904266281E+02  9.904266281E+02  0.000000000E+00  0.00000E+00  9.000E+00
      25     1     1     2     0     0 -3.162348574E+02 -2.346346653E+02 -3.482907746E+02  5.403604120E+02  1.250000000E+02  0.00000E+00  9.000E+00
      25     1     1     2     0     0  3.130875252E+02  1.784265302E+02 -3.980408076E+02  5.512905855E+02  1.250000000E+02  0.00000E+00  9.000E+00
      21     1     1     2   511   501  3.147332258E+00  5.620813513E+01 -6.034397843E+01  8.252669803E+01  9.536743164E-07  0.00000E+00  9.000E+00
#rwgt            1           1   3.7887451030490682E-002          10      306946           0
</event>
<event>
      5   9999  3.79277E-02  2.37483E+01 -1.00000E+00  1.60440E-01
      21    -1     0     0   502   501  0.000000000E+00  0.000000000E+00  1.620226964E+02  1.620226964E+02  0.000000000E+00  0.00000E+00  9.000E+00
       5    -1     0     0   501     0  0.000000000E+00  0.000000000E+00 -5.346683063E+02  5.346683063E+02  0.000000000E+00  0.00000E+00  9.000E+00
      25     1     1     2     0     0 -3.282834791E+01  1.261404697E+02 -4.739042556E+01  1.867082509E+02  1.250000000E+02  0.00000E+00  9.000E+00
      25     1     1     2     0     0  2.429817546E+01 -1.039770239E+02  1.847549501E+01  1.654326653E+02  1.250000000E+02  0.00000E+00  9.000E+00
       5     1     1     2   502     0  8.530172444E+00 -2.216344577E+01 -3.437306794E+02  3.445500865E+02  6.607249480E-06  0.00000E+00  9.000E+00
#rwgt            1           1   3.8974751716865180E-002          10      307065           0
</event>
<event>
      5   9999  3.79277E-02  2.45727E+02 -1.00000E+00  1.08487E-01
      21    -1     0     0   502   501  0.000000000E+00  0.000000000E+00  3.118002114E+02  3.118002114E+02  0.000000000E+00  0.00000E+00  9.000E+00
      21    -1     0     0   501   511  0.000000000E+00  0.000000000E+00 -6.542698569E+02  6.542698569E+02  0.000000000E+00  0.00000E+00  9.000E+00
      25     1     1     2     0     0  5.546083581E+01  6.169329482E+01 -8.785861431E+01  1.738565588E+02  1.250000000E+02  0.00000E+00  9.000E+00
      25     1     1     2     0     0 -2.969695266E+02 -1.070307777E+02  1.061428183E+02  3.557214992E+02  1.250000000E+02  0.00000E+00  9.000E+00
      21     1     1     2   502   511  2.415086908E+02  4.533748289E+01 -3.607538495E+02  4.364920103E+02  6.607249480E-06  0.00000E+00  9.000E+00
#rwgt            2          11   1.2293363871267223E-003          10      307206           0
</event>
<event>
      5   9999  3.79277E-02  2.82639E+02 -1.00000E+00  1.06440E-01
      21    -1     0     0   502   512  0.000000000E+00  0.000000000E+00  2.669207382E+02  2.669207382E+02  0.000000000E+00  0.00000E+00  9.000E+00
      21    -1     0     0   501   502  0.000000000E+00  0.000000000E+00 -1.007431171E+03  1.007431171E+03  0.000000000E+00  0.00000E+00  9.000E+00
      25     1     1     2     0     0 -6.635591238E+01  2.235947096E+02 -8.025327813E+02  8.450334705E+02  1.250000000E+02  0.00000E+00  9.000E+00
      25     1     1     2     0     0 -5.995176845E+01  2.925106235E+01  3.046032406E+01  1.449229814E+02  1.250000000E+02  0.00000E+00  9.000E+00
      21     1     1     2   501   512  1.263076808E+02 -2.528457720E+02  3.156202459E+01  2.843954571E+02  1.507891493E-06  0.00000E+00  9.000E+00
#rwgt            2          11   1.6899718897682220E-003          10      307286           0
</event>
<event>
      5   9999 -3.79277E-02  9.52633E+01 -1.00000E+00  1.24783E-01
      21    -1     0     0   511   501  0.000000000E+00  0.000000000E+00  5.476835161E+02  5.476835161E+02  0.000000000E+00  0.00000E+00  9.000E+00
      21    -1     0     0   501   502  0.000000000E+00  0.000000000E+00 -4.761505386E+02  4.761505386E+02  0.000000000E+00  0.00000E+00  9.000E+00
      25     1     1     2     0     0  2.264094626E+02  5.643136126E+00 -3.564910459E+02  4.404588012E+02  1.250000000E+02  0.00000E+00  9.000E+00
      25     1     1     2     0     0 -1.335820789E+02  1.576176911E+01  4.551266494E+01  1.891798293E+02  1.250000000E+02  0.00000E+00  9.000E+00
      21     1     1     2   511   502 -9.282738375E+01 -2.140490523E+01  3.825113585E+02  3.941954242E+02  5.394796609E-06  0.00000E+00  9.000E+00
#rwgt            1           1 -0.41175913947026593               10      307321           0
</event>
<event>
      5   9999  3.79277E-02  9.30245E+01 -1.00000E+00  1.25257E-01
      21    -1     0     0   502   501  0.000000000E+00  0.000000000E+00  8.314143662E+01  8.314143662E+01  0.000000000E+00  0.00000E+00  9.000E+00
      21    -1     0     0   501   512  0.000000000E+00  0.000000000E+00 -7.184915204E+02  7.184915204E+02  0.000000000E+00  0.00000E+00  9.000E+00
      25     1     1     2     0     0 -6.840954010E+01  4.041111620E+01 -5.558890169E+01  1.582025584E+02  1.250000000E+02  0.00000E+00  9.000E+00
      25     1     1     2     0     0  2.994192954E+01 -1.251094619E+02 -4.439322402E+02  4.788003034E+02  1.250000000E+02  0.00000E+00  9.000E+00
      21     1     1     2   502   512  3.846761056E+01  8.469834568E+01 -1.358289419E+02  1.646300953E+02  3.303624740E-06  0.00000E+00  9.000E+00
#rwgt            1           1   4.7635742167448598E-002          10      307389           0
</event>
<event>
      5   9999 -3.79277E-02  5.32454E+01 -1.00000E+00  1.37535E-01
      21    -1     0     0   502   501  0.000000000E+00  0.000000000E+00  9.482629865E+02  9.482629865E+02  0.000000000E+00  0.00000E+00  9.000E+00
      21    -1     0     0   501   511  0.000000000E+00  0.000000000E+00 -1.698836740E+02  1.698836740E+02  0.000000000E+00  0.00000E+00  9.000E+00
      25     1     1     2     0     0  1.358308215E+02 -2.508832458E+02  3.328304473E+02  4.558437471E+02  1.250000000E+02  0.00000E+00  9.000E+00
      25     1     1     2     0     0 -9.832649810E+01  2.886787264E+02  4.916302598E+02  5.918858164E+02  1.250000000E+02  0.00000E+00  9.000E+00
      21     1     1     2   502   511 -3.750432345E+01 -3.779548056E+01 -4.608139458E+01  7.041709703E+01  6.743495762E-07  0.00000E+00  9.000E+00
#rwgt            1           1 -0.11908947246425788               10      307478           0
</event>
<event>
      5   9999  3.79277E-02  2.12734E+01 -1.00000E+00  1.64187E-01
      21    -1     0     0   512   501  0.000000000E+00  0.000000000E+00  1.579320294E+02  1.579320294E+02  0.000000000E+00  0.00000E+00  9.000E+00
      21    -1     0     0   501   502  0.000000000E+00  0.000000000E+00 -4.080132964E+02  4.080132964E+02  0.000000000E+00  0.00000E+00  9.000E+00
      25     1     1     2     0     0  1.166301502E+02 -4.761514550E+01 -1.287427243E+02  2.192475383E+02  1.250000000E+02  0.00000E+00  9.000E+00
      25     1     1     2     0     0 -1.285725865E+02  6.522011951E+01 -1.933258534E+02  2.716329501E+02  1.250000000E+02  0.00000E+00  9.000E+00
      21     1     1     2   512   502  1.194243629E+01 -1.760497401E+01  7.198731072E+01  7.506483730E+01  0.000000000E+00  0.00000E+00  9.000E+00
#rwgt            1           1   3.9380320385610110E-002          10      307596           0
</event>
<event>
      5   9999  3.79277E-02  8.88893E+00 -1.00000E+00  2.01862E-01
      21    -1     0     0   511   501  0.000000000E+00  0.000000000E+00  2.810552629E+02  2.810552629E+02  0.000000000E+00  0.00000E+00  9.000E+00
      21    -1     0     0   501   502  0.000000000E+00  0.000000000E+00 -1.101031197E+02  1.101031197E+02  0.000000000E+00  0.00000E+00  9.000E+00
      25     1     1     2     0     0  4.419940010E+01  2.108389982E+01  1.949847090E+02  2.367322423E+02  1.250000000E+02  0.00000E+00  9.000E+00
      25     1     1     2     0     0 -3.679794558E+01 -1.616134614E+01 -3.904049327E+01  1.369833494E+02  1.250000000E+02  0.00000E+00  9.000E+00
      21     1     1     2   511   502 -7.401454521E+00 -4.922553672E+00  1.500792756E+01  1.744279087E+01  2.920019320E-07  0.00000E+00  9.000E+00
#rwgt            1           1   4.5126957579141987E-002          10      307736           0
</event>
<event>
      5   9999  3.79277E-02  1.16519E+02 -1.00000E+00  1.20913E-01
      21    -1     0     0   512   501  0.000000000E+00  0.000000000E+00  1.044038169E+03  1.044038169E+03  0.000000000E+00  0.00000E+00  9.000E+00
      21    -1     0     0   501   502  0.000000000E+00  0.000000000E+00 -8.570217063E+01  8.570217063E+01  0.000000000E+00  0.00000E+00  9.000E+00
      25     1     1     2     0     0  2.516422066E+01  2.093696587E+02  3.527647278E+02  4.295775194E+02  1.250000000E+02  0.00000E+00  9.000E+00
      25     1     1     2     0     0 -1.270518651E+02 -1.528397088E+02  3.956466149E+02  4.600689046E+02  1.250000000E+02  0.00000E+00  9.000E+00
      21     1     1     2   512   502  1.018876445E+02 -5.652994982E+01  2.099246559E+02  2.400939160E+02  0.000000000E+00  0.00000E+00  9.000E+00
#rwgt            1           1   3.9657575688320776E-002          10      308031           0
</event>
<event>
      5   9999  3.79277E-02  3.26617E+01 -1.00000E+00  1.50519E-01
      21    -1     0     0   511   501  0.000000000E+00  0.000000000E+00  2.780513860E+02  2.780513860E+02  0.000000000E+00  0.00000E+00  9.000E+00
      21    -1     0     0   501   502  0.000000000E+00  0.000000000E+00 -1.809116154E+02  1.809116154E+02  0.000000000E+00  0.00000E+00  9.000E+00
      25     1     1     2     0     0 -5.323364371E+01 -5.877784539E+00  1.957768927E+02  2.383735742E+02  1.250000000E+02  0.00000E+00  9.000E+00
      25     1     1     2     0     0  2.280088644E+01  1.773674297E+01 -1.246177009E+02  1.788548122E+02  1.250000000E+02  0.00000E+00  9.000E+00
      21     1     1     2   511   502  3.043275727E+01 -1.185895843E+01  2.598057874E+01  4.173461491E+01  6.743495762E-07  0.00000E+00  9.000E+00
#rwgt            1           1   3.1009559123709944E-002          10      308075           0
</event>
<event>
      5   9999  3.79277E-02  1.28027E+02 -1.00000E+00  1.19187E-01
      21    -1     0     0   512   501  0.000000000E+00  0.000000000E+00  9.585271822E+02  9.585271822E+02  0.000000000E+00  0.00000E+00  9.000E+00
      21    -1     0     0   501   502  0.000000000E+00  0.000000000E+00 -2.537248171E+02  2.537248171E+02  0.000000000E+00  0.00000E+00  9.000E+00
      25     1     1     2     0     0 -1.613978025E+02  6.806635408E+01 -3.326522554E+01  2.177472260E+02  1.250000000E+02  0.00000E+00  9.000E+00
      25     1     1     2     0     0  1.914158913E+02  5.639201265E+01 -9.883859758E+00  2.356751858E+02  1.250000000E+02  0.00000E+00  9.000E+00
      21     1     1     2   512   502 -3.001808882E+01 -1.244583667E+02  7.479514504E+02  7.588295875E+02  0.000000000E+00  0.00000E+00  9.000E+00
#rwgt            1           1   3.3805648173646306E-002          10      308298           0
</event>
<event>
      5   9999  3.79277E-02  1.30800E+02 -1.00000E+00  1.18801E-01
      21    -1     0     0   502   501  0.000000000E+00  0.000000000E+00  1.520868980E+02  1.520868980E+02  0.000000000E+00  0.00000E+00  9.000E+00
      21    -1     0     0   501   511  0.000000000E+00  0.000000000E+00 -1.686094141E+03  1.686094141E+03  0.000000000E+00  0.00000E+00  9.000E+00
      25     1     1     2     0     0  7.026686902E+00 -2.177952804E+02  2.118768250E+01  2.521072716E+02  1.250000000E+02  0.00000E+00  9.000E+00
      25     1     1     2     0     0 -6.590791645E+01  1.009979524E+02 -7.172563299E+02  7.379878608E+02  1.250000000E+02  0.00000E+00  9.000E+00
      21     1     1     2   502   511  5.888122954E+01  1.167973281E+02 -8.379385954E+02  8.480859065E+02  0.000000000E+00  0.00000E+00  9.000E+00
#rwgt            2          11   8.4983067053159356E-004          10      308332           0
</event>
<event>
      5   9999  3.79277E-02  1.64694E+01 -1.00000E+00  1.73643E-01
      21    -1     0     0   502   512  0.000000000E+00  0.000000000E+00  2.401040692E+02  2.401040692E+02  0.000000000E+00  0.00000E+00  9.000E+00
      21    -1     0     0   501   502  0.000000000E+00  0.000000000E+00 -2.606295610E+02  2.606295610E+02  0.000000000E+00  0.00000E+00  9.000E+00
      25     1     1     2     0     0 -1.794984822E+02  1.793183710E+01 -9.549095554E+01  2.393423876E+02  1.250000000E+02  0.00000E+00  9.000E+00
      25     1     1     2     0     0  1.827004938E+02 -1.776693076E+00  4.311704077E+01  2.255364855E+02  1.250000000E+02  0.00000E+00  9.000E+00
      21     1     1     2   501   512 -3.202011629E+00 -1.615514402E+01  3.184842303E+01  3.585475710E+01  9.536743164E-07  0.00000E+00  9.000E+00
#rwgt            1           1   7.5497305231201198E-002          10      308352           0
</event>
<event>
      5   9999  3.79277E-02  1.39373E+02 -1.00000E+00  1.17673E-01
      21    -1     0     0   502   501  0.000000000E+00  0.000000000E+00  1.016886295E+03  1.016886295E+03  0.000000000E+00  0.00000E+00  9.000E+00
      21    -1     0     0   501   511  0.000000000E+00  0.000000000E+00 -5.651246728E+02  5.651246728E+02  0.000000000E+00  0.00000E+00  9.000E+00
      25     1     1     2     0     0 -8.358492329E+01  2.937750380E+02  4.277827681E+02  5.402900231E+02  1.250000000E+02  0.00000E+00  9.000E+00
      25     1     1     2     0     0  2.229380833E+02 -2.961194983E+02  4.483759708E+02  5.950245015E+02  1.250000000E+02  0.00000E+00  9.000E+00
      21     1     1     2   502   511 -1.393531600E+02  2.344460258E+00 -4.243971166E+02  4.466964431E+02  7.629394531E-06  0.00000E+00  9.000E+00
#rwgt            1           1   2.9972259138394072E-002          10      308669           0
</event>
<event>
      5   9999  3.79277E-02  4.05780E+01 -1.00000E+00  1.44455E-01
      21    -1     0     0   502   501  0.000000000E+00  0.000000000E+00  1.514674663E+03  1.514674663E+03  0.000000000E+00  0.00000E+00  9.000E+00
      21    -1     0     0   501   512  0.000000000E+00  0.000000000E+00 -4.893969536E+01  4.893969536E+01  0.000000000E+00  0.00000E+00  9.000E+00
      25     1     1     2     0     0 -1.520378319E+01  1.168503061E+02  4.424404645E+02  4.746195463E+02  1.250000000E+02  0.00000E+00  9.000E+00
      25     1     1     2     0     0 -7.815891717E+00 -1.502669372E+02  1.029522004E+03  1.047941695E+03  1.250000000E+02  0.00000E+00  9.000E+00
      21     1     1     2   502   512  2.301967490E+01  3.341663110E+01 -6.227500261E+00  4.105311713E+01  1.619229043E-06  0.00000E+00  9.000E+00
#rwgt            1           1   4.0353523825914589E-002          10      308772           0
</event>
<event>
      5   9999  3.79277E-02  2.41964E+02 -1.00000E+00  1.08717E-01
      21    -1     0     0   502   501  0.000000000E+00  0.000000000E+00  1.099776295E+03  1.099776295E+03  0.000000000E+00  0.00000E+00  9.000E+00
      -3    -1     0     0     0   502  0.000000000E+00  0.000000000E+00 -1.057580810E+03  1.057580810E+03  0.000000000E+00  0.00000E+00  9.000E+00
      25     1     1     2     0     0  1.878726458E+02  3.113985995E+02  6.628611416E+02  7.663387709E+02  1.250000000E+02  0.00000E+00  9.000E+00
      25     1     1     2     0     0 -4.250930979E+02 -3.590724796E+02  1.446401373E+02  5.883731442E+02  1.250000000E+02  0.00000E+00  9.000E+00
      -3     1     1     2     0   501  2.372204521E+02  4.767388010E+01 -7.653057942E+02  8.026451896E+02  1.078959322E-05  0.00000E+00  9.000E+00
#rwgt            2           8   1.5782358998928130E-004          10      308985           0
</event>
<event>
      5   9999  3.79277E-02  6.18470E+01 -1.00000E+00  1.34004E-01
      21    -1     0     0   502   501  0.000000000E+00  0.000000000E+00  5.612714826E+01  5.612714826E+01  0.000000000E+00  0.00000E+00  9.000E+00
      21    -1     0     0   501   511  0.000000000E+00  0.000000000E+00 -8.200284104E+02  8.200284104E+02  0.000000000E+00  0.00000E+00  9.000E+00
      25     1     1     2     0     0 -6.692452607E+01 -1.425813786E+01 -7.909006379E+01  1.629798297E+02  1.250000000E+02  0.00000E+00  9.000E+00
      25     1     1     2     0     0  3.920991718E+01 -4.103156469E+01 -4.740587453E+02  4.935359165E+02  1.250000000E+02  0.00000E+00  9.000E+00
      21     1     1     2   502   511  2.771460889E+01  5.528970255E+01 -2.107524531E+02  2.196398125E+02  2.697398305E-06  0.00000E+00  9.000E+00
#rwgt            1           1   5.3628313505070212E-002          10      309004           0
</event>
<event>
      5   9999  3.79277E-02  7.89651E+01 -1.00000E+00  1.28624E-01
      21    -1     0     0   502   501  0.000000000E+00  0.000000000E+00  2.217348729E+02  2.217348729E+02  0.000000000E+00  0.00000E+00  9.000E+00
      21    -1     0     0   512   502  0.000000000E+00  0.000000000E+00 -3.844580586E+02  3.844580586E+02  0.000000000E+00  0.00000E+00  9.000E+00
      25     1     1     2     0     0 -2.136459293E+02 -5.495879845E+01 -1.451565316E+02  2.921651439E+02  1.250000000E+02  0.00000E+00  9.000E+00
      25     1     1     2     0     0  1.580554009E+02  1.110407042E+02  1.024697910E+01  2.303075081E+02  1.250000000E+02  0.00000E+00  9.000E+00
      21     1     1     2   512   501  5.559052844E+01 -5.608190570E+01 -2.781363322E+01  8.372027946E+01  1.066240300E-06  0.00000E+00  9.000E+00
#rwgt            1           1   3.9028139107343186E-002          10      309260           0
</event>
<event>
      5   9999  3.79277E-02  3.81993E+01 -1.00000E+00  1.46092E-01
      21    -1     0     0   502   501  0.000000000E+00  0.000000000E+00  1.413720213E+03  1.413720213E+03  0.000000000E+00  0.00000E+00  9.000E+00
      21    -1     0     0   511   502  0.000000000E+00  0.000000000E+00 -1.047953328E+02  1.047953328E+02  0.000000000E+00  0.00000E+00  9.000E+00
      25     1     1     2     0     0  3.770297740E+01 -7.523508975E+01  1.132182916E+03  1.142166796E+03  1.250000000E+02  0.00000E+00  9.000E+00
      25     1     1     2     0     0 -4.675694476E-01  6.670814801E+01  2.536141123E+02  2.905087152E+02  1.250000000E+02  0.00000E+00  9.000E+00
      21     1     1     2   511   501 -3.723540796E+01  8.526941739E+00 -7.687214857E+01  8.584003475E+01  3.814697266E-06  0.00000E+00  9.000E+00
#rwgt            1           1   5.6429770131866501E-002          10      309328           0
</event>
<event>
      5   9999 -3.79277E-02  5.53231E+01 -1.00000E+00  1.36614E-01
      21    -1     0     0   502   512  0.000000000E+00  0.000000000E+00  2.007157888E+02  2.007157888E+02  0.000000000E+00  0.00000E+00  9.000E+00
      21    -1     0     0   501   502  0.000000000E+00  0.000000000E+00 -2.295766433E+02  2.295766433E+02  0.000000000E+00  0.00000E+00  9.000E+00
      25     1     1     2     0     0 -5.480609010E+01 -7.858671885E+01 -1.322453660E+01  1.580489426E+02  1.250000000E+02  0.00000E+00  9.000E+00
      25     1     1     2     0     0  9.929771818E+01  1.114674406E+02 -5.732860039E+01  2.029694449E+02  1.250000000E+02  0.00000E+00  9.000E+00
      21     1     1     2   501   512 -4.449162808E+01 -3.288072178E+01  4.169228246E+01  6.927404457E+01  9.536743164E-07  0.00000E+00  9.000E+00
#rwgt            1           1 -0.16057774260220578               10      309534           0
</event>
<event>
      5   9999  3.79277E-02  7.53093E+01 -1.00000E+00  1.29633E-01
      21    -1     0     0   511   501  0.000000000E+00  0.000000000E+00  6.959235615E+02  6.959235615E+02  0.000000000E+00  0.00000E+00  9.000E+00
      21    -1     0     0   501   502  0.000000000E+00  0.000000000E+00 -8.566897881E+01  8.566897881E+01  0.000000000E+00  0.00000E+00  9.000E+00
      25     1     1     2     0     0  4.613060916E+01  1.097007012E+02  1.153727710E+02  2.076009471E+02  1.250000000E+02  0.00000E+00  9.000E+00
      25     1     1     2     0     0  2.915110902E+01 -1.076628119E+02  1.632481228E+02  2.339145524E+02  1.250000000E+02  0.00000E+00  9.000E+00
      21     1     1     2   511   502 -7.528171818E+01 -2.037889325E+00  3.316336889E+02  3.400770409E+02  3.814697266E-06  0.00000E+00  9.000E+00
#rwgt            1           1   3.5985544286942436E-002          10      309681           0
</event>
<event>
      5   9999  3.79277E-02  3.72351E+01 -1.00000E+00  1.46796E-01
      21    -1     0     0   502   512  0.000000000E+00  0.000000000E+00  3.395885805E+02  3.395885805E+02  0.000000000E+00  0.00000E+00  9.000E+00
      21    -1     0     0   501   502  0.000000000E+00  0.000000000E+00 -7.828793816E+02  7.828793816E+02  0.000000000E+00  0.00000E+00  9.000E+00
      25     1     1     2     0     0 -1.009002883E+02 -8.496466915E+01  1.091832977E+02  2.120043766E+02  1.250000000E+02  0.00000E+00  9.000E+00
      25     1     1     2     0     0  1.379978136E+02  8.816261019E+01 -7.148137610E+02  7.439084321E+02  1.250000000E+02  0.00000E+00  9.000E+00
      21     1     1     2   501   512 -3.709752525E+01 -3.197941043E+00  1.623396622E+02  1.665551534E+02  1.907348633E-06  0.00000E+00  9.000E+00
#rwgt            1           1   4.3836168069868675E-002          10      309817           0
</event>
<event>
      5   9999  3.79277E-02  3.45764E+01 -1.00000E+00  1.48877E-01
      21    -1     0     0   502   501  0.000000000E+00  0.000000000E+00  1.350589214E+02  1.350589214E+02  0.000000000E+00  0.00000E+00  9.000E+00
      21    -1     0     0   501   511  0.000000000E+00  0.000000000E+00 -2.456161958E+02  2.456161958E+02  0.000000000E+00  0.00000E+00  9.000E+00
      25     1     1     2     0     0 -3.310711482E+01  7.969702804E+01  1.223426410E+01  1.523888925E+02  1.250000000E+02  0.00000E+00  9.000E+00
      25     1     1     2     0     0  2.815773642E+00 -9.636929339E+01 -1.017241532E+02  1.877971582E+02  1.250000000E+02  0.00000E+00  9.000E+00
      21     1     1     2   502   511  3.029134118E+01  1.667226534E+01 -2.106738539E+01  4.048906654E+01  1.039242493E-06  0.00000E+00  9.000E+00
#rwgt            1           1  0.10111539069614518               10      310118           0
</event>
<event>
      5   9999  3.79277E-02  6.64926E+01 -1.00000E+00  1.32361E-01
      21    -1     0     0   502   501  0.000000000E+00  0.000000000E+00  2.335261728E+02  2.335261728E+02  0.000000000E+00  0.00000E+00  9.000E+00
      21    -1     0     0   501   512  0.000000000E+00  0.000000000E+00 -3.853251794E+02  3.853251794E+02  0.000000000E+00  0.00000E+00  9.000E+00
      25     1     1     2     0     0 -5.914046190E+01  1.325529064E+02 -1.486020780E+02  2.424364758E+02  1.250000000E+02  0.00000E+00  9.000E+00
      25     1     1     2     0     0  1.163015364E+02 -9.858405349E+01  1.239854170E+02  2.328996492E+02  1.250000000E+02  0.00000E+00  9.000E+00
      21     1     1     2   502   512 -5.716107448E+01 -3.396885292E+01 -1.271823456E+02  1.435152272E+02  0.000000000E+00  0.00000E+00  9.000E+00
#rwgt            1           1   4.2710702070731965E-002          10      310415           0
</event>
<event>
      5   9999  3.79277E-02  5.74023E+01 -1.00000E+00  1.35739E-01
      21    -1     0     0   502   511  0.000000000E+00  0.000000000E+00  4.826599903E+02  4.826599903E+02  0.000000000E+00  0.00000E+00  9.000E+00
      21    -1     0     0   501   502  0.000000000E+00  0.000000000E+00 -6.227745992E+02  6.227745992E+02  0.000000000E+00  0.00000E+00  9.000E+00
      25     1     1     2     0     0 -2.924051103E+01  3.374787147E+02 -4.000103723E+02  5.388693611E+02  1.250000000E+02  0.00000E+00  9.000E+00
      25     1     1     2     0     0  1.208674361E+01 -3.922579967E+02  1.423919357E+02  4.357899594E+02  1.250000000E+02  0.00000E+00  9.000E+00
      21     1     1     2   501   511  1.715376742E+01  5.477928198E+01  1.175038277E+02  1.307752691E+02  2.697398305E-06  0.00000E+00  9.000E+00
#rwgt            1           1   9.0750108457011508E-002          10      310629           0
</event>
<event>
      5   9999  3.79277E-02  1.82661E+02 -1.00000E+00  1.13101E-01
      21    -1     0     0   502   501  0.000000000E+00  0.000000000E+00  1.063924691E+02  1.063924691E+02  0.000000000E+00  0.00000E+00  9.000E+00
      21    -1     0     0   512   502  0.000000000E+00  0.000000000E+00 -1.560470283E+03  1.560470283E+03  0.000000000E+00  0.00000E+00  9.000E+00
      25     1     1     2     0     0  7.984996360E+01  6.288440901E+01 -1.545333079E+02  2.232398012E+02  1.250000000E+02  0.00000E+00  9.000E+00
      25     1     1     2     0     0  2.935021675E+01 -2.093100299E+02 -1.682247749E+02  2.976519758E+02  1.250000000E+02  0.00000E+00  9.000E+00
      21     1     1     2   512   501 -1.092001803E+02  1.464256208E+02 -1.131319731E+03  1.145970975E+03  1.525878906E-05  0.00000E+00  9.000E+00
#rwgt            1           1   4.1851304357227066E-002          10      310794           0
</event>
<event>
      5   9999  3.79277E-02  1.96503E+01 -1.00000E+00  1.67004E-01
      21    -1     0     0   502   511  0.000000000E+00  0.000000000E+00  6.466058855E+01  6.466058855E+01  0.000000000E+00  0.00000E+00  9.000E+00
      21    -1     0     0   501   502  0.000000000E+00  0.000000000E+00 -1.002875772E+03  1.002875772E+03  0.000000000E+00  0.00000E+00  9.000E+00
      25     1     1     2     0     0 -1.781956039E+02  1.622048170E+01 -6.611451524E+02  6.962432691E+02  1.250000000E+02  0.00000E+00  9.000E+00
      25     1     1     2     0     0  1.810225409E+02  3.225428828E+00 -2.740102068E+02  3.514059719E+02  1.250000000E+02  0.00000E+00  9.000E+00
      21     1     1     2   501   511 -2.826936974E+00 -1.944591053E+01 -3.059824630E+00  1.988711984E+01  4.823927300E-07  0.00000E+00  9.000E+00
#rwgt            1           1   4.6354672070842422E-002          10      310846           0
</event>
<event>
      5   9999  3.79277E-02  1.41754E+01 -1.00000E+00  1.79728E-01
      21    -1     0     0   502   512  0.000000000E+00  0.000000000E+00  3.107333754E+02  3.107333754E+02  0.000000000E+00  0.00000E+00  9.000E+00
      21    -1     0     0   501   502  0.000000000E+00  0.000000000E+00 -2.268852376E+02  2.268852376E+02  0.000000000E+00  0.00000E+00  9.000E+00
      25     1     1     2     0     0  1.235316383E+02  1.388779700E+02 -7.775744607E+01  2.371041472E+02  1.250000000E+02  0.00000E+00  9.000E+00
      25     1     1     2     0     0 -1.362308880E+02 -1.451765761E+02  1.369043003E+02  2.720347046E+02  1.250000000E+02  0.00000E+00  9.000E+00
      21     1     1     2   501   512  1.269924968E+01  6.298606094E+00  2.470128366E+01  2.847976115E+01  0.000000000E+00  0.00000E+00  9.000E+00
#rwgt            1           1   3.3074451023607648E-002          10      311056           0
</event>
<event>
      5   9999  3.79277E-02  1.89990E+02 -1.00000E+00  1.12466E-01
      21    -1     0     0   502   511  0.000000000E+00  0.000000000E+00  4.574716628E+02  4.574716628E+02  0.000000000E+00  0.00000E+00  9.000E+00
      21    -1     0     0   501   502  0.000000000E+00  0.000000000E+00 -2.570530918E+02  2.570530918E+02  0.000000000E+00  0.00000E+00  9.000E+00
      25     1     1     2     0     0  2.298948209E+00 -8.183658295E+01  2.322931375E+02  2.762021238E+02  1.250000000E+02  0.00000E+00  9.000E+00
      25     1     1     2     0     0  1.772788967E+02  1.980392421E+01 -9.567689166E+01  2.379055910E+02  1.250000000E+02  0.00000E+00  9.000E+00
      21     1     1     2   501   511 -1.795778449E+02  6.203265874E+01  6.380232526E+01  2.004170398E+02  3.631483605E-06  0.00000E+00  9.000E+00
#rwgt            1           1   4.2975710108221328E-002          10      311307           0
</event>
<event>
      5   9999  3.79277E-02  1.41666E+02 -1.00000E+00  1.17386E-01
      21    -1     0     0   502   512  0.000000000E+00  0.000000000E+00  4.641121619E+02  4.641121619E+02  0.000000000E+00  0.00000E+00  9.000E+00
      21    -1     0     0   501   502  0.000000000E+00  0.000000000E+00 -4.316425713E+02  4.316425713E+02  0.000000000E+00  0.00000E+00  9.000E+00
      25     1     1     2     0     0 -3.812327186E+01  9.478650665E+01 -2.764450813E+02  3.201323925E+02  1.250000000E+02  0.00000E+00  9.000E+00
      25     1     1     2     0     0  1.198678445E+02  2.091555154E+01 -5.677552815E+01  1.834508682E+02  1.250000000E+02  0.00000E+00  9.000E+00
      21     1     1     2   501   512 -8.174457266E+01 -1.157020582E+02  3.656902001E+02  3.921714726E+02  0.000000000E+00  0.00000E+00  9.000E+00
#rwgt            1           1   4.5974645911707822E-002          10      311468           0
</event>
<event>
      5   9999  3.79277E-02  1.46140E+02 -1.00000E+00  1.16844E-01
      21    -1     0     0   502   501  0.000000000E+00  0.000000000E+00  8.760303329E+01  8.760303329E+01  0.000000000E+00  0.00000E+00  9.000E+00
       2    -1     0     0   501     0  0.000000000E+00  0.000000000E+00 -1.760230055E+03  1.760230055E+03  0.000000000E+00  0.00000E+00  9.000E+00
      25     1     1     2     0     0  4.596401801E+01 -1.804041480E+02 -2.716744652E+02  3.522646202E+02  1.250000000E+02  0.00000E+00  9.000E+00
      25     1     1     2     0     0  3.707932055E+01  3.006563371E+02 -6.222379843E+02  7.032597089E+02  1.250000000E+02  0.00000E+00  9.000E+00
       2     1     1     2   502     0 -8.304333855E+01 -1.202521891E+02 -7.787145724E+02  7.923087595E+02  1.078959322E-05  0.00000E+00  9.000E+00
#rwgt            1           1   3.8888959712295286E-002          10      311577           0
</event>
<event>
      5   9999 -3.79277E-02  5.50240E+01 -1.00000E+00  1.36744E-01
      21    -1     0     0   502   501  0.000000000E+00  0.000000000E+00  6.245948784E+02  6.245948784E+02  0.000000000E+00  0.00000E+00  9.000E+00
      21    -1     0     0   511   502  0.000000000E+00  0.000000000E+00 -1.222314497E+02  1.222314497E+02  0.000000000E+00  0.00000E+00  9.000E+00
      25     1     1     2     0     0  2.081009210E+01 -1.669018382E+02  6.815371289E+01  2.203615486E+02  1.250000000E+02  0.00000E+00  9.000E+00
      25     1     1     2     0     0  1.165598714E+01  1.224766935E+02  4.374958113E+02  4.713427494E+02  1.250000000E+02  0.00000E+00  9.000E+00
      21     1     1     2   511   501 -3.246607924E+01  4.442514468E+01 -3.286095493E+00  5.512203012E+01  9.592459762E-07  0.00000E+00  9.000E+00
#rwgt            1           1  -1.9810044470274429E-002          10      311736           0
</event>
<event>
      5   9999  3.79277E-02  1.67867E+02 -1.00000E+00  1.14489E-01
      21    -1     0     0   502   512  0.000000000E+00  0.000000000E+00  3.795086959E+02  3.795086959E+02  0.000000000E+00  0.00000E+00  9.000E+00
      21    -1     0     0   501   502  0.000000000E+00  0.000000000E+00 -2.585103387E+02  2.585103387E+02  0.000000000E+00  0.00000E+00  9.000E+00
      25     1     1     2     0     0 -3.073589669E+01  2.075424829E+02 -4.650339799E+01  2.486084141E+02  1.250000000E+02  0.00000E+00  9.000E+00
      25     1     1     2     0     0  2.067670304E+01 -3.997680541E+01 -2.372338430E+01  1.349572895E+02  1.250000000E+02  0.00000E+00  9.000E+00
      21     1     1     2   501   512  1.005919365E+01 -1.675656775E+02  1.912251395E+02  2.544533310E+02  2.697398305E-06  0.00000E+00  9.000E+00
#rwgt            1           1   3.6014178276699234E-002          10      311876           0
</event>
<event>
      5   9999  3.79277E-02  1.54591E+01 -1.00000E+00  1.76159E-01
      21    -1     0     0   511   501  0.000000000E+00  0.000000000E+00  1.830865668E+02  1.830865668E+02  0.000000000E+00  0.00000E+00  9.000E+00
      21    -1     0     0   501   502  0.000000000E+00  0.000000000E+00 -1.005190336E+03  1.005190336E+03  0.000000000E+00  0.00000E+00  9.000E+00
      25     1     1     2     0     0  9.235280577E+00 -7.348187228E+01  7.893830943E+01  1.653515426E+02  1.250000000E+02  0.00000E+00  9.000E+00
      25     1     1     2     0     0 -8.145689746E+00  8.890253375E+01 -9.547546988E+02  9.670323405E+02  1.250000000E+02  0.00000E+00  9.000E+00
      21     1     1     2   511   502 -1.089590830E+00 -1.542066147E+01  5.371262044E+01  5.589301927E+01  6.743495762E-07  0.00000E+00  9.000E+00
#rwgt            1           1   3.2951403323902916E-002          10      311928           0
</event>
<event>
      5   9999  3.79277E-02  2.80036E+01 -1.00000E+00  1.55146E-01
      21    -1     0     0   502   501  0.000000000E+00  0.000000000E+00  4.996843438E+02  4.996843438E+02  0.000000000E+00  0.00000E+00  9.000E+00
      21    -1     0     0   501   512  0.000000000E+00  0.000000000E+00 -1.048330024E+02  1.048330024E+02  0.000000000E+00  0.00000E+00  9.000E+00
      25     1     1     2     0     0  1.310371236E+02 -5.923099109E+01  3.321651299E+02  3.829330380E+02  1.250000000E+02  0.00000E+00  9.000E+00
      25     1     1     2     0     0 -1.271269837E+02  3.150169131E+01  6.739860192E+01  1.931869511E+02  1.250000000E+02  0.00000E+00  9.000E+00
      21     1     1     2   502   512 -3.910139903E+00  2.772929978E+01 -4.712390416E+00  2.839735698E+01  5.960464478E-07  0.00000E+00  9.000E+00
#rwgt            1           1   1.6231530767047989E-002          10      312181           0
</event>
<event>
      5   9999 -3.79277E-02  5.72212E+00 -1.00000E+00  2.28718E-01
      21    -1     0     0   502   501  0.000000000E+00  0.000000000E+00  2.576854323E+02  2.576854323E+02  0.000000000E+00  0.00000E+00  9.000E+00
      21    -1     0     0   511   502  0.000000000E+00  0.000000000E+00 -1.521669776E+02  1.521669776E+02  0.000000000E+00  0.00000E+00  9.000E+00
      25     1     1     2     0     0 -1.026347925E+02 -4.784444276E+01  1.510236707E+02  2.263981900E+02  1.250000000E+02  0.00000E+00  9.000E+00
      25     1     1     2     0     0  9.998071006E+01  5.291381125E+01 -3.604123025E+01  1.723948494E+02  1.250000000E+02  0.00000E+00  9.000E+00
      21     1     1     2   511   501  2.654082417E+00 -5.069368489E+00 -9.463985786E+00  1.105937057E+01  1.685873940E-07  0.00000E+00  9.000E+00
#rwgt            1           1 -0.10358049096718448               10      312308           0
</event>
<event>
      5   9999  3.79277E-02  1.68673E+02 -1.00000E+00  1.14409E-01
      21    -1     0     0   502   512  0.000000000E+00  0.000000000E+00  1.123687085E+03  1.123687085E+03  0.000000000E+00  0.00000E+00  9.000E+00
      21    -1     0     0   501   502  0.000000000E+00  0.000000000E+00 -2.116690967E+02  2.116690967E+02  0.000000000E+00  0.00000E+00  9.000E+00
      25     1     1     2     0     0 -3.978317510E+01  1.205749302E+02  7.502353471E+02  7.711025164E+02  1.250000000E+02  0.00000E+00  9.000E+00
      25     1     1     2     0     0  1.224765543E+02 -2.675862688E+02 -1.477887293E+01  3.200723866E+02  1.250000000E+02  0.00000E+00  9.000E+00
      21     1     1     2   501   512 -8.269337919E+01  1.470113386E+02  1.765615143E+02  2.441812789E+02  2.697398305E-06  0.00000E+00  9.000E+00
#rwgt            1           1   5.1648148677411652E-002          10      312747           0
</event>
<event>
      5   9999  3.79277E-02  4.66012E+01 -1.00000E+00  1.40843E-01
      21    -1     0     0   511   501  0.000000000E+00  0.000000000E+00  6.397547722E+01  6.397547722E+01  0.000000000E+00  0.00000E+00  9.000E+00
      21    -1     0     0   501   502  0.000000000E+00  0.000000000E+00 -8.088193579E+02  8.088193579E+02  0.000000000E+00  0.00000E+00  9.000E+00
      25     1     1     2     0     0 -1.123927011E+02 -8.341494712E+00 -1.459202904E+02  2.227541940E+02  1.250000000E+02  0.00000E+00  9.000E+00
      25     1     1     2     0     0  1.586734089E+02  2.885133050E+00 -5.264268974E+02  5.638580079E+02  1.250000000E+02  0.00000E+00  9.000E+00
      21     1     1     2   511   502 -4.628070783E+01  5.456361662E+00 -7.249669287E+01  8.618263327E+01  1.348699152E-06  0.00000E+00  9.000E+00
#rwgt            1           1   4.4049496840166888E-002          10      312806           0
</event>
<event>
      5   9999  3.79277E-02  2.22363E+01 -1.00000E+00  1.62658E-01
      21    -1     0     0   502   512  0.000000000E+00  0.000000000E+00  1.789771131E+02  1.789771131E+02  0.000000000E+00  0.00000E+00  9.000E+00
      21    -1     0     0   501   502  0.000000000E+00  0.000000000E+00 -4.112543136E+02  4.112543136E+02  0.000000000E+00  0.00000E+00  9.000E+00
      25     1     1     2     0     0 -2.371356789E+01  1.052909252E+02  8.318965121E+01  1.849162791E+02  1.250000000E+02  0.00000E+00  9.000E+00
      25     1     1     2     0     0  1.894671480E+01 -1.270103020E+02 -3.322208907E+02  3.774735951E+02  1.250000000E+02  0.00000E+00  9.000E+00
      21     1     1     2   501   512  4.766853086E+00  2.171937686E+01  1.675403892E+01  2.784155239E+01  5.840038640E-07  0.00000E+00  9.000E+00
#rwgt            1           1   4.6667270313594508E-002          10      312952           0
</event>
<event>
      5   9999  3.79277E-02  1.59878E+01 -1.00000E+00  1.74813E-01
      21    -1     0     0   511   501  0.000000000E+00  0.000000000E+00  1.278131012E+03  1.278131012E+03  0.000000000E+00  0.00000E+00  9.000E+00
      21    -1     0     0   501   502  0.000000000E+00  0.000000000E+00 -1.044360820E+02  1.044360820E+02  0.000000000E+00  0.00000E+00  9.000E+00
      25     1     1     2     0     0  7.217201986E+01 -7.481955015E+00  1.173034559E+03  1.181905181E+03  1.250000000E+02  0.00000E+00  9.000E+00
      25     1     1     2     0     0 -8.805321388E+01  5.638582027E+00 -3.900362178E+01  1.578969430E+02  1.250000000E+02  0.00000E+00  9.000E+00
      21     1     1     2   511   502  1.588119402E+01  1.843372988E+00  3.966399223E+01  4.276496963E+01  8.259061849E-07  0.00000E+00  9.000E+00
#rwgt            1           1   4.4062449755184030E-002          10      313197           0
</event>
<event>
      5   9999  3.79277E-02  1.26915E+01 -1.00000E+00  1.84506E-01
      21    -1     0     0   502   501  0.000000000E+00  0.000000000E+00  4.736960252E+02  4.736960252E+02  0.000000000E+00  0.00000E+00  9.000E+00
      21    -1     0     0   512   502  0.000000000E+00  0.000000000E+00 -1.331077223E+02  1.331077223E+02  0.000000000E+00  0.00000E+00  9.000E+00
      25     1     1     2     0     0  1.872773487E+02  2.343553245E+01  1.839227965E+02  2.916755468E+02  1.250000000E+02  0.00000E+00  9.000E+00
      25     1     1     2     0     0 -1.792922483E+02 -1.357084831E+01  1.833312460E+02  2.855962605E+02  1.250000000E+02  0.00000E+00  9.000E+00
      21     1     1     2   512   501 -7.985100330E+00 -9.864684142E+00 -2.666573962E+01  2.953194017E+01  3.371747881E-07  0.00000E+00  9.000E+00
#rwgt            1           1   3.1085947889782459E-002          10      313417           0
</event>
<event>
      5   9999  3.79277E-02  6.10318E+01 -1.00000E+00  1.34309E-01
       1    -1     0     0   502     0  0.000000000E+00  0.000000000E+00  6.522231207E+02  6.522231207E+02  0.000000000E+00  0.00000E+00  9.000E+00
      21    -1     0     0   501   502  0.000000000E+00  0.000000000E+00 -3.178435965E+02  3.178435965E+02  0.000000000E+00  0.00000E+00  9.000E+00
      25     1     1     2     0     0 -1.637170027E+02  3.008934054E+02 -4.343537640E+01  3.672216365E+02  1.250000000E+02  0.00000E+00  9.000E+00
      25     1     1     2     0     0  1.198031204E+02 -2.585088498E+02  1.128908297E+02  3.309818009E+02  1.250000000E+02  0.00000E+00  9.000E+00
       1     1     1     2   501     0  4.391388228E+01 -4.238455558E+01  2.649240709E+02  2.718632799E+02  6.607249480E-06  0.00000E+00  9.000E+00
#rwgt            1           1   3.7850787077558776E-002          10      313664           0
</event>
<event>
      5   9999  3.79277E-02  2.61648E+01 -1.00000E+00  1.57284E-01
      21    -1     0     0   502   501  0.000000000E+00  0.000000000E+00  8.442104473E+02  8.442104473E+02  0.000000000E+00  0.00000E+00  9.000E+00
      21    -1     0     0   511   502  0.000000000E+00  0.000000000E+00 -2.645159555E+02  2.645159555E+02  0.000000000E+00  0.00000E+00  9.000E+00
      25     1     1     2     0     0  1.357224630E+01 -9.727730135E+01  6.174821307E+02  6.376176448E+02  1.250000000E+02  0.00000E+00  9.000E+00
      25     1     1     2     0     0 -3.229586805E+01  1.155535742E+02  1.811162875E+02  2.506466860E+02  1.250000000E+02  0.00000E+00  9.000E+00
      21     1     1     2   511   501  1.872362174E+01 -1.827627280E+01 -2.189039264E+02  2.204620719E+02  5.394796609E-06  0.00000E+00  9.000E+00
#rwgt            1           1   4.3284032683400753E-002          10      313809           0
</event>
<event>
      5   9999  3.79277E-02  2.12822E+01 -1.00000E+00  1.64173E-01
      21    -1     0     0   502   501  0.000000000E+00  0.000000000E+00  2.583421535E+02  2.583421535E+02  0.000000000E+00  0.00000E+00  9.000E+00
      21    -1     0     0   512   502  0.000000000E+00  0.000000000E+00 -3.692765611E+02  3.692765611E+02  0.000000000E+00  0.00000E+00  9.000E+00
      25     1     1     2     0     0 -1.695720245E+02 -4.864963277E+01  9.580398941E+01  2.364843814E+02  1.250000000E+02  0.00000E+00  9.000E+00
      25     1     1     2     0     0  1.906051570E+02  4.540287863E+01 -5.621898780E+01  2.391177991E+02  1.250000000E+02  0.00000E+00  9.000E+00
      21     1     1     2   512   501 -2.103313250E+01  3.246754142E+00 -1.505194092E+02  1.520165341E+02  1.907348633E-06  0.00000E+00  9.000E+00
#rwgt            1           1   3.1386523513259504E-002          10      314031           0
</event>
<event>
      5   9999  3.79277E-02  6.69337E+01 -1.00000E+00  1.32214E-01
      21    -1     0     0   502   511  0.000000000E+00  0.000000000E+00  2.713484206E+02  2.713484206E+02  0.000000000E+00  0.00000E+00  9.000E+00
      21    -1     0     0   501   502  0.000000000E+00  0.000000000E+00 -4.523717661E+02  4.523717661E+02  0.000000000E+00  0.00000E+00  9.000E+00
      25     1     1     2     0     0  4.050918863E+01  1.947431341E+02 -1.382340372E+02  2.725794044E+02  1.250000000E+02  0.00000E+00  9.000E+00
      25     1     1     2     0     0  2.530764490E+01 -2.069192738E+02 -1.773252519E+02  3.008742390E+02  1.250000000E+02  0.00000E+00  9.000E+00
      21     1     1     2   501   511 -6.581683353E+01  1.217613966E+01  1.345359435E+02  1.502665433E+02  1.907348633E-06  0.00000E+00  9.000E+00
#rwgt            1           1   2.7723460493391031E-002          10      314267           0
</event>
<event>
      5   9999  3.79277E-02  4.64255E+01 -1.00000E+00  1.40939E-01
      21    -1     0     0   502   501  0.000000000E+00  0.000000000E+00  1.181138975E+02  1.181138975E+02  0.000000000E+00  0.00000E+00  9.000E+00
      21    -1     0     0   501   512  0.000000000E+00  0.000000000E+00 -5.010807293E+02  5.010807293E+02  0.000000000E+00  0.00000E+00  9.000E+00
      25     1     1     2     0     0 -7.827704256E+01  1.175778599E+02 -1.963357089E+02  2.722582581E+02  1.250000000E+02  0.00000E+00  9.000E+00
      25     1     1     2     0     0  1.106736964E+02 -1.508311884E+02 -9.503066856E+01  2.442427940E+02  1.250000000E+02  0.00000E+00  9.000E+00
      21     1     1     2   502   512 -3.239665387E+01  3.325332847E+01 -9.160045432E+01  1.026935746E+02  1.348699152E-06  0.00000E+00  9.000E+00
#rwgt            1           1   4.5627896210645225E-002          10      314393           0
</event>
<event>
      5   9999  3.79277E-02  1.58311E+01 -1.00000E+00  1.75205E-01
      21    -1     0     0   502   511  0.000000000E+00  0.000000000E+00  3.552390381E+02  3.552390381E+02  0.000000000E+00  0.00000E+00  9.000E+00
      21    -1     0     0   501   502  0.000000000E+00  0.000000000E+00 -1.524548782E+02  1.524548782E+02  0.000000000E+00  0.00000E+00  9.000E+00
      25     1     1     2     0     0 -1.172501099E+02  1.558856226E+01  1.895724532E+02  2.560337996E+02  1.250000000E+02  0.00000E+00  9.000E+00
      25     1     1     2     0     0  1.330802968E+02 -1.542223911E+01 -4.719745627E+01  1.892110217E+02  1.250000000E+02  0.00000E+00  9.000E+00
      21     1     1     2   501   511 -1.583018689E+01 -1.663231511E-01  6.040916305E+01  6.244909495E+01  1.168007728E-06  0.00000E+00  9.000E+00
#rwgt            1           1   3.8440332502286484E-002          10      314492           0
</event>
<event>
      5   9999  3.79277E-02  3.41236E+01 -1.00000E+00  1.49254E-01
      21    -1     0     0   512   501  0.000000000E+00  0.000000000E+00  2.947674860E+02  2.947674860E+02  0.000000000E+00  0.00000E+00  9.000E+00
      21    -1     0     0   501   502  0.000000000E+00  0.000000000E+00 -3.752965086E+02  3.752965086E+02  0.000000000E+00  0.00000E+00  9.000E+00
      25     1     1     2     0     0  1.206671109E+02 -2.419303554E+02  7.179745049E+01  3.063832933E+02  1.250000000E+02  0.00000E+00  9.000E+00
      25     1     1     2     0     0 -1.458232259E+02  2.188741056E+02 -1.542031268E+02  3.295055259E+02  1.250000000E+02  0.00000E+00  9.000E+00
      21     1     1     2   512   502  2.515611504E+01  2.305624980E+01  1.876653689E+00  3.417517531E+01  5.200483908E-07  0.00000E+00  9.000E+00
#rwgt            1           1   3.4128620315229993E-002          10      314645           0
</event>
<event>
      5   9999  3.79277E-02  4.74036E+01 -1.00000E+00  1.40410E-01
      21    -1     0     0   502   511  0.000000000E+00  0.000000000E+00  3.341044975E+02  3.341044975E+02  0.000000000E+00  0.00000E+00  9.000E+00
      21    -1     0     0   501   502  0.000000000E+00  0.000000000E+00 -3.118287669E+02  3.118287669E+02  0.000000000E+00  0.00000E+00  9.000E+00
      25     1     1     2     0     0  5.898684401E+01  1.147966673E+02  1.213854606E+01  1.800834998E+02  1.250000000E+02  0.00000E+00  9.000E+00
      25     1     1     2     0     0 -8.659072012E+01 -7.625926492E+01 -1.929917151E+02  2.572629596E+02  1.250000000E+02  0.00000E+00  9.000E+00
      21     1     1     2   501   511  2.760387610E+01 -3.853740236E+01  2.031288997E+02  2.085868051E+02  3.814697266E-06  0.00000E+00  9.000E+00
#rwgt            1           1   3.6009458289275709E-002          10      314918           0
</event>
<event>
      5   9999  3.79277E-02  2.26656E+02 -1.00000E+00  1.09705E-01
      21    -1     0     0   502   501  0.000000000E+00  0.000000000E+00  1.134148420E+03  1.134148420E+03  0.000000000E+00  0.00000E+00  9.000E+00
      21    -1     0     0   501   512  0.000000000E+00  0.000000000E+00 -2.616488204E+02  2.616488204E+02  0.000000000E+00  0.00000E+00  9.000E+00
      25     1     1     2     0     0  1.717248411E+02  7.185163258E+01  8.892055391E+02  9.170406583E+02  1.250000000E+02  0.00000E+00  9.000E+00
      25     1     1     2     0     0  2.308631266E+01 -1.877030110E+02  6.818176951E+01  2.367259003E+02  1.250000000E+02  0.00000E+00  9.000E+00
      21     1     1     2   502   512 -1.948111538E+02  1.158513784E+02 -8.488770948E+01  2.420306814E+02  1.651812370E-06  0.00000E+00  9.000E+00
#rwgt            2          11   2.9098742330012275E-003          10      315131           0
</event>
<event>
      5   9999  3.79277E-02  3.88881E+01 -1.00000E+00  1.45604E-01
      21    -1     0     0   502   511  0.000000000E+00  0.000000000E+00  4.798659816E+02  4.798659816E+02  0.000000000E+00  0.00000E+00  9.000E+00
      21    -1     0     0   501   502  0.000000000E+00  0.000000000E+00 -3.684458032E+02  3.684458032E+02  0.000000000E+00  0.00000E+00  9.000E+00
      25     1     1     2     0     0  3.056914586E+02  2.918091621E+00 -1.524317801E+02  3.637529804E+02  1.250000000E+02  0.00000E+00  9.000E+00
      25     1     1     2     0     0 -3.443411789E+02 -7.216942005E+00  2.272207700E+02  4.311347934E+02  1.250000000E+02  0.00000E+00  9.000E+00
      21     1     1     2   501   511  3.864972024E+01  4.298850384E+00  3.663118842E+01  5.342401103E+01  1.066240300E-06  0.00000E+00  9.000E+00
#rwgt            1           1   5.0334407553210746E-002          10      315151           0
</event>
<event>
      5   9999  3.79277E-02  4.30748E+01 -1.00000E+00  1.42873E-01
      21    -1     0     0   502   512  0.000000000E+00  0.000000000E+00  8.654208585E+01  8.654208585E+01  0.000000000E+00  0.00000E+00  9.000E+00
      21    -1     0     0   501   502  0.000000000E+00  0.000000000E+00 -1.180346294E+03  1.180346294E+03  0.000000000E+00  0.00000E+00  9.000E+00
      25     1     1     2     0     0 -1.331947927E+01  2.335323546E+02 -7.584231651E+02  8.034584411E+02  1.250000000E+02  0.00000E+00  9.000E+00
      25     1     1     2     0     0  5.024154701E+01 -2.113468321E+02 -3.374045508E+02  4.203076580E+02  1.250000000E+02  0.00000E+00  9.000E+00
      21     1     1     2   501   512 -3.692206774E+01 -2.218552250E+01  2.023508007E+00  4.312228055E+01  9.005036908E-07  0.00000E+00  9.000E+00
#rwgt            1           1   3.9013269539544329E-002          10      315469           0
</event>
<event>
      5   9999  3.79277E-02  1.21166E+02 -1.00000E+00  1.20190E-01
      21    -1     0     0   511   501  0.000000000E+00  0.000000000E+00  5.359591702E+01  5.359591702E+01  0.000000000E+00  0.00000E+00  9.000E+00
      21    -1     0     0   501   502  0.000000000E+00  0.000000000E+00 -8.817732825E+02  8.817732825E+02  0.000000000E+00  0.00000E+00  9.000E+00
      25     1     1     2     0     0 -1.147723828E+02  1.368028286E+00 -3.998832180E+02  4.344032222E+02  1.250000000E+02  0.00000E+00  9.000E+00
      25     1     1     2     0     0 -3.873819072E+00  2.321431969E+01 -2.925818520E+02  3.190345611E+02  1.250000000E+02  0.00000E+00  9.000E+00
      21     1     1     2   511   502  1.186462019E+02 -2.458234798E+01 -1.357122955E+02  1.819314162E+02  4.672030912E-06  0.00000E+00  9.000E+00
#rwgt            1           1   1.8763828370467767E-002          10      315573           0
</event>
<event>
      5   9999  3.79277E-02  2.99047E+01 -1.00000E+00  1.53136E-01
      21    -1     0     0   512   501  0.000000000E+00  0.000000000E+00  6.181755226E+01  6.181755226E+01  0.000000000E+00  0.00000E+00  9.000E+00
      21    -1     0     0   501   502  0.000000000E+00  0.000000000E+00 -9.117400558E+02  9.117400558E+02  0.000000000E+00  0.00000E+00  9.000E+00
      25     1     1     2     0     0 -8.262927950E+01 -9.267248248E+01 -1.474165820E+02  2.297225185E+02  1.250000000E+02  0.00000E+00  9.000E+00
      25     1     1     2     0     0  1.000426395E+02  6.836059225E+01 -6.896515025E+02  7.112846795E+02  1.250000000E+02  0.00000E+00  9.000E+00
      21     1     1     2   512   502 -1.741336000E+01  2.431189023E+01 -1.285441902E+01  3.255041016E+01  2.920019320E-07  0.00000E+00  9.000E+00
#rwgt            1           1   4.6730478167313842E-002          10      315621           0
</event>
<event>
      5   9999  3.79277E-02  1.93753E+02 -1.00000E+00  1.12152E-01
      21    -1     0     0   502   501  0.000000000E+00  0.000000000E+00  1.562704588E+02  1.562704588E+02  0.000000000E+00  0.00000E+00  9.000E+00
      21    -1     0     0   511   502  0.000000000E+00  0.000000000E+00 -1.941613876E+03  1.941613876E+03  0.000000000E+00  0.00000E+00  9.000E+00
      25     1     1     2     0     0 -5.007569915E+01  6.711277375E+01 -2.193631237E+02  2.660016543E+02  1.250000000E+02  0.00000E+00  9.000E+00
      25     1     1     2     0     0  1.128343076E+02  1.161942697E+02  4.484340107E+01  2.094483705E+02  1.250000000E+02  0.00000E+00  9.000E+00
      21     1     1     2   511   501 -6.275860844E+01 -1.833070435E+02 -1.610823695E+03  1.622434310E+03  0.000000000E+00  0.00000E+00  9.000E+00
#rwgt            1           1   4.6928252018268980E-002          10      315762           0
</event>
<event>
      5   9999  3.79277E-02  2.95924E+01 -1.00000E+00  1.53454E-01
      21    -1     0     0   502   501  0.000000000E+00  0.000000000E+00  7.795380770E+01  7.795380770E+01  0.000000000E+00  0.00000E+00  9.000E+00
      21    -1     0     0   501   512  0.000000000E+00  0.000000000E+00 -4.521652552E+02  4.521652552E+02  0.000000000E+00  0.00000E+00  9.000E+00
      25     1     1     2     0     0  8.553345146E+00 -9.603446143E+01 -2.591316954E+02  3.034304089E+02  1.250000000E+02  0.00000E+00  9.000E+00
      25     1     1     2     0     0  1.571623284E+01  7.910233517E+01 -5.300306383E+01  1.579192964E+02  1.250000000E+02  0.00000E+00  9.000E+00
      21     1     1     2   502   512 -2.426957798E+01  1.693212626E+01 -6.207668828E+01  6.876935759E+01  6.743495762E-07  0.00000E+00  9.000E+00
#rwgt            1           1   8.5099503694730724E-002          10      315812           0
</event>
<event>
      5   9999  3.79277E-02  6.24703E+00 -1.00000E+00  2.22784E-01
      21    -1     0     0   502   511  0.000000000E+00  0.000000000E+00  1.336454784E+03  1.336454784E+03  0.000000000E+00  0.00000E+00  9.000E+00
      21    -1     0     0   501   502  0.000000000E+00  0.000000000E+00 -3.197102821E+01  3.197102821E+01  0.000000000E+00  0.00000E+00  9.000E+00
      25     1     1     2     0     0 -1.694333626E+01  5.153060643E+01  1.003786083E+03  1.012992587E+03  1.250000000E+02  0.00000E+00  9.000E+00
      25     1     1     2     0     0  1.138773830E+01 -5.438731228E+01  1.440211204E+02  1.986321813E+02  1.250000000E+02  0.00000E+00  9.000E+00
      21     1     1     2   501   511  5.555597961E+00  2.856705857E+00  1.566765518E+02  1.568010438E+02  3.814697266E-06  0.00000E+00  9.000E+00
#rwgt            1           1   3.2008253882504230E-002          10      316074           0
</event>
<event>
      5   9999  3.79277E-02  1.39681E+01 -1.00000E+00  1.80350E-01
      21    -1     0     0   502   501  0.000000000E+00  0.000000000E+00  1.615959745E+03  1.615959745E+03  0.000000000E+00  0.00000E+00  9.000E+00
      21    -1     0     0   501   512  0.000000000E+00  0.000000000E+00 -2.426043855E+01  2.426043855E+01  0.000000000E+00  0.00000E+00  9.000E+00
      25     1     1     2     0     0  1.292440898E+01  1.343252873E+02  5.503798485E+02  5.803044897E+02  1.250000000E+02  0.00000E+00  9.000E+00
      25     1     1     2     0     0 -2.544798865E+00 -1.249780476E+02  1.013330700E+03  1.028635065E+03  1.250000000E+02  0.00000E+00  9.000E+00
      21     1     1     2   502   512 -1.037961011E+01 -9.347239700E+00  2.798875765E+01  3.128062900E+01  4.768371582E-07  0.00000E+00  9.000E+00
#rwgt            1           1   4.0047429870517674E-002          10      316530           0
</event>
<event>
      5   9999  3.79277E-02  6.27057E+01 -1.00000E+00  1.33688E-01
      21    -1     0     0   502   511  0.000000000E+00  0.000000000E+00  2.548028352E+02  2.548028352E+02  0.000000000E+00  0.00000E+00  9.000E+00
      21    -1     0     0   501   502  0.000000000E+00  0.000000000E+00 -1.721840202E+02  1.721840202E+02  0.000000000E+00  0.00000E+00  9.000E+00
      25     1     1     2     0     0 -1.034969459E+02 -2.133694542E+01 -4.529888600E+01  1.698348378E+02  1.250000000E+02  0.00000E+00  9.000E+00
      25     1     1     2     0     0  9.080791705E+01 -4.007151607E+01  8.210597990E+01  1.794942788E+02  1.250000000E+02  0.00000E+00  9.000E+00
      21     1     1     2   501   511  1.268902886E+01  6.140846149E+01  4.581172111E+01  7.765773874E+01  9.536743164E-07  0.00000E+00  9.000E+00
#rwgt            1           1   3.9161252405943557E-002          10      316786           0
</event>
<event>
      5   9999  3.79277E-02  3.11843E+01 -1.00000E+00  1.51881E-01
      21    -1     0     0   512   501  0.000000000E+00  0.000000000E+00  1.288984741E+03  1.288984741E+03  0.000000000E+00  0.00000E+00  9.000E+00
      21    -1     0     0   501   502  0.000000000E+00  0.000000000E+00 -4.851195486E+01  4.851195486E+01  0.000000000E+00  0.00000E+00  9.000E+00
      25     1     1     2     0     0  5.214526461E+01  1.582932468E+02  3.445349681E+02  4.026229313E+02  1.250000000E+02  0.00000E+00  9.000E+00
      25     1     1     2     0     0 -3.802314516E+01 -1.860966206E+02  6.877586227E+02  7.243718899E+02  1.250000000E+02  0.00000E+00  9.000E+00
      21     1     1     2   512   502 -1.412211945E+01  2.780337379E+01  2.081791958E+02  2.105018751E+02  2.697398305E-06  0.00000E+00  9.000E+00
#rwgt            1           1   5.5206277685707184E-002          10      316879           0
</event>
<event>
      5   9999  3.79277E-02  1.03619E+02 -1.00000E+00  1.23137E-01
      21    -1     0     0   502   511  0.000000000E+00  0.000000000E+00  2.560864932E+02  2.560864932E+02  0.000000000E+00  0.00000E+00  9.000E+00
      21    -1     0     0   501   502  0.000000000E+00  0.000000000E+00 -3.786514600E+02  3.786514600E+02  0.000000000E+00  0.00000E+00  9.000E+00
      25     1     1     2     0     0  6.198541946E+01 -2.482903807E+01  1.002048714E+02  1.735646554E+02  1.250000000E+02  0.00000E+00  9.000E+00
      25     1     1     2     0     0 -1.246613943E+02  1.073432524E+02 -2.759323307E+02  3.447124718E+02  1.250000000E+02  0.00000E+00  9.000E+00
      21     1     1     2   501   511  6.267597481E+01 -8.251421436E+01  5.316249252E+01  1.164608260E+02  1.507891493E-06  0.00000E+00  9.000E+00
#rwgt            1           1   4.3087913041063526E-002          10      317002           0
</event>
<event>
      5   9999  3.79277E-02  3.00303E+01 -1.00000E+00  1.53009E-01
      21    -1     0     0   502   501  0.000000000E+00  0.000000000E+00  5.331448990E+01  5.331448990E+01  0.000000000E+00  0.00000E+00  9.000E+00
      21    -1     0     0   501   512  0.000000000E+00  0.000000000E+00 -1.220070378E+03  1.220070378E+03  0.000000000E+00  0.00000E+00  9.000E+00
      25     1     1     2     0     0  1.795998895E+02 -7.673183931E+01 -5.437158901E+02  5.910971702E+02  1.250000000E+02  0.00000E+00  9.000E+00
      25     1     1     2     0     0 -1.765917190E+02  1.066111105E+02 -4.931844456E+02  5.490049740E+02  1.250000000E+02  0.00000E+00  9.000E+00
      21     1     1     2   502   512 -3.008170487E+00 -2.987927122E+01 -1.298555522E+02  1.332827235E+02  2.697398305E-06  0.00000E+00  9.000E+00
#rwgt            1           1   1.9124007957485308E-002          10      317154           0
</event>
<event>
      5   9999  3.79277E-02  3.43123E+01 -1.00000E+00  1.49096E-01
      21    -1     0     0   502   501  0.000000000E+00  0.000000000E+00  2.513891108E+02  2.513891108E+02  0.000000000E+00  0.00000E+00  9.000E+00
      21    -1     0     0   501   511  0.000000000E+00  0.000000000E+00 -7.225449025E+02  7.225449025E+02  0.000000000E+00  0.00000E+00  9.000E+00
      25     1     1     2     0     0  5.035199994E+01  1.384707022E+02 -6.178160496E+01  2.028581425E+02  1.250000000E+02  0.00000E+00  9.000E+00
      25     1     1     2     0     0 -8.466269829E+01 -1.388063326E+02  1.219772426E+02  2.386177240E+02  1.250000000E+02  0.00000E+00  9.000E+00
      21     1     1     2   502   511  3.431069835E+01  3.356304215E-01 -5.313514293E+02  5.324581468E+02  0.000000000E+00  0.00000E+00  9.000E+00
#rwgt            1           1  0.10311180887319904               10      317271           0
</event>
<event>
      5   9999  3.79277E-02  1.97580E+02 -1.00000E+00  1.11841E-01
      -5    -1     0     0     0   501  0.000000000E+00  0.000000000E+00  5.358007949E+02  5.358007949E+02  0.000000000E+00  0.00000E+00  9.000E+00
      21    -1     0     0   501   502  0.000000000E+00  0.000000000E+00 -1.797004825E+03  1.797004825E+03  0.000000000E+00  0.00000E+00  9.000E+00
      25     1     1     2     0     0  4.643818715E+00  1.945984198E+02 -1.218706324E+03  1.240467740E+03  1.250000000E+02  0.00000E+00  9.000E+00
      25     1     1     2     0     0 -2.005228935E+02 -2.204661211E+02 -4.992296825E+02  5.947016204E+02  1.250000000E+02  0.00000E+00  9.000E+00
      -5     1     1     2     0   502  1.958790747E+02  2.586770131E+01  4.567319757E+02  4.976362602E+02  1.321449896E-05  0.00000E+00  9.000E+00
#rwgt            1           1   4.7110096661476197E-002          10      317554           0
</event>
<event>
      5   9999  3.79277E-02  2.48750E+01 -1.00000E+00  1.58914E-01
      21    -1     0     0   502   511  0.000000000E+00  0.000000000E+00  1.162964899E+02  1.162964899E+02  0.000000000E+00  0.00000E+00  9.000E+00
      21    -1     0     0   501   502  0.000000000E+00  0.000000000E+00 -5.887338546E+02  5.887338546E+02  0.000000000E+00  0.00000E+00  9.000E+00
      25     1     1     2     0     0  2.367429909E+01 -2.897280944E+01  5.227394034E+01  1.405612356E+02  1.250000000E+02  0.00000E+00  9.000E+00
      25     1     1     2     0     0 -2.304856882E+01  5.383997886E+01 -5.214133908E+02  5.393764029E+02  1.250000000E+02  0.00000E+00  9.000E+00
      21     1     1     2   501   511 -6.257302651E-01 -2.486716942E+01 -3.297914242E+00  2.509270595E+01  3.625608999E-07  0.00000E+00  9.000E+00
#rwgt            1           1   4.7869964906319243E-002          10      317646           0
</event>
<event>
      5   9999  3.79277E-02  4.60273E+01 -1.00000E+00  1.41158E-01
      21    -1     0     0   502   512  0.000000000E+00  0.000000000E+00  6.560667967E+02  6.560667967E+02  0.000000000E+00  0.00000E+00  9.000E+00
      21    -1     0     0   501   502  0.000000000E+00  0.000000000E+00 -1.757638121E+02  1.757638121E+02  0.000000000E+00  0.00000E+00  9.000E+00
      25     1     1     2     0     0 -1.950673557E+02 -1.411730255E+02  2.885403821E+02  3.960576328E+02  1.250000000E+02  0.00000E+00  9.000E+00
      25     1     1     2     0     0  2.403159178E+02  1.496037469E+02  8.715513459E+01  3.214872298E+02  1.250000000E+02  0.00000E+00  9.000E+00
      21     1     1     2   501   512 -4.524856207E+01 -8.430721371E+00  1.046074680E+02  1.142857462E+02  0.000000000E+00  0.00000E+00  9.000E+00
#rwgt            1           1   3.8418813932872685E-002          10      317895           0
</event>
<event>
      5   9999  3.79277E-02  2.36770E+01 -1.00000E+00  1.60540E-01
      21    -1     0     0   502   511  0.000000000E+00  0.000000000E+00  3.271224964E+01  3.271224964E+01  0.000000000E+00  0.00000E+00  9.000E+00
      21    -1     0     0   501   502  0.000000000E+00  0.000000000E+00 -1.387343239E+03  1.387343239E+03  0.000000000E+00  0.00000E+00  9.000E+00
      25     1     1     2     0     0 -1.482768952E+02  6.282277248E+01 -7.501724135E+02  7.773778929E+02  1.250000000E+02  0.00000E+00  9.000E+00
      25     1     1     2     0     0  1.279046382E+02 -7.488802933E+01 -5.537742818E+02  5.867356889E+02  1.250000000E+02  0.00000E+00  9.000E+00
      21     1     1     2   501   511  2.037225701E+01  1.206525686E+01 -5.068429404E+01  5.594190684E+01  9.536743164E-07  0.00000E+00  9.000E+00
#rwgt            1           1   3.6662405861756578E-002          10      318055           0
</event>
<event>
      5   9999  3.79277E-02  1.16600E+02 -1.00000E+00  1.20901E-01
      21    -1     0     0   512   501  0.000000000E+00  0.000000000E+00  8.954634417E+02  8.954634417E+02  0.000000000E+00  0.00000E+00  9.000E+00
      21    -1     0     0   501   502  0.000000000E+00  0.000000000E+00 -7.678861425E+01  7.678861425E+01  0.000000000E+00  0.00000E+00  9.000E+00
      25     1     1     2     0     0  6.883356867E+01  5.826043496E+01  1.565080814E+02  2.196636474E+02  1.250000000E+02  0.00000E+00  9.000E+00
      25     1     1     2     0     0 -1.440438461E+02 -1.473612342E+02  4.404016204E+02  5.020383952E+02  1.250000000E+02  0.00000E+00  9.000E+00
      21     1     1     2   512   502  7.521027744E+01  8.910079922E+01  2.217651257E+02  2.505500134E+02  3.814697266E-06  0.00000E+00  9.000E+00
#rwgt            1           1   3.5693819604609926E-002          10      318191           0
</event>
<event>
      5   9999  3.79277E-02  2.29423E+02 -1.00000E+00  1.09520E-01
      21    -1     0     0   502   501  0.000000000E+00  0.000000000E+00  3.443817208E+02  3.443817208E+02  0.000000000E+00  0.00000E+00  9.000E+00
      21    -1     0     0   501   511  0.000000000E+00  0.000000000E+00 -4.715097996E+02  4.715097996E+02  0.000000000E+00  0.00000E+00  9.000E+00
      25     1     1     2     0     0  1.377902876E+02 -1.034843907E+02 -1.035866311E+02  2.367495990E+02  1.250000000E+02  0.00000E+00  9.000E+00
      25     1     1     2     0     0  6.288444770E+01 -7.712198991E+00  2.095453573E+02  2.520876605E+02  1.250000000E+02  0.00000E+00  9.000E+00
      21     1     1     2   502   511 -2.006747353E+02  1.111965897E+02 -2.330868050E+02  3.270542610E+02  0.000000000E+00  0.00000E+00  9.000E+00
#rwgt            1           1   2.3405978279511807E-002          10      318254           0
</event>
<event>
      5   9999  3.79277E-02  4.81214E+01 -1.00000E+00  1.40031E-01
      21    -1     0     0   502   501  0.000000000E+00  0.000000000E+00  1.200974715E+03  1.200974715E+03  0.000000000E+00  0.00000E+00  9.000E+00
      21    -1     0     0   501   512  0.000000000E+00  0.000000000E+00 -5.010698642E+01  5.010698642E+01  0.000000000E+00  0.00000E+00  9.000E+00
      25     1     1     2     0     0  8.749078555E+01 -1.487824398E+02  7.694908613E+02  7.984560336E+02  1.250000000E+02  0.00000E+00  9.000E+00
      25     1     1     2     0     0 -1.068548296E+02  1.047290437E+02  2.917561481E+02  3.509028030E+02  1.250000000E+02  0.00000E+00  9.000E+00
      21     1     1     2   502   512  1.936404407E+01  4.405339619E+01  8.962071910E+01  1.017228647E+02  2.132480600E-06  0.00000E+00  9.000E+00
#rwgt            1           1   4.0868844081474488E-002          10      318294           0
</event>
<event>
      5   9999  3.79277E-02  4.48945E+01 -1.00000E+00  1.41798E-01
      21    -1     0     0   502   501  0.000000000E+00  0.000000000E+00  2.816008030E+02  2.816008030E+02  0.000000000E+00  0.00000E+00  9.000E+00
      21    -1     0     0   511   502  0.000000000E+00  0.000000000E+00 -2.015980067E+02  2.015980067E+02  0.000000000E+00  0.00000E+00  9.000E+00
      25     1     1     2     0     0  9.011679023E+01  8.311290530E+01 -8.751490401E+01  1.957361728E+02  1.250000000E+02  0.00000E+00  9.000E+00
      25     1     1     2     0     0 -4.561807538E+01 -7.716440870E+01  1.838310364E+02  2.396960674E+02  1.250000000E+02  0.00000E+00  9.000E+00
      21     1     1     2   511   501 -4.449871485E+01 -5.948496600E+00 -1.631333614E+01  4.776656960E+01  7.152557373E-07  0.00000E+00  9.000E+00
#rwgt            2          11   2.2669367026603307E-003          10      318406           0
</event>
<event>
      5   9999  3.79277E-02  2.09698E+02 -1.00000E+00  1.10904E-01
      21    -1     0     0   502   501  0.000000000E+00  0.000000000E+00  5.683916467E+02  5.683916467E+02  0.000000000E+00  0.00000E+00  9.000E+00
      21    -1     0     0   512   502  0.000000000E+00  0.000000000E+00 -1.968928997E+02  1.968928997E+02  0.000000000E+00  0.00000E+00  9.000E+00
      25     1     1     2     0     0  3.179220047E+01  6.758434520E+00  2.365892642E+02  2.695475846E+02  1.250000000E+02  0.00000E+00  9.000E+00
      25     1     1     2     0     0 -1.972705504E+02  1.220450749E+02  1.061162891E+02  2.840710072E+02  1.250000000E+02  0.00000E+00  9.000E+00
      21     1     1     2   512   501  1.654783499E+02 -1.288035094E+02  2.879319378E+01  2.116659546E+02  1.305872339E-06  0.00000E+00  9.000E+00
#rwgt            1           1   4.0320408500376659E-002          10      318486           0
</event>
<event>
      5   9999  3.79277E-02  5.14868E+01 -1.00000E+00  1.38353E-01
      21    -1     0     0   502   501  0.000000000E+00  0.000000000E+00  5.776718833E+02  5.776718833E+02  0.000000000E+00  0.00000E+00  9.000E+00
       2    -1     0     0   501     0  0.000000000E+00  0.000000000E+00 -1.953515887E+02  1.953515887E+02  0.000000000E+00  0.00000E+00  9.000E+00
      25     1     1     2     0     0 -1.629942579E+02 -8.273024041E+01 -5.520996996E+01  2.282204232E+02  1.250000000E+02  0.00000E+00  9.000E+00
      25     1     1     2     0     0  1.974234147E+02  4.444807743E+01  2.296053296E+02  3.305983116E+02  1.250000000E+02  0.00000E+00  9.000E+00
       2     1     1     2   502     0 -3.442915674E+01  3.828216298E+01  2.079249350E+02  2.142047372E+02  2.697398305E-06  0.00000E+00  9.000E+00
#rwgt            1           1   1.5898130106326853E-002          10      318518           0
</event>
<event>
      5   9999  3.79277E-02  2.03903E+02 -1.00000E+00  1.11343E-01
      21    -1     0     0   511   501  0.000000000E+00  0.000000000E+00  5.447961374E+02  5.447961374E+02  0.000000000E+00  0.00000E+00  9.000E+00
      21    -1     0     0   501   502  0.000000000E+00  0.000000000E+00 -5.354011017E+02  5.354011017E+02  0.000000000E+00  0.00000E+00  9.000E+00
      25     1     1     2     0     0 -4.674785594E+01 -6.488167481E+01 -4.101203898E+02  4.361407203E+02  1.250000000E+02  0.00000E+00  9.000E+00
      25     1     1     2     0     0  6.823639818E+01 -1.378853836E+02  2.478125125E+01  1.997691054E+02  1.250000000E+02  0.00000E+00  9.000E+00
      21     1     1     2   511   502 -2.148854225E+01  2.027670584E+02  3.947341743E+02  4.442874135E+02  7.629394531E-06  0.00000E+00  9.000E+00
#rwgt            2          11   3.0279716428939524E-003          10      318843           0
</event>
<event>
      5   9999  3.79277E-02  1.63581E+02 -1.00000E+00  1.14921E-01
      21    -1     0     0   512   501  0.000000000E+00  0.000000000E+00  9.896173811E+02  9.896173811E+02  0.000000000E+00  0.00000E+00  9.000E+00
      21    -1     0     0   501   502  0.000000000E+00  0.000000000E+00 -5.743309191E+02  5.743309191E+02  0.000000000E+00  0.00000E+00  9.000E+00
      25     1     1     2     0     0 -3.353167591E+02 -5.618808270E+00 -5.081355778E+01  3.614912413E+02  1.250000000E+02  0.00000E+00  9.000E+00
      25     1     1     2     0     0  2.725852099E+02 -1.454551568E+02 -2.820577332E+02  4.366250842E+02  1.250000000E+02  0.00000E+00  9.000E+00
      21     1     1     2   512   502  6.273154919E+01  1.510739651E+02  7.481577529E+02  7.658319747E+02  0.000000000E+00  0.00000E+00  9.000E+00
#rwgt            1           1   3.8391134851779474E-002          10      318863           0
</event>
<event>
      5   9999  3.79277E-02  1.67658E+01 -1.00000E+00  1.72948E-01
      21    -1     0     0   502   501  0.000000000E+00  0.000000000E+00  1.395181810E+02  1.395181810E+02  0.000000000E+00  0.00000E+00  9.000E+00
      21    -1     0     0   501   511  0.000000000E+00  0.000000000E+00 -2.831712428E+02  2.831712428E+02  0.000000000E+00  0.00000E+00  9.000E+00
      25     1     1     2     0     0 -1.253610731E+02 -6.288378405E+01 -9.449091661E+01  2.102933719E+02  1.250000000E+02  0.00000E+00  9.000E+00
      25     1     1     2     0     0  1.320322469E+02  4.750233271E+01 -3.661242541E+01  1.914535336E+02  1.250000000E+02  0.00000E+00  9.000E+00
      21     1     1     2   502   511 -6.671173808E+00  1.538145134E+01 -1.254971984E+01  2.094251831E+01  3.371747881E-07  0.00000E+00  9.000E+00
#rwgt            1           1   2.6315952802609996E-002          10      319025           0
</event>
<event>
      5   9999  3.79277E-02  9.86900E+01 -1.00000E+00  1.24086E-01
      21    -1     0     0   502   501  0.000000000E+00  0.000000000E+00  9.331806169E+01  9.331806169E+01  0.000000000E+00  0.00000E+00  9.000E+00
       2    -1     0     0   501     0  0.000000000E+00  0.000000000E+00 -3.556046861E+03  3.556046861E+03  0.000000000E+00  0.00000E+00  9.000E+00
      25     1     1     2     0     0 -3.087877146E+02  1.421009109E+02 -7.769208945E+02  8.571893594E+02  1.250000000E+02  0.00000E+00  9.000E+00
      25     1     1     2     0     0  2.259653199E+02 -1.957681180E+02 -4.518488463E+02  5.560376441E+02  1.250000000E+02  0.00000E+00  9.000E+00
       2     1     1     2   502     0  8.282239475E+01  5.366720708E+01 -2.233959059E+03  2.236137919E+03  5.285799584E-05  0.00000E+00  9.000E+00
#rwgt            1           1   3.7758630157842567E-002          10      319204           0
</event>
<event>
      5   9999  3.79277E-02  4.38453E+01 -1.00000E+00  1.42411E-01
      21    -1     0     0   511   501  0.000000000E+00  0.000000000E+00  3.376136432E+02  3.376136432E+02  0.000000000E+00  0.00000E+00  9.000E+00
      21    -1     0     0   501   502  0.000000000E+00  0.000000000E+00 -2.474125849E+02  2.474125849E+02  0.000000000E+00  0.00000E+00  9.000E+00
      25     1     1     2     0     0  1.002957205E+02  1.059662048E+02 -1.040415026E+02  2.184895933E+02  1.250000000E+02  0.00000E+00  9.000E+00
      25     1     1     2     0     0 -5.656126694E+01 -1.090813823E+02  8.279832782E+00  1.754750139E+02  1.250000000E+02  0.00000E+00  9.000E+00
      21     1     1     2   511   502 -4.373445352E+01  3.115177498E+00  1.859627281E+02  1.910616210E+02  0.000000000E+00  0.00000E+00  9.000E+00
#rwgt            1           1   3.9554731005953810E-002          10      319420           0
</event>
<event>
      5   9999  3.79277E-02  4.49816E+01 -1.00000E+00  1.41748E-01
       2    -1     0     0   502     0  0.000000000E+00  0.000000000E+00  2.443152484E+03  2.443152484E+03  0.000000000E+00  0.00000E+00  9.000E+00
      21    -1     0     0   501   502  0.000000000E+00  0.000000000E+00 -7.315359662E+01  7.315359662E+01  0.000000000E+00  0.00000E+00  9.000E+00
      25     1     1     2     0     0 -1.046376839E+01 -8.607742724E+01  8.510213443E+02  8.645120835E+02  1.250000000E+02  0.00000E+00  9.000E+00
      25     1     1     2     0     0 -5.153914726E+00  4.389410700E+01  4.333333761E-01  1.325837216E+02  1.250000000E+02  0.00000E+00  9.000E+00
       2     1     1     2   501     0  1.561768312E+01  4.218332024E+01  1.518544210E+03  1.519210276E+03  2.157918644E-05  0.00000E+00  9.000E+00
#rwgt            1           1   4.2223050754381403E-002          10      319509           0
</event>
<event>
      5   9999  3.79277E-02  5.99903E+01 -1.00000E+00  1.34707E-01
      21    -1     0     0   511   501  0.000000000E+00  0.000000000E+00  1.191698436E+02  1.191698436E+02  0.000000000E+00  0.00000E+00  9.000E+00
      21    -1     0     0   501   502  0.000000000E+00  0.000000000E+00 -3.501589189E+02  3.501589189E+02  0.000000000E+00  0.00000E+00  9.000E+00
      25     1     1     2     0     0 -8.111043704E+01 -4.469321327E+01 -5.759048975E+00  1.556745097E+02  1.250000000E+02  0.00000E+00  9.000E+00
      25     1     1     2     0     0  2.523510233E+01  6.652869319E+01 -2.048379728E+02  2.502927736E+02  1.250000000E+02  0.00000E+00  9.000E+00
      21     1     1     2   511   502  5.587533471E+01 -2.183547992E+01 -2.039205353E+01  6.336147930E+01  1.039242493E-06  0.00000E+00  9.000E+00
#rwgt            1           1   5.1692311310153970E-002          10      319698           0
</event>
<event>
      5   9999  3.79277E-02  4.92214E+01 -1.00000E+00  1.39466E-01
      21    -1     0     0   512   501  0.000000000E+00  0.000000000E+00  4.358700298E+02  4.358700298E+02  0.000000000E+00  0.00000E+00  9.000E+00
      21    -1     0     0   501   502  0.000000000E+00  0.000000000E+00 -1.966630826E+02  1.966630826E+02  0.000000000E+00  0.00000E+00  9.000E+00
      25     1     1     2     0     0  3.616524302E+01 -1.572827778E+02  8.257580099E+01  2.202034512E+02  1.250000000E+02  0.00000E+00  9.000E+00
      25     1     1     2     0     0 -3.989551791E+01  1.082029387E+02 -6.741071098E+01  1.829446152E+02  1.250000000E+02  0.00000E+00  9.000E+00
      21     1     1     2   512   502  3.730274892E+00  4.907983914E+01  2.240418572E+02  2.293850460E+02  3.814697266E-06  0.00000E+00  9.000E+00
#rwgt            1           1   4.3492111590165541E-002          10      319841           0
</event>
<event>
      5   9999  3.79277E-02  3.98893E+01 -1.00000E+00  1.44915E-01
      21    -1     0     0   502   501  0.000000000E+00  0.000000000E+00  1.841988404E+02  1.841988404E+02  0.000000000E+00  0.00000E+00  9.000E+00
      21    -1     0     0   511   502  0.000000000E+00  0.000000000E+00 -3.310716593E+02  3.310716593E+02  0.000000000E+00  0.00000E+00  9.000E+00
      25     1     1     2     0     0  1.383448916E+02  1.235234473E+02 -1.416594400E+02  2.647446845E+02  1.250000000E+02  0.00000E+00  9.000E+00
      25     1     1     2     0     0 -9.891043052E+01 -1.175167681E+02  2.618680609E+01  1.997603886E+02  1.250000000E+02  0.00000E+00  9.000E+00
      21     1     1     2   511   501 -3.943446111E+01 -6.006679131E+00 -3.140018502E+01  5.076542659E+01  8.920806376E-07  0.00000E+00  9.000E+00
#rwgt            1           1   4.6537376400588894E-002          10      320002           0
</event>
<event>
      5   9999  3.79277E-02  1.21408E+01 -1.00000E+00  1.86497E-01
      21    -1     0     0   502   501  0.000000000E+00  0.000000000E+00  1.916048827E+03  1.916048827E+03  0.000000000E+00  0.00000E+00  9.000E+00
      -2    -1     0     0     0   502  0.000000000E+00  0.000000000E+00 -9.324371257E+02  9.324371257E+02  0.000000000E+00  0.00000E+00  9.000E+00
      25     1     1     2     0     0  1.276894009E+02  1.582174483E+02  1.069060938E+03  1.095378306E+03  1.250000000E+02  0.00000E+00  9.000E+00
      25     1     1     2     0     0 -1.223032725E+02 -1.690981295E+02  8.160448383E+02  8.515318232E+02  1.250000000E+02  0.00000E+00  9.000E+00
      -2     1     1     2     0   501 -5.386128393E+00  1.088068119E+01 -9.014940746E+02  9.015758238E+02  1.525878906E-05  0.00000E+00  9.000E+00
#rwgt            1           1   9.4120914034754893E-002          10      320082           0
</event>
<event>
      5   9999 -3.79277E-02  1.51306E+01 -1.00000E+00  1.77030E-01
      21    -1     0     0   502   501  0.000000000E+00  0.000000000E+00  2.333380802E+02  2.333380802E+02  0.000000000E+00  0.00000E+00  9.000E+00
      21    -1     0     0   501   511  0.000000000E+00  0.000000000E+00 -7.268103527E+02  7.268103527E+02  0.000000000E+00  0.00000E+00  9.000E+00
      25     1     1     2     0     0 -1.954338890E+01 -2.171682932E+02  3.736086972E+01  2.540961357E+02  1.250000000E+02  0.00000E+00  9.000E+00
      25     1     1     2     0     0  3.252508275E+01  2.093958413E+02 -8.549770208E+01  2.604598941E+02  1.250000000E+02  0.00000E+00  9.000E+00
      21     1     1     2   502   511 -1.298169385E+01  7.772451832E+00 -4.453354401E+02  4.455924030E+02  7.629394531E-06  0.00000E+00  9.000E+00
#rwgt            1           1  -2.9938843624639031E-002          10      320319           0
</event>
<event>
      5   9999  3.79277E-02  2.69446E+01 -1.00000E+00  1.56352E-01
      21    -1     0     0   502   501  0.000000000E+00  0.000000000E+00  2.485333834E+02  2.485333834E+02  0.000000000E+00  0.00000E+00  9.000E+00
      21    -1     0     0   512   502  0.000000000E+00  0.000000000E+00 -1.569098390E+02  1.569098390E+02  0.000000000E+00  0.00000E+00  9.000E+00
      25     1     1     2     0     0 -4.086863073E+01 -9.820488605E+01  9.084402553E+01  1.875955266E+02  1.250000000E+02  0.00000E+00  9.000E+00
      25     1     1     2     0     0  4.622540294E+01  1.246116375E+02  2.169181759E+01  1.837399875E+02  1.250000000E+02  0.00000E+00  9.000E+00
      21     1     1     2   512   501 -5.356772208E+00 -2.640675143E+01 -2.091229863E+01  3.410770827E+01  7.907449699E-07  0.00000E+00  9.000E+00
#rwgt            2          11   1.3574779751773553E-003          10      320665           0
</event>
<event>
      5   9999  3.79277E-02  8.91816E+01 -1.00000E+00  1.26106E-01
      21    -1     0     0   502   501  0.000000000E+00  0.000000000E+00  9.104621793E+02  9.104621793E+02  0.000000000E+00  0.00000E+00  9.000E+00
       2    -1     0     0   501     0  0.000000000E+00  0.000000000E+00 -8.341948540E+01  8.341948540E+01  0.000000000E+00  0.00000E+00  9.000E+00
      25     1     1     2     0     0 -1.659477631E+02 -6.528083620E+00  6.187119783E+02  6.526950192E+02  1.250000000E+02  0.00000E+00  9.000E+00
      25     1     1     2     0     0  8.047211004E+01  3.196970449E+01  2.005297684E+02  2.516644800E+02  1.250000000E+02  0.00000E+00  9.000E+00
       2     1     1     2   502     0  8.547565308E+01 -2.544162087E+01  7.800947241E+00  8.952216552E+01  1.221531721E-06  0.00000E+00  9.000E+00
#rwgt            1           1   5.1928212062112171E-002          10      320685           0
</event>
<event>
      5   9999  3.79277E-02  6.46101E+01 -1.00000E+00  1.33008E-01
      21    -1     0     0   502   501  0.000000000E+00  0.000000000E+00  8.660031026E+01  8.660031026E+01  0.000000000E+00  0.00000E+00  9.000E+00
      21    -1     0     0   511   502  0.000000000E+00  0.000000000E+00 -5.588834076E+02  5.588834076E+02  0.000000000E+00  0.00000E+00  9.000E+00
      25     1     1     2     0     0  6.262136743E+00 -7.306460138E+01 -5.207670089E+01  1.539955620E+02  1.250000000E+02  0.00000E+00  9.000E+00
      25     1     1     2     0     0 -3.449101842E+01  1.311816524E+02 -2.603592292E+02  3.190770824E+02  1.250000000E+02  0.00000E+00  9.000E+00
      21     1     1     2   511   501  2.822888168E+01 -5.811705106E+01 -1.598471672E+02  1.724110735E+02  2.697398305E-06  0.00000E+00  9.000E+00
#rwgt            1           1   5.6677077609929606E-002          10      320757           0
</event>
<event>
      5   9999  3.79277E-02  2.75535E+02 -1.00000E+00  1.06806E-01
      21    -1     0     0   502   501  0.000000000E+00  0.000000000E+00  5.039171080E+02  5.039171080E+02  0.000000000E+00  0.00000E+00  9.000E+00
       2    -1     0     0   501     0  0.000000000E+00  0.000000000E+00 -3.661274164E+03  3.661274164E+03  0.000000000E+00  0.00000E+00  9.000E+00
      25     1     1     2     0     0  4.589074204E+01 -2.387786407E+02  1.680655374E+01  2.739135990E+02  1.250000000E+02  0.00000E+00  9.000E+00
      25     1     1     2     0     0  6.812551797E+01 -1.205970455E+01  3.387132602E+02  3.676114733E+02  1.250000000E+02  0.00000E+00  9.000E+00
       2     1     1     2   502     0 -1.140162600E+02  2.508383453E+02 -3.512876870E+03  3.523666200E+03  6.103515625E-05  0.00000E+00  9.000E+00
#rwgt            1           1   4.0794777629713778E-002          10      320808           0
</event>
<event>
      5   9999  3.79277E-02  1.29048E+02 -1.00000E+00  1.19043E-01
      21    -1     0     0   502   501  0.000000000E+00  0.000000000E+00  1.260794905E+03  1.260794905E+03  0.000000000E+00  0.00000E+00  9.000E+00
      21    -1     0     0   501   511  0.000000000E+00  0.000000000E+00 -1.730029515E+02  1.730029515E+02  0.000000000E+00  0.00000E+00  9.000E+00
      25     1     1     2     0     0 -8.744536127E+01 -5.817773082E+01  1.049427039E+03  1.062051528E+03  1.250000000E+02  0.00000E+00  9.000E+00
      25     1     1     2     0     0 -3.725371572E+01  9.139894035E+01 -9.558175691E+01  1.857484263E+02  1.250000000E+02  0.00000E+00  9.000E+00
      21     1     1     2   502   511  1.246990770E+02 -3.322120952E+01  1.339466717E+02  1.859979017E+02  1.907348633E-06  0.00000E+00  9.000E+00
#rwgt            1           1   4.7626439371478868E-002          10      321063           0
</event>
<event>
      5   9999  3.79277E-02  3.15157E+01 -1.00000E+00  1.51568E-01
      21    -1     0     0   502   501  0.000000000E+00  0.000000000E+00  4.750059737E+01  4.750059737E+01  0.000000000E+00  0.00000E+00  9.000E+00
      21    -1     0     0   501   512  0.000000000E+00  0.000000000E+00 -1.704017495E+03  1.704017495E+03  0.000000000E+00  0.00000E+00  9.000E+00
      25     1     1     2     0     0 -8.028349290E+01 -1.989709369E+02 -8.801071872E+02  9.144662563E+02  1.250000000E+02  0.00000E+00  9.000E+00
      25     1     1     2     0     0  6.941694023E+01  2.285540124E+02 -5.991106817E+02  6.569735589E+02  1.250000000E+02  0.00000E+00  9.000E+00
      21     1     1     2   502   512  1.086655266E+01 -2.958307542E+01 -1.772990286E+02  1.800782770E+02  1.907348633E-06  0.00000E+00  9.000E+00
#rwgt            1           1   4.2159564910120913E-002          10      321149           0
</event>
<event>
      5   9999  3.79277E-02  2.60070E+01 -1.00000E+00  1.57477E-01
      21    -1     0     0   502   511  0.000000000E+00  0.000000000E+00  5.235960399E+02  5.235960399E+02  0.000000000E+00  0.00000E+00  9.000E+00
      21    -1     0     0   501   502  0.000000000E+00  0.000000000E+00 -4.181633631E+02  4.181633631E+02  0.000000000E+00  0.00000E+00  9.000E+00
      25     1     1     2     0     0 -2.166475114E+02  2.070379283E+02 -1.942531697E+02  3.783650907E+02  1.250000000E+02  0.00000E+00  9.000E+00
      25     1     1     2     0     0  1.988441398E+02 -2.259958609E+02  7.144973812E+01  3.336812643E+02  1.250000000E+02  0.00000E+00  9.000E+00
      21     1     1     2   501   511  1.780337164E+01  1.895793267E+01  2.282361083E+02  2.297130479E+02  2.697398305E-06  0.00000E+00  9.000E+00
#rwgt            1           1   4.1477315313089715E-002          10      321313           0
</event>
<event>
      5   9999  3.79277E-02  1.37720E+02 -1.00000E+00  1.17883E-01
      21    -1     0     0   502   512  0.000000000E+00  0.000000000E+00  2.153997401E+02  2.153997401E+02  0.000000000E+00  0.00000E+00  9.000E+00
      21    -1     0     0   501   502  0.000000000E+00  0.000000000E+00 -1.634002011E+03  1.634002011E+03  0.000000000E+00  0.00000E+00  9.000E+00
      25     1     1     2     0     0 -1.102207351E+02  2.154192296E+02 -8.530536213E+02  8.954772670E+02  1.250000000E+02  0.00000E+00  9.000E+00
      25     1     1     2     0     0  2.063699685E+02 -3.140199566E+02 -6.719018592E+02  7.799193583E+02  1.250000000E+02  0.00000E+00  9.000E+00
      21     1     1     2   501   512 -9.614923338E+01  9.860072703E+01  1.063532098E+02  1.740051255E+02  4.473129043E-06  0.00000E+00  9.000E+00
#rwgt            1           1   4.1939630293982087E-002          10      321524           0
</event>
<event>
      5   9999  3.79277E-02  9.35357E+01 -1.00000E+00  1.25148E-01
      21    -1     0     0   511   501  0.000000000E+00  0.000000000E+00  1.037620536E+02  1.037620536E+02  0.000000000E+00  0.00000E+00  9.000E+00
      21    -1     0     0   501   502  0.000000000E+00  0.000000000E+00 -1.314774040E+03  1.314774040E+03  0.000000000E+00  0.00000E+00  9.000E+00
      25     1     1     2     0     0  1.726417442E+02 -1.495155854E+02 -7.765341573E+02  8.190179360E+02  1.250000000E+02  0.00000E+00  9.000E+00
      25     1     1     2     0     0 -2.096390347E+02  6.360793855E+01 -4.385315605E+02  5.058946771E+02  1.250000000E+02  0.00000E+00  9.000E+00
      21     1     1     2   511   502  3.699729049E+01  8.590764688E+01  4.053731735E+00  9.362348016E+01  2.553973828E-06  0.00000E+00  9.000E+00
#rwgt            1           1   3.2154400834711633E-002          10      321644           0
</event>
<event>
      5   9999  3.79277E-02  4.41103E+01 -1.00000E+00  1.42254E-01
      21    -1     0     0   512   501  0.000000000E+00  0.000000000E+00  1.348538715E+03  1.348538715E+03  0.000000000E+00  0.00000E+00  9.000E+00
      21    -1     0     0   501   502  0.000000000E+00  0.000000000E+00 -4.663493106E+01  4.663493106E+01  0.000000000E+00  0.00000E+00  9.000E+00
      25     1     1     2     0     0 -1.806594863E+02 -2.484457542E+01  3.619628548E+02  4.241429136E+02  1.250000000E+02  0.00000E+00  9.000E+00
      25     1     1     2     0     0  1.439808888E+02  3.414600749E-01  6.379296621E+02  6.658151896E+02  1.250000000E+02  0.00000E+00  9.000E+00
      21     1     1     2   512   502  3.667859742E+01  2.450311534E+01  3.020112672E+02  3.052155430E+02  5.394796609E-06  0.00000E+00  9.000E+00
#rwgt            1           1   4.2959324432395647E-002          10      321731           0
</event>
<event>
      5   9999  3.79277E-02  3.10630E+01 -1.00000E+00  1.51997E-01
      21    -1     0     0   502   501  0.000000000E+00  0.000000000E+00  8.999740140E+02  8.999740140E+02  0.000000000E+00  0.00000E+00  9.000E+00
      21    -1     0     0   511   502  0.000000000E+00  0.000000000E+00 -3.903180802E+02  3.903180802E+02  0.000000000E+00  0.00000E+00  9.000E+00
      25     1     1     2     0     0  1.655064020E+02  3.698490515E+01  2.144934684E+02  3.006537881E+02  1.250000000E+02  0.00000E+00  9.000E+00
      25     1     1     2     0     0 -1.374322279E+02 -2.369018905E+01  6.280123157E+02  6.553421328E+02  1.250000000E+02  0.00000E+00  9.000E+00
      21     1     1     2   511   501 -2.807417410E+01 -1.329471610E+01 -3.328498503E+02  3.342961734E+02  0.000000000E+00  0.00000E+00  9.000E+00
#rwgt            1           1   3.1265306531702682E-002          10      321835           0
</event>
<event>
      5   9999  3.79277E-02  1.87938E+01 -1.00000E+00  1.68629E-01
      21    -1     0     0   502   501  0.000000000E+00  0.000000000E+00  7.439375750E+01  7.439375750E+01  0.000000000E+00  0.00000E+00  9.000E+00
      21    -1     0     0   501   512  0.000000000E+00  0.000000000E+00 -4.864153671E+02  4.864153671E+02  0.000000000E+00  0.00000E+00  9.000E+00
      25     1     1     2     0     0 -7.931686104E+01  8.747154163E+01 -2.536515284E+02  3.064417284E+02  1.250000000E+02  0.00000E+00  9.000E+00
      25     1     1     2     0     0  8.509871393E+01 -6.958919918E+01 -1.026591438E+02  1.955718476E+02  1.250000000E+02  0.00000E+00  9.000E+00
      21     1     1     2   502   512 -5.781852899E+00 -1.788234245E+01 -5.571093739E+01  5.879554864E+01  0.000000000E+00  0.00000E+00  9.000E+00
#rwgt            1           1   4.4608976699560453E-002          10      321970           0
</event>
<event>
      5   9999  3.79277E-02  8.67598E+00 -1.00000E+00  2.03169E-01
      21    -1     0     0   502   511  0.000000000E+00  0.000000000E+00  3.218400911E+02  3.218400911E+02  0.000000000E+00  0.00000E+00  9.000E+00
      21    -1     0     0   501   502  0.000000000E+00  0.000000000E+00 -2.042296438E+02  2.042296438E+02  0.000000000E+00  0.00000E+00  9.000E+00
      25     1     1     2     0     0  1.362417718E+02  6.073499045E+01  2.054641675E+02  2.830036812E+02  1.250000000E+02  0.00000E+00  9.000E+00
      25     1     1     2     0     0 -1.446868945E+02 -6.272310770E+01 -1.026609225E+02  2.259042954E+02  1.250000000E+02  0.00000E+00  9.000E+00
      21     1     1     2   501   511  8.445122652E+00  1.988117257E+00  1.480720225E+01  1.716175822E+01  1.685873940E-07  0.00000E+00  9.000E+00
#rwgt            1           1   3.6432417250515388E-002          10      322227           0
</event>
<event>
      5   9999  3.79277E-02  3.08665E+01 -1.00000E+00  1.52186E-01
      21    -1     0     0   512   501  0.000000000E+00  0.000000000E+00  9.847696373E+01  9.847696373E+01  0.000000000E+00  0.00000E+00  9.000E+00
      21    -1     0     0   501   502  0.000000000E+00  0.000000000E+00 -3.690625681E+02  3.690625681E+02  0.000000000E+00  0.00000E+00  9.000E+00
      25     1     1     2     0     0 -4.863708311E+01 -1.401776366E+01 -5.186745743E+00  1.349591267E+02  1.250000000E+02  0.00000E+00  9.000E+00
      25     1     1     2     0     0  5.636666266E+01  4.390077184E+01 -2.651436742E+02  3.017128543E+02  1.250000000E+02  0.00000E+00  9.000E+00
      21     1     1     2   512   502 -7.729579547E+00 -2.988300818E+01 -2.551843872E-01  3.086755087E+01  7.307553606E-07  0.00000E+00  9.000E+00
#rwgt            1           1   6.0197108862903033E-002          10      322493           0
</event>
<event>
      5   9999  3.79277E-02  7.33149E+01 -1.00000E+00  1.30211E-01
      21    -1     0     0   502   501  0.000000000E+00  0.000000000E+00  1.168060831E+03  1.168060831E+03  0.000000000E+00  0.00000E+00  9.000E+00
      21    -1     0     0   501   511  0.000000000E+00  0.000000000E+00 -2.354057587E+02  2.354057587E+02  0.000000000E+00  0.00000E+00  9.000E+00
      25     1     1     2     0     0  2.271023955E+02 -9.992771479E+01  5.407146855E+01  2.830366936E+02  1.250000000E+02  0.00000E+00  9.000E+00
      25     1     1     2     0     0 -1.616962985E+02  1.330504651E+02  9.717454872E+02  1.001879439E+03  1.250000000E+02  0.00000E+00  9.000E+00
      21     1     1     2   502   511 -6.540609702E+01 -3.312275027E+01 -9.316188383E+01  1.185504564E+02  2.336015456E-06  0.00000E+00  9.000E+00
#rwgt            1           1   6.2239604573391921E-002          10      322639           0
</event>
<event>
      5   9999  3.94931E-02  2.34365E+01 -1.00000E+00  1.60881E-01
      21    -1     0     0   502   512  0.000000000E+00  0.000000000E+00  5.115835553E+01  5.115835553E+01  0.000000000E+00  0.00000E+00  9.000E+00
      21    -1     0     0   501   502  0.000000000E+00  0.000000000E+00 -1.608583805E+03  1.608583805E+03  0.000000000E+00  0.00000E+00  9.000E+00
      25     1     1     2     0     0 -5.583128943E+01 -2.008804647E+02 -1.039566272E+03  1.067610944E+03  1.250000000E+02  0.00000E+00  9.000E+00
      25     1     1     2     0     0  6.292722661E+01  2.232169358E+02 -4.817148938E+02  5.490536178E+02  1.250000000E+02  0.00000E+00  9.000E+00
      21     1     1     2   501   512 -7.095937175E+00 -2.233647112E+01 -3.614428349E+01  4.307759854E+01  0.000000000E+00  0.00000E+00  9.000E+00
#rwgt            1           1  0.40866693597172904               10      322861           0
</event>
<event>
      5   9999  3.79277E-02  2.93287E+01 -1.00000E+00  1.53726E-01
      21    -1     0     0   502   501  0.000000000E+00  0.000000000E+00  1.646233464E+02  1.646233464E+02  0.000000000E+00  0.00000E+00  9.000E+00
      21    -1     0     0   511   502  0.000000000E+00  0.000000000E+00 -3.640204709E+02  3.640204709E+02  0.000000000E+00  0.00000E+00  9.000E+00
      25     1     1     2     0     0 -1.312871680E+02  6.161689188E+01 -1.506473676E+02  2.436238724E+02  1.250000000E+02  0.00000E+00  9.000E+00
      25     1     1     2     0     0  1.505033886E+02 -8.377337386E+01  1.651891005E+01  2.134645697E+02  1.250000000E+02  0.00000E+00  9.000E+00
      21     1     1     2   511   501 -1.921622061E+01  2.215648198E+01 -6.526866700E+01  7.155537520E+01  9.536743164E-07  0.00000E+00  9.000E+00
#rwgt            1           1   2.9156920006499630E-002          10      323276           0
</event>
<event>
      5   9999  3.79277E-02  3.06729E+01 -1.00000E+00  1.52374E-01
      21    -1     0     0   502   501  0.000000000E+00  0.000000000E+00  2.287466105E+02  2.287466105E+02  0.000000000E+00  0.00000E+00  9.000E+00
      21    -1     0     0   501   512  0.000000000E+00  0.000000000E+00 -2.974105119E+02  2.974105119E+02  0.000000000E+00  0.00000E+00  9.000E+00
      25     1     1     2     0     0 -3.455668584E+00  8.209276871E+01 -1.815995971E+02  2.352755363E+02  1.250000000E+02  0.00000E+00  9.000E+00
      25     1     1     2     0     0  1.891139148E+01 -5.559846446E+01  1.742374700E+02  2.223342662E+02  1.250000000E+02  0.00000E+00  9.000E+00
      21     1     1     2   502   512 -1.545572290E+01 -2.649430425E+01 -6.130177430E+01  6.854731986E+01  0.000000000E+00  0.00000E+00  9.000E+00
#rwgt            1           1   3.2911793257541809E-002          10      323434           0
</event>
<event>
      5   9999  3.79277E-02  4.68840E+00 -1.00000E+00  2.48212E-01
      21    -1     0     0   511   501  0.000000000E+00  0.000000000E+00  4.986386414E+01  4.986386414E+01  0.000000000E+00  0.00000E+00  9.000E+00
      21    -1     0     0   501   502  0.000000000E+00  0.000000000E+00 -8.912866917E+02  8.912866917E+02  0.000000000E+00  0.00000E+00  9.000E+00
      25     1     1     2     0     0 -3.135706516E+00 -1.375357384E+02 -2.149105169E+02  2.841433481E+02  1.250000000E+02  0.00000E+00  9.000E+00
      25     1     1     2     0     0 -1.249277051E+00  1.391949490E+02 -6.244704036E+02  6.518934572E+02  1.250000000E+02  0.00000E+00  9.000E+00
      21     1     1     2   511   502  4.384983567E+00 -1.659210643E+00 -2.041907099E+00  5.113750624E+00  1.763129170E-07  0.00000E+00  9.000E+00
#rwgt            1           1   4.3716532027749978E-002          10      323575           0
</event>
<event>
      5   9999  3.79277E-02  6.28542E+01 -1.00000E+00  1.33634E-01
      21    -1     0     0   502   501  0.000000000E+00  0.000000000E+00  7.993819705E+02  7.993819705E+02  0.000000000E+00  0.00000E+00  9.000E+00
      21    -1     0     0   512   502  0.000000000E+00  0.000000000E+00 -3.737604762E+02  3.737604762E+02  0.000000000E+00  0.00000E+00  9.000E+00
      25     1     1     2     0     0  2.078804727E+02  1.227318600E+01  3.338594268E+02  4.128583764E+02  1.250000000E+02  0.00000E+00  9.000E+00
      25     1     1     2     0     0 -1.455002156E+02 -4.569087362E+00  4.010964457E+02  4.446285506E+02  1.250000000E+02  0.00000E+00  9.000E+00
      21     1     1     2   512   501 -6.238025718E+01 -7.704098638E+00 -3.093343782E+02  3.156555198E+02  6.607249480E-06  0.00000E+00  9.000E+00
#rwgt            1           1   3.7033196781912310E-002          10      324057           0
</event>
<event>
      5   9999  3.79277E-02  3.02909E+01 -1.00000E+00  1.52749E-01
      21    -1     0     0   502   511  0.000000000E+00  0.000000000E+00  2.030782539E+03  2.030782539E+03  0.000000000E+00  0.00000E+00  9.000E+00
      21    -1     0     0   501   502  0.000000000E+00  0.000000000E+00 -1.882053998E+01  1.882053998E+01  0.000000000E+00  0.00000E+00  9.000E+00
      25     1     1     2     0     0 -4.728827298E+01 -4.344508500E+01  9.222389082E+02  9.328843765E+02  1.250000000E+02  0.00000E+00  9.000E+00
      25     1     1     2     0     0  3.473998929E+01  7.101461079E+01  4.022573431E+02  4.285859445E+02  1.250000000E+02  0.00000E+00  9.000E+00
      21     1     1     2   501   511  1.254828368E+01 -2.756952579E+01  6.874657482E+02  6.881327583E+02  7.629394531E-06  0.00000E+00  9.000E+00
#rwgt            1           1   5.4085610036672761E-002          10      324209           0
</event>
<event>
      5   9999  3.79277E-02  6.86940E+00 -1.00000E+00  2.16716E-01
      21    -1     0     0   512   501  0.000000000E+00  0.000000000E+00  5.985783488E+01  5.985783488E+01  0.000000000E+00  0.00000E+00  9.000E+00
      21    -1     0     0   501   502  0.000000000E+00  0.000000000E+00 -6.145846868E+02  6.145846868E+02  0.000000000E+00  0.00000E+00  9.000E+00
      25     1     1     2     0     0 -5.662290044E+00  3.633095603E+01 -5.131729349E+02  5.294558159E+02  1.250000000E+02  0.00000E+00  9.000E+00
      25     1     1     2     0     0  1.197066223E+01 -3.904998369E+01 -3.655141579E+01  1.364888419E+02  1.250000000E+02  0.00000E+00  9.000E+00
      21     1     1     2   512   502 -6.308372188E+00  2.719027656E+00 -5.002501247E+00  8.497863836E+00  8.429369702E-08  0.00000E+00  9.000E+00
#rwgt            1           1   4.6366310726753880E-002          10      324424           0
</event>
<event>
      5   9999  3.79277E-02  2.62603E+01 -1.00000E+00  1.57167E-01
      21    -1     0     0   502   501  0.000000000E+00  0.000000000E+00  1.883707936E+02  1.883707936E+02  0.000000000E+00  0.00000E+00  9.000E+00
       1    -1     0     0   501     0  0.000000000E+00  0.000000000E+00 -6.081332882E+02  6.081332882E+02  0.000000000E+00  0.00000E+00  9.000E+00
      25     1     1     2     0     0  1.074489483E+02 -1.759172097E+01 -1.124909143E+02  2.003345974E+02  1.250000000E+02  0.00000E+00  9.000E+00
      25     1     1     2     0     0 -8.683697970E+01  1.320575242E+00  1.038171921E+02  1.842428135E+02  1.250000000E+02  0.00000E+00  9.000E+00
       1     1     1     2   502     0 -2.061196861E+01  1.627114573E+01 -4.110887724E+02  4.119266709E+02  5.394796609E-06  0.00000E+00  9.000E+00
#rwgt            1           1   3.5535226870526702E-002          10      324723           0
</event>
<event>
      5   9999  3.79277E-02  5.44025E+01 -1.00000E+00  1.37016E-01
      21    -1     0     0   502   501  0.000000000E+00  0.000000000E+00  1.366873827E+01  1.366873827E+01  0.000000000E+00  0.00000E+00  9.000E+00
       2    -1     0     0   501     0  0.000000000E+00  0.000000000E+00 -3.252016183E+03  3.252016183E+03  0.000000000E+00  0.00000E+00  9.000E+00
      25     1     1     2     0     0 -6.046047531E+01  6.779833714E+01 -5.682239482E+02  5.888595239E+02  1.250000000E+02  0.00000E+00  9.000E+00
      25     1     1     2     0     0  9.100677710E+00 -4.985936930E+01 -1.888018922E+03  1.892831009E+03  1.250000000E+02  0.00000E+00  9.000E+00
       2     1     1     2   502     0  5.135979760E+01 -1.793896785E+01 -7.821045743E+02  7.839943880E+02  1.525878906E-05  0.00000E+00  9.000E+00
#rwgt            1           1   6.2456374698347285E-002          10      324854           0
</event>
<event>
      5   9999  3.79277E-02  3.37036E+01 -1.00000E+00  1.49609E-01
      21    -1     0     0   511   501  0.000000000E+00  0.000000000E+00  1.045428596E+02  1.045428596E+02  0.000000000E+00  0.00000E+00  9.000E+00
      21    -1     0     0   501   502  0.000000000E+00  0.000000000E+00 -6.533969305E+02  6.533969305E+02  0.000000000E+00  0.00000E+00  9.000E+00
      25     1     1     2     0     0  3.409923386E+01 -2.028016977E+02 -4.067049726E+02  4.725729796E+02  1.250000000E+02  0.00000E+00  9.000E+00
      25     1     1     2     0     0 -2.164420695E+01  1.714839128E+02 -1.167813793E+02  2.431832531E+02  1.250000000E+02  0.00000E+00  9.000E+00
      21     1     1     2   511   502 -1.245502691E+01  3.131778492E+01 -2.536771905E+01  4.218355743E+01  1.066240300E-06  0.00000E+00  9.000E+00
#rwgt            1           1   4.8298993586556448E-002          10      324988           0
</event>
<event>
      5   9999  3.79277E-02  5.95738E+01 -1.00000E+00  1.34869E-01
      21    -1     0     0   502   501  0.000000000E+00  0.000000000E+00  3.882667315E+02  3.882667315E+02  0.000000000E+00  0.00000E+00  9.000E+00
      21    -1     0     0   512   502  0.000000000E+00  0.000000000E+00 -1.765759783E+02  1.765759783E+02  0.000000000E+00  0.00000E+00  9.000E+00
      25     1     1     2     0     0 -1.281716372E+02 -1.336309793E+02  2.282132735E+02  3.193610894E+02  1.250000000E+02  0.00000E+00  9.000E+00
      25     1     1     2     0     0  7.158834382E+01  1.149932377E+02 -2.761949301E+00  1.843392635E+02  1.250000000E+02  0.00000E+00  9.000E+00
      21     1     1     2   512   501  5.658329342E+01  1.863774159E+01 -1.376057089E+01  6.114235699E+01  9.830249847E-07  0.00000E+00  9.000E+00
#rwgt            1           1   3.7992854322013714E-002          10      325160           0
</event>
<event>
      5   9999  3.79277E-02  3.36683E+01 -1.00000E+00  1.49640E-01
      21    -1     0     0   502   501  0.000000000E+00  0.000000000E+00  1.974208728E+02  1.974208728E+02  0.000000000E+00  0.00000E+00  9.000E+00
      21    -1     0     0   511   502  0.000000000E+00  0.000000000E+00 -1.549297027E+02  1.549297027E+02  0.000000000E+00  0.00000E+00  9.000E+00
      25     1     1     2     0     0 -6.736865281E+01 -6.416539320E+01 -2.453045062E+01  1.577418019E+02  1.250000000E+02  0.00000E+00  9.000E+00
      25     1     1     2     0     0  6.480656538E+01  3.059467259E+01  7.113604902E+01  1.606899573E+02  1.250000000E+02  0.00000E+00  9.000E+00
      21     1     1     2   511   501  2.562087428E+00  3.357072061E+01 -4.114428274E+00  3.391881623E+01  2.665600750E-07  0.00000E+00  9.000E+00
#rwgt            1           1   4.1150057155795484E-002          10      325260           0
</event>
<event>
      5   9999  3.79277E-02  5.56655E+01 -1.00000E+00  1.36467E-01
      21    -1     0     0   502   501  0.000000000E+00  0.000000000E+00  9.193441413E+02  9.193441413E+02  0.000000000E+00  0.00000E+00  9.000E+00
      21    -1     0     0   501   512  0.000000000E+00  0.000000000E+00 -1.199497225E+02  1.199497225E+02  0.000000000E+00  0.00000E+00  9.000E+00
      25     1     1     2     0     0 -3.318924157E+01  2.134054458E+01  9.952443120E+01  1.645814601E+02  1.250000000E+02  0.00000E+00  9.000E+00
      25     1     1     2     0     0  2.451339340E+01 -7.632581934E+01  7.705587576E+02  7.847371127E+02  1.250000000E+02  0.00000E+00  9.000E+00
      21     1     1     2   502   512  8.675848168E+00  5.498527476E+01 -7.068876998E+01  8.997529096E+01  2.132480600E-06  0.00000E+00  9.000E+00
#rwgt            1           1   3.8374644441848994E-002          10      325364           0
</event>
<event>
      5   9999  3.79277E-02  3.53736E+01 -1.00000E+00  1.48230E-01
      21    -1     0     0   502   501  0.000000000E+00  0.000000000E+00  5.615812877E+01  5.615812877E+01  0.000000000E+00  0.00000E+00  9.000E+00
      21    -1     0     0   501   511  0.000000000E+00  0.000000000E+00 -7.513465930E+02  7.513465930E+02  0.000000000E+00  0.00000E+00  9.000E+00
      25     1     1     2     0     0 -7.901399750E+00  1.333607880E+02 -1.957759640E+02  2.679566382E+02  1.250000000E+02  0.00000E+00  9.000E+00
      25     1     1     2     0     0 -1.936401365E+01 -1.108243289E+02 -4.280100984E+02  4.598637203E+02  1.250000000E+02  0.00000E+00  9.000E+00
      21     1     1     2   502   511  2.726541340E+01 -2.253645912E+01 -7.140240181E+01  7.968436322E+01  9.536743164E-07  0.00000E+00  9.000E+00
#rwgt            1           1   4.4049457630511955E-002          10      325544           0
</event>
<event>
      5   9999  3.79277E-02  5.87332E+01 -1.00000E+00  1.35201E-01
      21    -1     0     0   502   501  0.000000000E+00  0.000000000E+00  1.097604108E+03  1.097604108E+03  0.000000000E+00  0.00000E+00  9.000E+00
      21    -1     0     0   512   502  0.000000000E+00  0.000000000E+00 -1.840947159E+02  1.840947159E+02  0.000000000E+00  0.00000E+00  9.000E+00
      25     1     1     2     0     0 -5.719176833E+01 -2.859108322E+00 -9.752717282E+01  1.685693397E+02  1.250000000E+02  0.00000E+00  9.000E+00
      25     1     1     2     0     0  1.152368748E+02 -6.105087544E+00  1.035589978E+03  1.049470539E+03  1.250000000E+02  0.00000E+00  9.000E+00
      21     1     1     2   512   501 -5.804510645E+01  8.964195866E+00 -2.455341327E+01  6.365894512E+01  1.581489940E-06  0.00000E+00  9.000E+00
#rwgt            1           1   6.2825104148408736E-002          10      325772           0
</event>
<event>
      5   9999  3.79277E-02  1.63117E+01 -1.00000E+00  1.74021E-01
      21    -1     0     0   502   501  0.000000000E+00  0.000000000E+00  3.153212744E+01  3.153212744E+01  0.000000000E+00  0.00000E+00  9.000E+00
       2    -1     0     0   501     0  0.000000000E+00  0.000000000E+00 -1.807886384E+03  1.807886384E+03  0.000000000E+00  0.00000E+00  9.000E+00
      25     1     1     2     0     0 -1.316846384E+02  1.002520989E+02 -5.588876776E+02  5.961306598E+02  1.250000000E+02  0.00000E+00  9.000E+00
      25     1     1     2     0     0  1.194929278E+02 -8.941536330E+01 -7.289101277E+02  7.544591713E+02  1.250000000E+02  0.00000E+00  9.000E+00
       2     1     1     2   502     0  1.219171060E+01 -1.083673564E+01 -4.885564516E+02  4.888286807E+02  0.000000000E+00  0.00000E+00  9.000E+00
#rwgt            1           1   4.2091092778070945E-002          10      325894           0
</event>
<event>
      5   9999  3.79277E-02  6.29653E+01 -1.00000E+00  1.33593E-01
      21    -1     0     0   511   501  0.000000000E+00  0.000000000E+00  5.064425610E+02  5.064425610E+02  0.000000000E+00  0.00000E+00  9.000E+00
      21    -1     0     0   501   502  0.000000000E+00  0.000000000E+00 -1.196696990E+03  1.196696990E+03  0.000000000E+00  0.00000E+00  9.000E+00
      25     1     1     2     0     0  4.675906557E+02  3.238634917E+02 -6.764744486E+02  8.926204469E+02  1.250000000E+02  0.00000E+00  9.000E+00
      25     1     1     2     0     0 -5.279626791E+02 -3.059790455E+02 -1.669804599E+02  6.448838971E+02  1.250000000E+02  0.00000E+00  9.000E+00
      21     1     1     2   511   502  6.037202343E+01 -1.788444628E+01  1.532004799E+02  1.656352066E+02  1.907348633E-06  0.00000E+00  9.000E+00
#rwgt            1           1   2.7543083500721995E-002          10      326223           0
</event>
<event>
      5   9999  3.79277E-02  8.71584E+01 -1.00000E+00  1.26574E-01
      21    -1     0     0   502   512  0.000000000E+00  0.000000000E+00  3.937434759E+01  3.937434759E+01  0.000000000E+00  0.00000E+00  9.000E+00
      21    -1     0     0   501   502  0.000000000E+00  0.000000000E+00 -3.215519116E+03  3.215519116E+03  0.000000000E+00  0.00000E+00  9.000E+00
      25     1     1     2     0     0 -6.455017128E+01 -9.703734408E+00 -2.562917688E+03  2.566794297E+03  1.250000000E+02  0.00000E+00  9.000E+00
      25     1     1     2     0     0  7.249566326E+01 -7.709178119E+01 -5.654780757E+02  5.887182840E+02  1.250000000E+02  0.00000E+00  9.000E+00
      21     1     1     2   501   512 -7.945491980E+00  8.679551559E+01 -4.774900461E+01  9.938088253E+01  3.371747881E-06  0.00000E+00  9.000E+00
#rwgt            1           1   2.7805293985902070E-002          10      326403           0
</event>
<event>
      5   9999  3.79277E-02  4.96250E+01 -1.00000E+00  1.39262E-01
      21    -1     0     0   502   501  0.000000000E+00  0.000000000E+00  1.049561214E+02  1.049561214E+02  0.000000000E+00  0.00000E+00  9.000E+00
      21    -1     0     0   501   511  0.000000000E+00  0.000000000E+00 -4.473917523E+02  4.473917523E+02  0.000000000E+00  0.00000E+00  9.000E+00
      25     1     1     2     0     0  9.684511507E+01  4.230041881E+01 -7.503178551E+01  1.800640735E+02  1.250000000E+02  0.00000E+00  9.000E+00
      25     1     1     2     0     0 -1.299179690E+02 -5.302797905E+00 -1.197127959E+02  2.164785251E+02  1.250000000E+02  0.00000E+00  9.000E+00
      21     1     1     2   502   511  3.307285396E+01 -3.699762091E+01 -1.476910495E+02  1.558052751E+02  2.697398305E-06  0.00000E+00  9.000E+00
#rwgt            1           1   3.2216096359847186E-002          10      326544           0
</event>
<event>
      5   9999  3.79277E-02  1.64550E+01 -1.00000E+00  1.73678E-01
      21    -1     0     0   502   512  0.000000000E+00  0.000000000E+00  4.947640162E+02  4.947640162E+02  0.000000000E+00  0.00000E+00  9.000E+00
      21    -1     0     0   501   502  0.000000000E+00  0.000000000E+00 -1.206029828E+02  1.206029828E+02  0.000000000E+00  0.00000E+00  9.000E+00
      25     1     1     2     0     0 -1.162180232E+02 -1.238061439E+02  2.919614131E+02  3.601403295E+02  1.250000000E+02  0.00000E+00  9.000E+00
      25     1     1     2     0     0  1.197779356E+02  1.398714470E+02  6.602484910E+01  2.321530880E+02  1.250000000E+02  0.00000E+00  9.000E+00
      21     1     1     2   501   512 -3.559912457E+00 -1.606530309E+01  1.617477124E+01  2.307358153E+01  0.000000000E+00  0.00000E+00  9.000E+00
#rwgt            1           1   4.8461198834750710E-002          10      326747           0
</event>
<event>
      5   9999  3.79277E-02  2.15758E+01 -1.00000E+00  1.63697E-01
      -1    -1     0     0     0   501  0.000000000E+00  0.000000000E+00  5.358568199E+01  5.358568199E+01  0.000000000E+00  0.00000E+00  9.000E+00
      21    -1     0     0   501   502  0.000000000E+00  0.000000000E+00 -1.588190220E+03  1.588190220E+03  0.000000000E+00  0.00000E+00  9.000E+00
      25     1     1     2     0     0  7.134316269E+01 -6.094356542E+00 -1.259155134E+02  1.913287866E+02  1.250000000E+02  0.00000E+00  9.000E+00
      25     1     1     2     0     0 -7.267456539E+01 -1.544034234E+01 -1.419072095E+03  1.426502930E+03  1.250000000E+02  0.00000E+00  9.000E+00
      -1     1     1     2     0   502  1.331402697E+00  2.153469888E+01  1.038307051E+01  2.394418598E+01  8.678567278E-07  0.00000E+00  9.000E+00
#rwgt            1           1   4.8832259852116644E-002          10      327046           0
</event>
<event>
      5   9999  3.79277E-02  4.72877E+01 -1.00000E+00  1.40472E-01
      21    -1     0     0   502   511  0.000000000E+00  0.000000000E+00  1.365008013E+03  1.365008013E+03  0.000000000E+00  0.00000E+00  9.000E+00
      21    -1     0     0   501   502  0.000000000E+00  0.000000000E+00 -7.161495665E+01  7.161495665E+01  0.000000000E+00  0.00000E+00  9.000E+00
      25     1     1     2     0     0 -9.590757041E+01 -6.634883606E+01  9.135412061E+02  9.293992497E+02  1.250000000E+02  0.00000E+00  9.000E+00
      25     1     1     2     0     0  1.316878062E+02  3.543123692E+01  7.646265076E+01  2.001713961E+02  1.250000000E+02  0.00000E+00  9.000E+00
      21     1     1     2   501   511 -3.578023581E+01  3.091759914E+01  3.033891995E+02  3.070523238E+02  3.814697266E-06  0.00000E+00  9.000E+00
#rwgt            2          11   1.3497772645186033E-003          10      327196           0
</event>
<event>
      5   9999  3.79277E-02  2.42863E+01 -1.00000E+00  1.59699E-01
      21    -1     0     0   502   501  0.000000000E+00  0.000000000E+00  1.536836718E+02  1.536836718E+02  0.000000000E+00  0.00000E+00  9.000E+00
      21    -1     0     0   501   512  0.000000000E+00  0.000000000E+00 -1.895476388E+03  1.895476388E+03  0.000000000E+00  0.00000E+00  9.000E+00
      25     1     1     2     0     0 -9.746797714E+01 -4.646766228E+02 -4.997017895E+02  7.005364008E+02  1.250000000E+02  0.00000E+00  9.000E+00
      25     1     1     2     0     0  7.693355062E+01  4.776444145E+02 -1.202344488E+03  1.302044633E+03  1.250000000E+02  0.00000E+00  9.000E+00
      21     1     1     2   502   512  2.053442652E+01 -1.296779169E+01 -3.974643850E+01  4.657902605E+01  8.259061849E-07  0.00000E+00  9.000E+00
#rwgt            1           1   6.5009574311447077E-002          10      327336           0
</event>
<event>
      5   9999  3.79277E-02  5.86642E+01 -1.00000E+00  1.35228E-01
      21    -1     0     0   502   501  0.000000000E+00  0.000000000E+00  2.081435635E+03  2.081435635E+03  0.000000000E+00  0.00000E+00  9.000E+00
      21    -1     0     0   511   502  0.000000000E+00  0.000000000E+00 -1.665286584E+02  1.665286584E+02  0.000000000E+00  0.00000E+00  9.000E+00
      25     1     1     2     0     0  3.413994131E+02 -2.549368678E+02  1.559544395E+03  1.621527085E+03  1.250000000E+02  0.00000E+00  9.000E+00
      25     1     1     2     0     0 -3.830079986E+02  2.135821567E+02  3.004607465E+02  5.460898505E+02  1.250000000E+02  0.00000E+00  9.000E+00
      21     1     1     2   511   501  4.160858550E+01  4.135471110E+01  5.490183523E+01  8.034735857E+01  1.907348633E-06  0.00000E+00  9.000E+00
#rwgt            1           1   5.1215266639146169E-002          10      327568           0
</event>
<event>
      5   9999  3.79277E-02  2.87329E+01 -1.00000E+00  1.54353E-01
      21    -1     0     0   502   501  0.000000000E+00  0.000000000E+00  6.311680399E+02  6.311680399E+02  0.000000000E+00  0.00000E+00  9.000E+00
      21    -1     0     0   501   512  0.000000000E+00  0.000000000E+00 -2.131927635E+02  2.131927635E+02  0.000000000E+00  0.00000E+00  9.000E+00
      25     1     1     2     0     0  8.862918605E+01 -2.845804860E+02  2.811235558E+02  4.283650771E+02  1.250000000E+02  0.00000E+00  9.000E+00
      25     1     1     2     0     0 -1.163062001E+02  2.922981504E+02  1.642837240E+02  3.762704917E+02  1.250000000E+02  0.00000E+00  9.000E+00
      21     1     1     2   502   512  2.767701406E+01 -7.717664472E+00 -2.743200343E+01  3.972523460E+01  4.768371582E-07  0.00000E+00  9.000E+00
#rwgt            1           1   3.4933263655003474E-002          10      327700           0
</event>
<event>
      5   9999  3.79277E-02  1.85671E+02 -1.00000E+00  1.12836E-01
      21    -1     0     0   502   501  0.000000000E+00  0.000000000E+00  6.392353502E+01  6.392353502E+01  0.000000000E+00  0.00000E+00  9.000E+00
       2    -1     0     0   501     0  0.000000000E+00  0.000000000E+00 -2.047403964E+03  2.047403964E+03  0.000000000E+00  0.00000E+00  9.000E+00
      25     1     1     2     0     0 -1.297757119E+02 -1.604750196E+02 -5.361379915E+02  5.879310446E+02  1.250000000E+02  0.00000E+00  9.000E+00
      25     1     1     2     0     0  2.320458526E+02  5.508769118E+00 -5.906361439E+02  6.468011122E+02  1.250000000E+02  0.00000E+00  9.000E+00
       2     1     1     2   502     0 -1.022701407E+02  1.549662505E+02 -8.567062931E+02  8.765953417E+02  0.000000000E+00  0.00000E+00  9.000E+00
#rwgt            1           1   3.9305525533901091E-002          10      327902           0
</event>
<event>
      5   9999  3.79277E-02  6.18114E+01 -1.00000E+00  1.34017E-01
      21    -1     0     0   511   501  0.000000000E+00  0.000000000E+00  5.412370122E+02  5.412370122E+02  0.000000000E+00  0.00000E+00  9.000E+00
      21    -1     0     0   501   502  0.000000000E+00  0.000000000E+00 -5.534072755E+02  5.534072755E+02  0.000000000E+00  0.00000E+00  9.000E+00
      25     1     1     2     0     0 -1.196544718E+02 -1.120083799E+02  5.776117759E+01  2.140663995E+02  1.250000000E+02  0.00000E+00  9.000E+00
      25     1     1     2     0     0  1.290730846E+02  5.091878691E+01 -4.543431903E+02  4.912283772E+02  1.250000000E+02  0.00000E+00  9.000E+00
      21     1     1     2   511   502 -9.418612811E+00  6.108959295E+01  3.844117494E+02  3.893495109E+02  0.000000000E+00  0.00000E+00  9.000E+00
#rwgt            1           1   4.3453245870699243E-002          10      327949           0
</event>
<event>
      5   9999  3.79277E-02  2.19628E+01 -1.00000E+00  1.63083E-01
      21    -1     0     0   502   512  0.000000000E+00  0.000000000E+00  1.690879045E+02  1.690879045E+02  0.000000000E+00  0.00000E+00  9.000E+00
      21    -1     0     0   501   502  0.000000000E+00  0.000000000E+00 -3.373459140E+02  3.373459140E+02  0.000000000E+00  0.00000E+00  9.000E+00
      25     1     1     2     0     0 -2.501054441E+01  1.175361133E+02 -2.261897275E+02  2.850036107E+02  1.250000000E+02  0.00000E+00  9.000E+00
      25     1     1     2     0     0  3.412532724E+00 -1.135498288E+02  1.058818954E+01  1.692404171E+02  1.250000000E+02  0.00000E+00  9.000E+00
      21     1     1     2   501   512  2.159801169E+01 -3.986284431E+00  4.734352852E+01  5.218979082E+01  0.000000000E+00  0.00000E+00  9.000E+00
#rwgt            1           1   3.3743966378075793E-002          10      328034           0
</event>
<event>
      5   9999  3.79277E-02  1.02374E+02 -1.00000E+00  1.23371E-01
      21    -1     0     0   502   501  0.000000000E+00  0.000000000E+00  1.847793401E+03  1.847793401E+03  0.000000000E+00  0.00000E+00  9.000E+00
      21    -1     0     0   501   511  0.000000000E+00  0.000000000E+00 -2.908189783E+03  2.908189783E+03  0.000000000E+00  0.00000E+00  9.000E+00
      25     1     1     2     0     0  8.728269156E+01 -4.045258627E+01  1.493814745E+03  1.502119227E+03  1.250000000E+02  0.00000E+00  9.000E+00
      25     1     1     2     0     0 -1.002300902E+02  1.420048092E+02  3.160716305E+02  3.817560903E+02  1.250000000E+02  0.00000E+00  9.000E+00
      21     1     1     2   502   511  1.294739866E+01 -1.015522229E+02 -2.870282758E+03  2.872107867E+03  3.051757812E-05  0.00000E+00  9.000E+00
#rwgt            1           1   4.0450114408289550E-002          10      328179           0
</event>
<event>
      5   9999  3.79277E-02  1.29793E+01 -1.00000E+00  1.83516E-01
      21    -1     0     0   502   501  0.000000000E+00  0.000000000E+00  5.650755222E+01  5.650755222E+01  0.000000000E+00  0.00000E+00  9.000E+00
      21    -1     0     0   501   512  0.000000000E+00  0.000000000E+00 -1.030720233E+03  1.030720233E+03  0.000000000E+00  0.00000E+00  9.000E+00
      25     1     1     2     0     0  6.911468814E+01 -1.440423582E+02 -6.223192551E+02  6.545466342E+02  1.250000000E+02  0.00000E+00  9.000E+00
      25     1     1     2     0     0 -7.895588841E+01  1.355798949E+02 -2.108078498E+02  2.909998106E+02  1.250000000E+02  0.00000E+00  9.000E+00
      21     1     1     2   502   512  9.841200268E+00  8.462463290E+00 -1.410855760E+02  1.416813406E+02  1.907348633E-06  0.00000E+00  9.000E+00
#rwgt            1           1   3.7978269616070620E-002          10      328511           0
</event>
<event>
      5   9999  3.79277E-02  1.66799E+01 -1.00000E+00  1.73148E-01
      21    -1     0     0   502   501  0.000000000E+00  0.000000000E+00  5.877821717E+02  5.877821717E+02  0.000000000E+00  0.00000E+00  9.000E+00
      21    -1     0     0   501   511  0.000000000E+00  0.000000000E+00 -8.754978976E+02  8.754978976E+02  0.000000000E+00  0.00000E+00  9.000E+00
      25     1     1     2     0     0 -1.117122389E+02 -1.204583730E+02  3.420765085E+02  3.995387110E+02  1.250000000E+02  0.00000E+00  9.000E+00
      25     1     1     2     0     0  1.115890871E+02  1.371377785E+02  1.628449313E+02  2.709287108E+02  1.250000000E+02  0.00000E+00  9.000E+00
      21     1     1     2   502   511  1.231517292E-01 -1.667940555E+01 -7.926371657E+02  7.928126476E+02  1.525878906E-05  0.00000E+00  9.000E+00
#rwgt            1           1   4.3493476370824756E-002          10      328782           0
</event>
<event>
      5   9999  3.79277E-02  4.72711E+01 -1.00000E+00  1.40481E-01
      21    -1     0     0   502   501  0.000000000E+00  0.000000000E+00  1.466152287E+02  1.466152287E+02  0.000000000E+00  0.00000E+00  9.000E+00
      21    -1     0     0   501   512  0.000000000E+00  0.000000000E+00 -1.162173365E+03  1.162173365E+03  0.000000000E+00  0.00000E+00  9.000E+00
      25     1     1     2     0     0  1.457742879E+02 -2.575755219E+02 -6.656893655E+02  7.391634622E+02  1.250000000E+02  0.00000E+00  9.000E+00
      25     1     1     2     0     0 -1.098076181E+02  2.882505268E+02 -1.514645645E+02  3.656673263E+02  1.250000000E+02  0.00000E+00  9.000E+00
      21     1     1     2   502   512 -3.596666981E+01 -3.067500493E+01 -1.984042066E+02  2.039578056E+02  2.697398305E-06  0.00000E+00  9.000E+00
#rwgt            1           1   3.4276545451925496E-002          10      329042           0
</event>
<event>
      5   9999  3.79277E-02  6.86044E+01 -1.00000E+00  1.31665E-01
      21    -1     0     0   502   501  0.000000000E+00  0.000000000E+00  1.457414040E+03  1.457414040E+03  0.000000000E+00  0.00000E+00  9.000E+00
      21    -1     0     0   511   502  0.000000000E+00  0.000000000E+00 -3.695631809E+02  3.695631809E+02  0.000000000E+00  0.00000E+00  9.000E+00
      25     1     1     2     0     0 -4.517876598E+02  6.035102230E+01  2.496704597E+02  5.345228469E+02  1.250000000E+02  0.00000E+00  9.000E+00
      25     1     1     2     0     0  3.973697574E+02 -1.857483684E+01  1.017947776E+03  1.100041101E+03  1.250000000E+02  0.00000E+00  9.000E+00
      21     1     1     2   511   501  5.441790240E+01 -4.177618546E+01 -1.797673770E+02  1.924132729E+02  3.814697266E-06  0.00000E+00  9.000E+00
#rwgt            2          11   5.9964568525310820E-003          10      329223           0
</event>
<event>
      5   9999  3.79277E-02  2.17352E+02 -1.00000E+00  1.10348E-01
      21    -1     0     0   512   501  0.000000000E+00  0.000000000E+00  5.153113284E+02  5.153113284E+02  0.000000000E+00  0.00000E+00  9.000E+00
      21    -1     0     0   501   502  0.000000000E+00  0.000000000E+00 -2.486487109E+02  2.486487109E+02  0.000000000E+00  0.00000E+00  9.000E+00
      25     1     1     2     0     0  1.579135459E+02 -1.008235307E+02  1.201625308E+02  2.552765288E+02  1.250000000E+02  0.00000E+00  9.000E+00
      25     1     1     2     0     0 -1.389731308E+02 -1.157013126E+02 -3.860176023E+01  2.231936843E+02  1.250000000E+02  0.00000E+00  9.000E+00
      21     1     1     2   512   502 -1.894041518E+01  2.165248433E+02  1.851018470E+02  2.854898262E+02  3.814697266E-06  0.00000E+00  9.000E+00
#rwgt            2          11   1.8278353475054507E-003          10      329318           0
</event>
<event>
      5   9999  3.79277E-02  5.18522E+01 -1.00000E+00  1.38180E-01
      21    -1     0     0   511   501  0.000000000E+00  0.000000000E+00  3.139844268E+02  3.139844268E+02  0.000000000E+00  0.00000E+00  9.000E+00
      21    -1     0     0   501   502  0.000000000E+00  0.000000000E+00 -1.954107365E+02  1.954107365E+02  0.000000000E+00  0.00000E+00  9.000E+00
      25     1     1     2     0     0  1.211180275E+01  1.645475511E+02  2.978684029E+01  2.091287837E+02  1.250000000E+02  0.00000E+00  9.000E+00
      25     1     1     2     0     0  3.171132686E+01 -1.922636327E+02  5.368739657E+01  2.376515290E+02  1.250000000E+02  0.00000E+00  9.000E+00
      21     1     1     2   511   502 -4.382312960E+01  2.771608162E+01  3.509945351E+01  6.261485052E+01  6.743495762E-07  0.00000E+00  9.000E+00
#rwgt            1           1   3.0363196526333937E-002          10      329338           0
</event>
<event>
      5   9999  3.79277E-02  1.38493E+02 -1.00000E+00  1.17784E-01
      21    -1     0     0   502   501  0.000000000E+00  0.000000000E+00  6.258935300E+02  6.258935300E+02  0.000000000E+00  0.00000E+00  9.000E+00
      21    -1     0     0   512   502  0.000000000E+00  0.000000000E+00 -2.390373654E+02  2.390373654E+02  0.000000000E+00  0.00000E+00  9.000E+00
      25     1     1     2     0     0 -8.505676484E+01  2.957246965E+01 -6.441776633E+00  1.541936467E+02  1.250000000E+02  0.00000E+00  9.000E+00
      25     1     1     2     0     0 -1.876064204E+01  6.209118933E+01  5.103382753E+02  5.294123466E+02  1.250000000E+02  0.00000E+00  9.000E+00
      21     1     1     2   512   501  1.038174069E+02 -9.166365899E+01 -1.170403340E+02  1.813249021E+02  3.015782986E-06  0.00000E+00  9.000E+00
#rwgt            1           1   4.6272522618795393E-002          10      329404           0
</event>
<event>
      5   9999  3.79277E-02  1.90043E+02 -1.00000E+00  1.12461E-01
      21    -1     0     0   511   501  0.000000000E+00  0.000000000E+00  1.540489049E+02  1.540489049E+02  0.000000000E+00  0.00000E+00  9.000E+00
      21    -1     0     0   501   502  0.000000000E+00  0.000000000E+00 -1.057510761E+03  1.057510761E+03  0.000000000E+00  0.00000E+00  9.000E+00
      25     1     1     2     0     0 -1.573545301E+02 -1.693741655E+02 -2.181254915E+02  3.415432419E+02  1.250000000E+02  0.00000E+00  9.000E+00
      25     1     1     2     0     0 -2.291106498E+01  1.092017835E+02 -6.568086267E+02  6.778440223E+02  1.250000000E+02  0.00000E+00  9.000E+00
      21     1     1     2   511   502  1.802655951E+02  6.017238196E+01 -2.852773834E+01  1.921724022E+02  3.536319011E-06  0.00000E+00  9.000E+00
#rwgt            2          11   2.1017587391258972E-003          10      329774           0
</event>
<event>
      5   9999  3.79277E-02  3.53113E+01 -1.00000E+00  1.48280E-01
      21    -1     0     0   512   501  0.000000000E+00  0.000000000E+00  7.323792674E+02  7.323792674E+02  0.000000000E+00  0.00000E+00  9.000E+00
      21    -1     0     0   501   502  0.000000000E+00  0.000000000E+00 -1.001027950E+02  1.001027950E+02  0.000000000E+00  0.00000E+00  9.000E+00
      25     1     1     2     0     0  1.795845573E+02  9.842798553E+01  3.930964054E+02  4.605306347E+02  1.250000000E+02  0.00000E+00  9.000E+00
      25     1     1     2     0     0 -1.445476759E+02 -9.403456055E+01  1.133629143E+02  2.412730394E+02  1.250000000E+02  0.00000E+00  9.000E+00
      21     1     1     2   512   502 -3.503688137E+01 -4.393424981E+00  1.258171528E+02  1.306783883E+02  0.000000000E+00  0.00000E+00  9.000E+00
#rwgt            1           1  0.11399493772543932               10      329869           0
</event>
<event>
      5   9999  3.79277E-02  3.51946E+01 -1.00000E+00  1.48374E-01
      21    -1     0     0   502   501  0.000000000E+00  0.000000000E+00  1.735576356E+03  1.735576356E+03  0.000000000E+00  0.00000E+00  9.000E+00
      21    -1     0     0   501   511  0.000000000E+00  0.000000000E+00 -1.000644466E+02  1.000644466E+02  0.000000000E+00  0.00000E+00  9.000E+00
      25     1     1     2     0     0 -4.106440488E+01 -8.316599764E+01  1.112669037E+03  1.123503562E+03  1.250000000E+02  0.00000E+00  9.000E+00
      25     1     1     2     0     0  6.107452772E+01  5.421333091E+01  6.047917678E+02  6.229504519E+02  1.250000000E+02  0.00000E+00  9.000E+00
      21     1     1     2   502   511 -2.001012283E+01  2.895266673E+01 -8.194889488E+01  8.918678881E+01  1.907348633E-06  0.00000E+00  9.000E+00
#rwgt            1           1  0.15580095801315921               10      330091           0
</event>
<event>
      5   9999  3.79277E-02  2.79125E+01 -1.00000E+00  1.55248E-01
      21    -1     0     0   502   512  0.000000000E+00  0.000000000E+00  3.687402522E+02  3.687402522E+02  0.000000000E+00  0.00000E+00  9.000E+00
      21    -1     0     0   501   502  0.000000000E+00  0.000000000E+00 -1.645889340E+02  1.645889340E+02  0.000000000E+00  0.00000E+00  9.000E+00
      25     1     1     2     0     0  9.462204279E+01  5.614742251E+01  1.544790322E+02  2.271445254E+02  1.250000000E+02  0.00000E+00  9.000E+00
      25     1     1     2     0     0 -7.593241707E+01 -7.687919955E+01 -7.281049249E+01  1.805616546E+02  1.250000000E+02  0.00000E+00  9.000E+00
      21     1     1     2   501   512 -1.868962571E+01  2.073177704E+01  1.224827784E+02  1.256230062E+02  1.348699152E-06  0.00000E+00  9.000E+00
#rwgt            1           1   4.1659741952742579E-002          10      330167           0
</event>
<event>
      5   9999  3.79277E-02  6.11615E+01 -1.00000E+00  1.34260E-01
      21    -1     0     0   502   511  0.000000000E+00  0.000000000E+00  4.428922859E+01  4.428922859E+01  0.000000000E+00  0.00000E+00  9.000E+00
      21    -1     0     0   501   502  0.000000000E+00  0.000000000E+00 -1.847605046E+03  1.847605046E+03  0.000000000E+00  0.00000E+00  9.000E+00
      25     1     1     2     0     0  3.921105054E+01 -1.653956581E+02 -1.026314182E+03  1.047778140E+03  1.250000000E+02  0.00000E+00  9.000E+00
      25     1     1     2     0     0 -1.003392600E+02  1.633777998E+02 -7.352807824E+02  7.700799319E+02  1.250000000E+02  0.00000E+00  9.000E+00
      21     1     1     2   501   511  6.112820943E+01  2.017858316E+00 -4.172085281E+01  7.403620263E+01  4.768371582E-07  0.00000E+00  9.000E+00
#rwgt            2          11   6.6254225536331824E-003          10      330479           0
</event>
<event>
      5   9999  3.79277E-02  2.91797E+01 -1.00000E+00  1.53881E-01
      21    -1     0     0   502   501  0.000000000E+00  0.000000000E+00  8.257286337E+02  8.257286337E+02  0.000000000E+00  0.00000E+00  9.000E+00
      21    -1     0     0   512   502  0.000000000E+00  0.000000000E+00 -9.398648392E+01  9.398648392E+01  0.000000000E+00  0.00000E+00  9.000E+00
      25     1     1     2     0     0 -6.018609479E+01 -3.208373220E+01 -1.701152595E+01  1.434089394E+02  1.250000000E+02  0.00000E+00  9.000E+00
      25     1     1     2     0     0  8.518958353E+01  1.704120345E+01  7.178122177E+02  7.337758838E+02  1.250000000E+02  0.00000E+00  9.000E+00
      21     1     1     2   512   501 -2.500348874E+01  1.504252875E+01  3.094145804E+01  4.253029445E+01  4.768371582E-07  0.00000E+00  9.000E+00
#rwgt            1           1   3.0768582081845679E-002          10      330514           0
</event>
<event>
      5   9999  3.79277E-02  1.11518E+02 -1.00000E+00  1.21735E-01
      21    -1     0     0   502   501  0.000000000E+00  0.000000000E+00  9.849685731E+02  9.849685731E+02  0.000000000E+00  0.00000E+00  9.000E+00
      21    -1     0     0   501   511  0.000000000E+00  0.000000000E+00 -1.840839181E+02  1.840839181E+02  0.000000000E+00  0.00000E+00  9.000E+00
      25     1     1     2     0     0  1.853118471E+02 -3.286827569E+00  1.732982580E+02  2.828578621E+02  1.250000000E+02  0.00000E+00  9.000E+00
      25     1     1     2     0     0 -2.958499315E+02 -1.146208633E+01  6.880029351E+02  7.593626275E+02  1.250000000E+02  0.00000E+00  9.000E+00
      21     1     1     2   502   511  1.105380843E+02  1.474891390E+01 -6.041653816E+01  1.268320016E+02  1.348699152E-06  0.00000E+00  9.000E+00
#rwgt            1           1   3.8285058108972890E-002          10      330712           0
</event>
<event>
      5   9999  3.79277E-02  1.44884E+02 -1.00000E+00  1.16994E-01
      21    -1     0     0   502   501  0.000000000E+00  0.000000000E+00  1.589759329E+02  1.589759329E+02  0.000000000E+00  0.00000E+00  9.000E+00
      21    -1     0     0   512   502  0.000000000E+00  0.000000000E+00 -1.698636795E+03  1.698636795E+03  0.000000000E+00  0.00000E+00  9.000E+00
      25     1     1     2     0     0 -2.052251129E+02 -2.158767787E+02 -7.470339285E+01  3.315504900E+02  1.250000000E+02  0.00000E+00  9.000E+00
      25     1     1     2     0     0  1.806680113E+02  7.308893103E+01 -5.089758761E+02  5.591639872E+02  1.250000000E+02  0.00000E+00  9.000E+00
      21     1     1     2   512   501  2.455710159E+01  1.427878476E+02 -9.559815930E+02  9.668982505E+02  0.000000000E+00  0.00000E+00  9.000E+00
#rwgt            1           1   3.8545274106746408E-002          10      330843           0
</event>
<event>
      5   9999  3.79277E-02  1.80952E+01 -1.00000E+00  1.70037E-01
      21    -1     0     0   502   501  0.000000000E+00  0.000000000E+00  1.947289239E+02  1.947289239E+02  0.000000000E+00  0.00000E+00  9.000E+00
      21    -1     0     0   511   502  0.000000000E+00  0.000000000E+00 -3.900327170E+02  3.900327170E+02  0.000000000E+00  0.00000E+00  9.000E+00
      25     1     1     2     0     0  2.861934778E+01 -1.623449035E+02 -1.823073445E+02  2.757460836E+02  1.250000000E+02  0.00000E+00  9.000E+00
      25     1     1     2     0     0 -4.344287827E+01  1.727227617E+02  6.646886068E+01  2.275160336E+02  1.250000000E+02  0.00000E+00  9.000E+00
      21     1     1     2   511   501  1.482353049E+01 -1.037785819E+01 -7.946530929E+01  8.149952378E+01  1.348699152E-06  0.00000E+00  9.000E+00
#rwgt            1           1   4.7576053702012060E-002          10      331020           0
</event>
<event>
      5   9999  3.79277E-02  1.20058E+01 -1.00000E+00  1.87006E-01
      21    -1     0     0   502   512  0.000000000E+00  0.000000000E+00  1.368631215E+02  1.368631215E+02  0.000000000E+00  0.00000E+00  9.000E+00
      21    -1     0     0   501   502  0.000000000E+00  0.000000000E+00 -2.685369463E+02  2.685369463E+02  0.000000000E+00  0.00000E+00  9.000E+00
      25     1     1     2     0     0  1.135441123E+02 -3.128065328E+01 -1.265438580E+02  2.133286026E+02  1.250000000E+02  0.00000E+00  9.000E+00
      25     1     1     2     0     0 -1.235101573E+02  3.797517972E+01 -2.598109288E+00  1.798016224E+02  1.250000000E+02  0.00000E+00  9.000E+00
      21     1     1     2   501   512  9.966045071E+00 -6.694526440E+00 -2.531857560E+00  1.226984276E+01  2.210199382E-07  0.00000E+00  9.000E+00
#rwgt            1           1   3.2361128011433975E-002          10      331153           0
</event>
<event>
      5   9999 -3.79277E-02  9.78510E+00 -1.00000E+00  1.96854E-01
      21    -1     0     0   502   501  0.000000000E+00  0.000000000E+00  2.676857033E+02  2.676857033E+02  0.000000000E+00  0.00000E+00  9.000E+00
      21    -1     0     0   511   502  0.000000000E+00  0.000000000E+00 -4.762707924E+02  4.762707924E+02  0.000000000E+00  0.00000E+00  9.000E+00
      25     1     1     2     0     0  1.675794640E+02  1.990056633E+02 -2.848924800E+02  4.055549974E+02  1.250000000E+02  0.00000E+00  9.000E+00
      25     1     1     2     0     0 -1.599268441E+02 -2.051036676E+02  1.057845909E+02  3.073426257E+02  1.250000000E+02  0.00000E+00  9.000E+00
      21     1     1     2   511   501 -7.652619906E+00  6.098004246E+00 -2.947720006E+01  3.105887266E+01  3.371747881E-07  0.00000E+00  9.000E+00
#rwgt            1           1 -0.18265778258280432               10      331467           0
</event>
<event>
      5   9999  3.79277E-02  1.69784E+01 -1.00000E+00  1.72460E-01
      21    -1     0     0   502   501  0.000000000E+00  0.000000000E+00  1.570084592E+03  1.570084592E+03  0.000000000E+00  0.00000E+00  9.000E+00
      -3    -1     0     0     0   502  0.000000000E+00  0.000000000E+00 -7.314671308E+02  7.314671308E+02  0.000000000E+00  0.00000E+00  9.000E+00
      25     1     1     2     0     0  6.002630015E+01  1.777445982E+02  8.031629424E+02  8.342014211E+02  1.250000000E+02  0.00000E+00  9.000E+00
      25     1     1     2     0     0 -7.622879536E+01 -1.828186834E+02  7.330445700E+02  7.695536641E+02  1.250000000E+02  0.00000E+00  9.000E+00
      -3     1     1     2     0   501  1.620249521E+01  5.074085121E+00 -6.975900515E+02  6.977966373E+02  0.000000000E+00  0.00000E+00  9.000E+00
#rwgt            1           1   3.5134884881761405E-002          10      331723           0
</event>
<event>
      5   9999  3.79277E-02  5.13415E+01 -1.00000E+00  1.38423E-01
      21    -1     0     0   502   501  0.000000000E+00  0.000000000E+00  3.945796343E+01  3.945796343E+01  0.000000000E+00  0.00000E+00  9.000E+00
      21    -1     0     0   511   502  0.000000000E+00  0.000000000E+00 -1.562319720E+03  1.562319720E+03  0.000000000E+00  0.00000E+00  9.000E+00
      25     1     1     2     0     0 -3.727854496E+01 -1.699471361E+00 -1.050125930E+02  1.674670798E+02  1.250000000E+02  0.00000E+00  9.000E+00
      25     1     1     2     0     0  8.319564873E+01 -2.126946991E+01 -7.940593254E+02  8.084114785E+02  1.250000000E+02  0.00000E+00  9.000E+00
      21     1     1     2   511   501 -4.591710377E+01  2.296894127E+01 -6.237898386E+02  6.258991256E+02  7.629394531E-06  0.00000E+00  9.000E+00
#rwgt            1           1   5.0529195585495013E-002          10      332009           0
</event>
<event>
      5   9999  3.79277E-02  7.30605E+01 -1.00000E+00  1.30286E-01
      21    -1     0     0   502   512  0.000000000E+00  0.000000000E+00  7.173566298E+02  7.173566298E+02  0.000000000E+00  0.00000E+00  9.000E+00
      21    -1     0     0   501   502  0.000000000E+00  0.000000000E+00 -2.574272082E+02  2.574272082E+02  0.000000000E+00  0.00000E+00  9.000E+00
      25     1     1     2     0     0 -8.618215718E+01  1.242264282E+02 -8.181018019E+01  2.125499360E+02  1.250000000E+02  0.00000E+00  9.000E+00
      25     1     1     2     0     0  1.560700068E+02 -1.029303493E+02  9.596794755E+00  2.250990944E+02  1.250000000E+02  0.00000E+00  9.000E+00
      21     1     1     2   501   512 -6.988784957E+01 -2.129607893E+01  5.321428071E+02  5.371348077E+02  1.078959322E-05  0.00000E+00  9.000E+00
#rwgt            1           1   3.9757230919600872E-002          10      332193           0
</event>
<event>
      5   9999  3.79277E-02  2.11013E+01 -1.00000E+00  1.64471E-01
      21    -1     0     0   502   501  0.000000000E+00  0.000000000E+00  3.697920321E+02  3.697920321E+02  0.000000000E+00  0.00000E+00  9.000E+00
      21    -1     0     0   501   511  0.000000000E+00  0.000000000E+00 -1.687549715E+02  1.687549715E+02  0.000000000E+00  0.00000E+00  9.000E+00
      25     1     1     2     0     0  1.866160703E+01 -1.981095973E+02  1.135732786E+02  2.609972370E+02  1.250000000E+02  0.00000E+00  9.000E+00
      25     1     1     2     0     0 -3.973768686E+01  1.970778011E+02  9.508065800E+01  2.551158070E+02  1.250000000E+02  0.00000E+00  9.000E+00
      21     1     1     2   502   511  2.107607984E+01  1.031796250E+00 -7.616875977E+00  2.243395963E+01  8.429369702E-08  0.00000E+00  9.000E+00
#rwgt            1           1   4.2352539159347759E-002          10      332292           0
</event>
<event>
      5   9999  3.79277E-02  3.14362E+01 -1.00000E+00  1.51642E-01
      21    -1     0     0   502   501  0.000000000E+00  0.000000000E+00  4.464139001E+02  4.464139001E+02  0.000000000E+00  0.00000E+00  9.000E+00
      21    -1     0     0   501   512  0.000000000E+00  0.000000000E+00 -1.320143028E+02  1.320143028E+02  0.000000000E+00  0.00000E+00  9.000E+00
      25     1     1     2     0     0 -1.117107872E+02  1.343708256E+02  2.798060113E+02  3.527764486E+02  1.250000000E+02  0.00000E+00  9.000E+00
      25     1     1     2     0     0  8.925343621E+01 -1.123729848E+02  3.787474119E+01  1.940447361E+02  1.250000000E+02  0.00000E+00  9.000E+00
      21     1     1     2   502   512  2.245735103E+01 -2.199784081E+01 -3.281155192E+00  3.160701813E+01  3.998401125E-07  0.00000E+00  9.000E+00
#rwgt            1           1   2.7287525457142553E-002          10      332621           0
</event>
<event>
      5   9999  3.79277E-02  8.98185E+00 -1.00000E+00  2.01307E-01
      21    -1     0     0   502   501  0.000000000E+00  0.000000000E+00  1.076449668E+03  1.076449668E+03  0.000000000E+00  0.00000E+00  9.000E+00
      21    -1     0     0   511   502  0.000000000E+00  0.000000000E+00 -6.335857564E+01  6.335857564E+01  0.000000000E+00  0.00000E+00  9.000E+00
      25     1     1     2     0     0  7.467111296E+01  6.857181211E+01  9.094607810E+02  9.235917825E+02  1.250000000E+02  0.00000E+00  9.000E+00
      25     1     1     2     0     0 -6.593014120E+01 -7.063795991E+01  1.194225991E+02  1.980486356E+02  1.250000000E+02  0.00000E+00  9.000E+00
      21     1     1     2   511   501 -8.740971753E+00  2.066147804E+00 -1.579228742E+01  1.816782584E+01  9.386548846E-07  0.00000E+00  9.000E+00
#rwgt            1           1   2.8409843407600818E-002          10      332829           0
</event>
<event>
      5   9999  3.79277E-02  6.35885E+01 -1.00000E+00  1.33369E-01
      21    -1     0     0   512   501  0.000000000E+00  0.000000000E+00  1.613769387E+02  1.613769387E+02  0.000000000E+00  0.00000E+00  9.000E+00
      21    -1     0     0   501   502  0.000000000E+00  0.000000000E+00 -8.913101112E+02  8.913101112E+02  0.000000000E+00  0.00000E+00  9.000E+00
      25     1     1     2     0     0  3.055063472E+02 -1.106278285E+01 -4.398028285E+02  5.500073102E+02  1.250000000E+02  0.00000E+00  9.000E+00
      25     1     1     2     0     0 -2.466536525E+02  3.514302862E+01 -3.265977541E+02  4.293764662E+02  1.250000000E+02  0.00000E+00  9.000E+00
      21     1     1     2   512   502 -5.885269473E+01 -2.408024578E+01  3.646741000E+01  7.330327350E+01  1.348699152E-06  0.00000E+00  9.000E+00
#rwgt            1           1   3.4456176651028021E-002          10      333132           0
</event>
<event>
      5   9999  3.79277E-02  2.37128E+01 -1.00000E+00  1.60490E-01
      21    -1     0     0   502   501  0.000000000E+00  0.000000000E+00  5.528062917E+02  5.528062917E+02  0.000000000E+00  0.00000E+00  9.000E+00
      21    -1     0     0   501   511  0.000000000E+00  0.000000000E+00 -1.562569742E+02  1.562569742E+02  0.000000000E+00  0.00000E+00  9.000E+00
      25     1     1     2     0     0 -1.971917491E+02  6.408230411E+01  3.395328999E+02  4.170116518E+02  1.250000000E+02  0.00000E+00  9.000E+00
      25     1     1     2     0     0  1.988802743E+02 -8.773495029E+01  7.562792943E+01  2.619071757E+02  1.250000000E+02  0.00000E+00  9.000E+00
      21     1     1     2   502   511 -1.688525205E+00  2.365264618E+01 -1.861151181E+01  3.014443830E+01  7.539457465E-07  0.00000E+00  9.000E+00
#rwgt            1           1   4.3732292335451117E-002          10      333244           0
</event>
<event>
      5   9999  3.79277E-02  1.98368E+01 -1.00000E+00  1.66663E-01
      21    -1     0     0   512   501  0.000000000E+00  0.000000000E+00  5.193332113E+02  5.193332113E+02  0.000000000E+00  0.00000E+00  9.000E+00
      21    -1     0     0   501   502  0.000000000E+00  0.000000000E+00 -2.194203260E+02  2.194203260E+02  0.000000000E+00  0.00000E+00  9.000E+00
      25     1     1     2     0     0 -8.859925508E+01  1.780333811E+02  1.417757932E+02  2.743557696E+02  1.250000000E+02  0.00000E+00  9.000E+00
      25     1     1     2     0     0  9.752537186E+01 -1.603183637E+02 -6.946624254E+01  2.359316315E+02  1.250000000E+02  0.00000E+00  9.000E+00
      21     1     1     2   512   502 -8.926116777E+00 -1.771501741E+01  2.276033347E+02  2.284661361E+02  2.697398305E-06  0.00000E+00  9.000E+00
#rwgt            1           1   4.4504786991317068E-002          10      333459           0
</event>
<event>
      5   9999  3.79277E-02  6.59832E+01 -1.00000E+00  1.32534E-01
      21    -1     0     0   502   501  0.000000000E+00  0.000000000E+00  2.646423405E+02  2.646423405E+02  0.000000000E+00  0.00000E+00  9.000E+00
      21    -1     0     0   511   502  0.000000000E+00  0.000000000E+00 -5.570445066E+02  5.570445066E+02  0.000000000E+00  0.00000E+00  9.000E+00
      25     1     1     2     0     0 -3.866331061E+01  7.879376428E+01  1.907222437E+02  2.443425528E+02  1.250000000E+02  0.00000E+00  9.000E+00
      25     1     1     2     0     0 -2.607954015E+01 -9.152718056E+01 -9.488171627E+01  1.835344853E+02  1.250000000E+02  0.00000E+00  9.000E+00
      21     1     1     2   511   501  6.474285077E+01  1.273341628E+01 -3.882426935E+02  3.938098090E+02  7.629394531E-06  0.00000E+00  9.000E+00
#rwgt            1           1   2.8187532932091041E-002          10      333639           0
</event>
<event>
      5   9999  3.79277E-02  1.72810E+02 -1.00000E+00  1.14008E-01
      21    -1     0     0   502   501  0.000000000E+00  0.000000000E+00  1.079659958E+03  1.079659958E+03  0.000000000E+00  0.00000E+00  9.000E+00
      21    -1     0     0   512   502  0.000000000E+00  0.000000000E+00 -1.228700150E+02  1.228700150E+02  0.000000000E+00  0.00000E+00  9.000E+00
      25     1     1     2     0     0 -2.770474843E+02 -5.010957457E+00  4.169028748E+02  5.159587438E+02  1.250000000E+02  0.00000E+00  9.000E+00
      25     1     1     2     0     0  1.387439486E+02  1.086232357E+02  4.315581616E+02  4.826140668E+02  1.250000000E+02  0.00000E+00  9.000E+00
      21     1     1     2   512   501  1.383035357E+02 -1.036122782E+02  1.083289068E+02  2.039571627E+02  3.303624740E-06  0.00000E+00  9.000E+00
#rwgt            1           1   2.3386305399109547E-002          10      333736           0
</event>
<event>
      5   9999  3.79277E-02  5.26659E+01 -1.00000E+00  1.37800E-01
      21    -1     0     0   502   501  0.000000000E+00  0.000000000E+00  5.606787649E+02  5.606787649E+02  0.000000000E+00  0.00000E+00  9.000E+00
      21    -1     0     0   511   502  0.000000000E+00  0.000000000E+00 -8.318401625E+01  8.318401625E+01  0.000000000E+00  0.00000E+00  9.000E+00
      25     1     1     2     0     0  1.883940078E+01 -8.992158190E+01  3.260579509E+02  3.610811560E+02  1.250000000E+02  0.00000E+00  9.000E+00
      25     1     1     2     0     0  2.870693348E+00  1.379045564E+02  1.176937347E+02  2.202333371E+02  1.250000000E+02  0.00000E+00  9.000E+00
      21     1     1     2   511   501 -2.171009413E+01 -4.798297453E+01  3.374306300E+01  6.254828800E+01  1.261592536E-06  0.00000E+00  9.000E+00
#rwgt            1           1   4.0299481064464293E-002          10      333820           0
</event>
<event>
      5   9999  3.79277E-02  2.38605E+01 -1.00000E+00  1.60284E-01
      21    -1     0     0   502   501  0.000000000E+00  0.000000000E+00  6.943957853E+02  6.943957853E+02  0.000000000E+00  0.00000E+00  9.000E+00
      21    -1     0     0   512   502  0.000000000E+00  0.000000000E+00 -1.139969988E+02  1.139969988E+02  0.000000000E+00  0.00000E+00  9.000E+00
      25     1     1     2     0     0 -2.197965504E+02 -1.223912152E+01  1.290553297E+02  2.841489007E+02  1.250000000E+02  0.00000E+00  9.000E+00
      25     1     1     2     0     0  1.976431212E+02  3.376363346E+00  4.389198767E+02  4.973428007E+02  1.250000000E+02  0.00000E+00  9.000E+00
      21     1     1     2   512   501  2.215342914E+01  8.862758176E+00  1.242358007E+01  2.690108263E+01  3.371747881E-07  0.00000E+00  9.000E+00
#rwgt            2          11   9.5250020109195217E-003          10      333933           0
</event>
<event>
      5   9999  3.79277E-02  1.50040E+01 -1.00000E+00  1.77373E-01
      21    -1     0     0   502   501  0.000000000E+00  0.000000000E+00  1.553868709E+02  1.553868709E+02  0.000000000E+00  0.00000E+00  9.000E+00
       2    -1     0     0   501     0  0.000000000E+00  0.000000000E+00 -3.098082572E+03  3.098082572E+03  0.000000000E+00  0.00000E+00  9.000E+00
      25     1     1     2     0     0 -1.752482440E+02  1.212825667E+02 -4.346121863E+00  2.471139348E+02  1.250000000E+02  0.00000E+00  9.000E+00
      25     1     1     2     0     0  1.631419824E+02 -1.301459574E+02 -4.013997201E+02  4.693612808E+02  1.250000000E+02  0.00000E+00  9.000E+00
       2     1     1     2   502     0  1.210626157E+01  8.863390760E+00 -2.536949859E+03  2.536994227E+03  3.051757812E-05  0.00000E+00  9.000E+00
#rwgt            1           1   4.9744794941675802E-002          10      333953           0
</event>
<event>
      5   9999  3.79277E-02  1.85184E+02 -1.00000E+00  1.12879E-01
      21    -1     0     0   511   501  0.000000000E+00  0.000000000E+00  2.211314958E+02  2.211314958E+02  0.000000000E+00  0.00000E+00  9.000E+00
      21    -1     0     0   501   502  0.000000000E+00  0.000000000E+00 -8.977456983E+02  8.977456983E+02  0.000000000E+00  0.00000E+00  9.000E+00
      25     1     1     2     0     0  1.339618750E+02 -3.306735635E+02 -8.587904665E+01  3.876738322E+02  1.250000000E+02  0.00000E+00  9.000E+00
      25     1     1     2     0     0 -6.806184812E+01  1.576121426E+02 -4.533409489E+02  5.006166384E+02  1.250000000E+02  0.00000E+00  9.000E+00
      21     1     1     2   511   502 -6.590002690E+01  1.730614209E+02 -1.373942070E+02  2.305867235E+02  2.697398305E-06  0.00000E+00  9.000E+00
#rwgt            1           1   2.7891414330445129E-002          10      334161           0
</event>
<event>
      5   9999  3.79277E-02  1.42828E+01 -1.00000E+00  1.79412E-01
      21    -1     0     0   502   512  0.000000000E+00  0.000000000E+00  1.435720423E+02  1.435720423E+02  0.000000000E+00  0.00000E+00  9.000E+00
      21    -1     0     0   501   502  0.000000000E+00  0.000000000E+00 -2.439353595E+02  2.439353595E+02  0.000000000E+00  0.00000E+00  9.000E+00
      25     1     1     2     0     0 -3.433789665E+01  1.007873584E+02 -1.346544183E+02  2.123534675E+02  1.250000000E+02  0.00000E+00  9.000E+00
      25     1     1     2     0     0  3.896385110E+01 -8.727448396E+01  2.954188573E+01  1.601022806E+02  1.250000000E+02  0.00000E+00  9.000E+00
      21     1     1     2   501   512 -4.625954443E+00 -1.351287449E+01  4.749215456E+00  1.505165369E+01  2.528810911E-07  0.00000E+00  9.000E+00
#rwgt            1           1   4.3619881115166473E-002          10      334284           0
</event>
<event>
      5   9999  3.79277E-02  4.86310E+01 -1.00000E+00  1.39767E-01
      21    -1     0     0   502   501  0.000000000E+00  0.000000000E+00  1.038146573E+03  1.038146573E+03  0.000000000E+00  0.00000E+00  9.000E+00
      21    -1     0     0   501   511  0.000000000E+00  0.000000000E+00 -1.902807410E+02  1.902807410E+02  0.000000000E+00  0.00000E+00  9.000E+00
      25     1     1     2     0     0 -1.618973078E+02  1.584241258E+02  3.473816811E+02  4.331373619E+02  1.250000000E+02  0.00000E+00  9.000E+00
      25     1     1     2     0     0  1.912824979E+02 -1.196751460E+02  6.171537085E+02  6.688907493E+02  1.250000000E+02  0.00000E+00  9.000E+00
      21     1     1     2   502   511 -2.938519014E+01 -3.874897976E+01 -1.166695576E+02  1.263992029E+02  3.303624740E-06  0.00000E+00  9.000E+00
#rwgt            1           1   3.1359910236549632E-002          10      334454           0
</event>
<event>
      5   9999  3.79277E-02  2.94477E+01 -1.00000E+00  1.53602E-01
      21    -1     0     0   502   501  0.000000000E+00  0.000000000E+00  1.832644716E+03  1.832644716E+03  0.000000000E+00  0.00000E+00  9.000E+00
      21    -1     0     0   501   512  0.000000000E+00  0.000000000E+00 -5.250745216E+01  5.250745216E+01  0.000000000E+00  0.00000E+00  9.000E+00
      25     1     1     2     0     0  1.530055501E+02 -3.465159152E+01  2.976071571E+02  3.588961565E+02  1.250000000E+02  0.00000E+00  9.000E+00
      25     1     1     2     0     0 -1.824263601E+02  3.339430523E+01  1.479885431E+03  1.496689830E+03  1.250000000E+02  0.00000E+00  9.000E+00
      21     1     1     2   502   512  2.942081006E+01  1.257286294E+00  2.644675815E+00  2.956618243E+01  6.697238998E-07  0.00000E+00  9.000E+00
#rwgt            1           1   3.5630295823450099E-002          10      334527           0
</event>
<event>
      5   9999  3.79277E-02  8.74974E+01 -1.00000E+00  1.26494E-01
      21    -1     0     0   502   501  0.000000000E+00  0.000000000E+00  3.299766678E+02  3.299766678E+02  0.000000000E+00  0.00000E+00  9.000E+00
      21    -1     0     0   511   502  0.000000000E+00  0.000000000E+00 -2.391149800E+02  2.391149800E+02  0.000000000E+00  0.00000E+00  9.000E+00
      25     1     1     2     0     0 -5.881410210E+00  1.588043248E+02  9.523259576E+01  2.234897131E+02  1.250000000E+02  0.00000E+00  9.000E+00
      25     1     1     2     0     0 -7.463021496E+01 -1.930631383E+02  4.377617640E+01  2.457323707E+02  1.250000000E+02  0.00000E+00  9.000E+00
      21     1     1     2   511   501  8.051162517E+01  3.425881357E+01 -4.814708435E+01  9.986956407E+01  1.784161275E-06  0.00000E+00  9.000E+00
#rwgt            1           1   2.9823631013967036E-002          10      334642           0
</event>
<event>
      5   9999  3.79277E-02  6.17497E+01 -1.00000E+00  1.34040E-01
      21    -1     0     0   502   501  0.000000000E+00  0.000000000E+00  3.369585330E+02  3.369585330E+02  0.000000000E+00  0.00000E+00  9.000E+00
      21    -1     0     0   512   502  0.000000000E+00  0.000000000E+00 -1.731863813E+02  1.731863813E+02  0.000000000E+00  0.00000E+00  9.000E+00
      25     1     1     2     0     0  7.477059907E+01 -1.408699362E+02  5.759020735E+01  2.106575738E+02  1.250000000E+02  0.00000E+00  9.000E+00
      25     1     1     2     0     0 -2.527075926E+01  1.039540123E+02  1.508964005E+02  2.232482287E+02  1.250000000E+02  0.00000E+00  9.000E+00
      21     1     1     2   512   501 -4.949983981E+01  3.691592391E+01 -4.471445609E+01  7.623911177E+01  9.536743164E-07  0.00000E+00  9.000E+00
#rwgt            1           1   5.3047676163552784E-002          10      334739           0
</event>
<event>
      5   9999  3.79277E-02  1.05680E+01 -1.00000E+00  1.93024E-01
      21    -1     0     0   502   501  0.000000000E+00  0.000000000E+00  6.140260010E+01  6.140260010E+01  0.000000000E+00  0.00000E+00  9.000E+00
      21    -1     0     0   511   502  0.000000000E+00  0.000000000E+00 -6.424625173E+02  6.424625173E+02  0.000000000E+00  0.00000E+00  9.000E+00
      25     1     1     2     0     0  6.734296778E+01  1.187087251E+02 -1.678932943E+02  2.498799612E+02  1.250000000E+02  0.00000E+00  9.000E+00
      25     1     1     2     0     0 -6.049972293E+01 -1.106555577E+02 -3.893300399E+02  4.279109123E+02  1.250000000E+02  0.00000E+00  9.000E+00
      21     1     1     2   511   501 -6.843244855E+00 -8.053167408E+00 -2.383658305E+01  2.607424394E+01  0.000000000E+00  0.00000E+00  9.000E+00
#rwgt            1           1   1.9076579442177700E-002          10      334885           0
</event>
<event>
      5   9999  3.79277E-02  1.37883E+02 -1.00000E+00  1.17862E-01
      21    -1     0     0   502   501  0.000000000E+00  0.000000000E+00  7.955108451E+02  7.955108451E+02  0.000000000E+00  0.00000E+00  9.000E+00
      21    -1     0     0   512   502  0.000000000E+00  0.000000000E+00 -1.889927602E+02  1.889927602E+02  0.000000000E+00  0.00000E+00  9.000E+00
      25     1     1     2     0     0  1.078194957E+02  1.500136999E+02 -3.845909917E+01  2.263476444E+02  1.250000000E+02  0.00000E+00  9.000E+00
      25     1     1     2     0     0 -1.515859305E+02 -1.926075178E+01  5.655837097E+02  5.990485819E+02  1.250000000E+02  0.00000E+00  9.000E+00
      21     1     1     2   512   501  4.376643483E+01 -1.307529481E+02  7.939347441E+01  1.591073790E+02  2.336015456E-06  0.00000E+00  9.000E+00
#rwgt            1           1   4.0986921232010018E-002          10      335186           0
</event>
<event>
      5   9999  3.79277E-02  3.00958E+01 -1.00000E+00  1.52944E-01
      21    -1     0     0   502   501  0.000000000E+00  0.000000000E+00  2.192493424E+02  2.192493424E+02  0.000000000E+00  0.00000E+00  9.000E+00
      21    -1     0     0   501   511  0.000000000E+00  0.000000000E+00 -3.146264112E+02  3.146264112E+02  0.000000000E+00  0.00000E+00  9.000E+00
      25     1     1     2     0     0  1.182421991E+02 -6.006245840E+01  1.188184904E+02  2.175581537E+02  1.250000000E+02  0.00000E+00  9.000E+00
      25     1     1     2     0     0 -8.849657522E+01  5.548477379E+01 -8.514976925E+01  1.838088332E+02  1.250000000E+02  0.00000E+00  9.000E+00
      21     1     1     2   502   511 -2.974562387E+01  4.577684610E+00 -1.290457900E+02  1.325087667E+02  2.697398305E-06  0.00000E+00  9.000E+00
#rwgt            1           1   4.5221387423514690E-002          10      335342           0
</event>
<event>
      5   9999  3.79277E-02  8.56558E+00 -1.00000E+00  2.03866E-01
      21    -1     0     0   502   501  0.000000000E+00  0.000000000E+00  5.311398235E+01  5.311398235E+01  0.000000000E+00  0.00000E+00  9.000E+00
       2    -1     0     0   501     0  0.000000000E+00  0.000000000E+00 -3.358597100E+03  3.358597100E+03  0.000000000E+00  0.00000E+00  9.000E+00
      25     1     1     2     0     0 -9.509241027E+01  8.543944646E+01 -7.257973812E+02  7.474953538E+02  1.250000000E+02  0.00000E+00  9.000E+00
      25     1     1     2     0     0  9.026567537E+01 -7.836330780E+01 -1.347152588E+02  2.192302468E+02  1.250000000E+02  0.00000E+00  9.000E+00
       2     1     1     2   502     0  4.826734902E+00 -7.076138662E+00 -2.444970477E+03  2.444985481E+03  4.315837288E-05  0.00000E+00  9.000E+00
#rwgt            1           1   4.3544628514123912E-002          10      335470           0
</event>
<event>
      5   9999  3.79277E-02  1.52600E+01 -1.00000E+00  1.76683E-01
      21    -1     0     0   502   511  0.000000000E+00  0.000000000E+00  4.206614284E+01  4.206614284E+01  0.000000000E+00  0.00000E+00  9.000E+00
      21    -1     0     0   501   502  0.000000000E+00  0.000000000E+00 -1.584817356E+03  1.584817356E+03  0.000000000E+00  0.00000E+00  9.000E+00
      25     1     1     2     0     0  1.522019887E+02 -1.301750688E+02 -9.297674464E+02  9.592723796E+02  1.250000000E+02  0.00000E+00  9.000E+00
      25     1     1     2     0     0 -1.626195074E+02  1.413259593E+02 -5.721060635E+02  6.239779474E+02  1.250000000E+02  0.00000E+00  9.000E+00
      21     1     1     2   501   511  1.041751875E+01 -1.115089047E+01 -4.087770302E+01  4.363317155E+01  4.768371582E-07  0.00000E+00  9.000E+00
#rwgt            1           1   4.5237272883897145E-002          10      335854           0
</event>
<event>
      5   9999  3.79277E-02  1.72457E+01 -1.00000E+00  1.71859E-01
      21    -1     0     0   502   512  0.000000000E+00  0.000000000E+00  1.081628499E+02  1.081628499E+02  0.000000000E+00  0.00000E+00  9.000E+00
      21    -1     0     0   501   502  0.000000000E+00  0.000000000E+00 -2.520876444E+02  2.520876444E+02  0.000000000E+00  0.00000E+00  9.000E+00
      25     1     1     2     0     0  8.176406858E+01  1.659237914E+01 -9.236682853E+01  1.764009665E+02  1.250000000E+02  0.00000E+00  9.000E+00
      25     1     1     2     0     0 -8.975728290E+01 -3.187387416E+01 -5.453811731E+01  1.663481888E+02  1.250000000E+02  0.00000E+00  9.000E+00
      21     1     1     2   501   512  7.993214326E+00  1.528149501E+01  2.980151281E+00  1.750133900E+01  3.526258339E-07  0.00000E+00  9.000E+00
#rwgt            1           1   3.0663782211775813E-002          10      336222           0
</event>
<event>
      5   9999 -3.79277E-02  2.36128E+01 -1.00000E+00  1.60631E-01
      21    -1     0     0   502   501  0.000000000E+00  0.000000000E+00  1.636661784E+03  1.636661784E+03  0.000000000E+00  0.00000E+00  9.000E+00
      21    -1     0     0   501   511  0.000000000E+00  0.000000000E+00 -6.052650046E+01  6.052650046E+01  0.000000000E+00  0.00000E+00  9.000E+00
      25     1     1     2     0     0  3.271689148E+01  2.671783385E+02  6.561003584E+02  7.201023121E+02  1.250000000E+02  0.00000E+00  9.000E+00
      25     1     1     2     0     0 -5.600046286E+01 -2.632491962E+02  8.938721091E+02  9.418431603E+02  1.250000000E+02  0.00000E+00  9.000E+00
      21     1     1     2   502   511  2.328357138E+01 -3.929142357E+00  2.616281565E+01  3.524281173E+01  4.768371582E-07  0.00000E+00  9.000E+00
#rwgt            1           1  -1.6260710897856401E-002          10      336480           0
</event>
<event>
      5   9999  3.79277E-02  3.16428E+01 -1.00000E+00  1.51449E-01
      21    -1     0     0   502   501  0.000000000E+00  0.000000000E+00  1.393523251E+02  1.393523251E+02  0.000000000E+00  0.00000E+00  9.000E+00
      21    -1     0     0   512   502  0.000000000E+00  0.000000000E+00 -1.051327256E+03  1.051327256E+03  0.000000000E+00  0.00000E+00  9.000E+00
      25     1     1     2     0     0  9.957081431E+01  1.239188335E+02  2.557355875E+01  2.038362854E+02  1.250000000E+02  0.00000E+00  9.000E+00
      25     1     1     2     0     0 -7.395772665E+01 -1.424992944E+02 -4.038911597E+02  4.522486740E+02  1.250000000E+02  0.00000E+00  9.000E+00
      21     1     1     2   512   501 -2.561308766E+01  1.858046097E+01 -5.336573296E+02  5.345946214E+02  7.629394531E-06  0.00000E+00  9.000E+00
#rwgt            1           1   3.9604360237914270E-002          10      336808           0
</event>
<event>
      5   9999 -3.79277E-02  7.64142E+01 -1.00000E+00  1.29321E-01
      21    -1     0     0   502   501  0.000000000E+00  0.000000000E+00  3.442460016E+02  3.442460016E+02  0.000000000E+00  0.00000E+00  9.000E+00
      21    -1     0     0   501   511  0.000000000E+00  0.000000000E+00 -2.070546172E+02  2.070546172E+02  0.000000000E+00  0.00000E+00  9.000E+00
      25     1     1     2     0     0  1.472279585E+02 -5.150062490E+00  9.783191724E+01  2.165610282E+02  1.250000000E+02  0.00000E+00  9.000E+00
      25     1     1     2     0     0 -2.229360659E+02 -5.213956018E+00  3.685223837E+01  2.582842664E+02  1.250000000E+02  0.00000E+00  9.000E+00
      21     1     1     2   502   511  7.570810733E+01  1.036401851E+01  2.507228863E+00  7.645532415E+01  5.057621821E-07  0.00000E+00  9.000E+00
#rwgt            1           1  -7.0156836261284578E-002          10      337033           0
</event>
<event>
      5   9999  3.79277E-02  1.85883E+02 -1.00000E+00  1.12818E-01
      21    -1     0     0   502   501  0.000000000E+00  0.000000000E+00  4.920949212E+02  4.920949212E+02  0.000000000E+00  0.00000E+00  9.000E+00
      21    -1     0     0   501   512  0.000000000E+00  0.000000000E+00 -2.450595596E+02  2.450595596E+02  0.000000000E+00  0.00000E+00  9.000E+00
      25     1     1     2     0     0  4.304672467E+01 -4.006887983E+01  2.706237324E+02  3.038432822E+02  1.250000000E+02  0.00000E+00  9.000E+00
      25     1     1     2     0     0  4.899059724E+01  2.015665158E+02 -4.455287385E+01  2.462500710E+02  1.250000000E+02  0.00000E+00  9.000E+00
      21     1     1     2   502   512 -9.203732191E+01 -1.614976360E+02  2.096450307E+01  1.870611275E+02  2.500555153E-06  0.00000E+00  9.000E+00
#rwgt            2          11   2.1060902430536754E-003          10      337113           0
</event>
<event>
      5   9999  3.79277E-02  7.44343E+01 -1.00000E+00  1.29884E-01
      21    -1     0     0   502   501  0.000000000E+00  0.000000000E+00  5.004522034E+01  5.004522034E+01  0.000000000E+00  0.00000E+00  9.000E+00
       2    -1     0     0   501     0  0.000000000E+00  0.000000000E+00 -2.124058460E+03  2.124058460E+03  0.000000000E+00  0.00000E+00  9.000E+00
      25     1     1     2     0     0 -5.026617333E+01 -1.897805494E+02 -5.647738539E+02  6.108501053E+02  1.250000000E+02  0.00000E+00  9.000E+00
      25     1     1     2     0     0  9.346207856E+01  1.291622045E+02 -3.720620374E+02  4.236427680E+02  1.250000000E+02  0.00000E+00  9.000E+00
       2     1     1     2   502     0 -4.319590523E+01  6.061834489E+01 -1.137177349E+03  1.139610807E+03  0.000000000E+00  0.00000E+00  9.000E+00
#rwgt            1           1   3.4168943825706212E-002          10      337133           0
</event>
<event>
      5   9999  3.79277E-02  1.16599E+02 -1.00000E+00  1.20901E-01
      21    -1     0     0   511   501  0.000000000E+00  0.000000000E+00  6.048277573E+02  6.048277573E+02  0.000000000E+00  0.00000E+00  9.000E+00
      21    -1     0     0   501   502  0.000000000E+00  0.000000000E+00 -5.440064713E+02  5.440064713E+02  0.000000000E+00  0.00000E+00  9.000E+00
      25     1     1     2     0     0  1.466399396E+02 -2.551577157E+01 -3.140195579E+02  3.693069309E+02  1.250000000E+02  0.00000E+00  9.000E+00
      25     1     1     2     0     0 -4.405981555E+01  8.094623646E+01 -1.653791958E+02  2.268674479E+02  1.250000000E+02  0.00000E+00  9.000E+00
      21     1     1     2   511   502 -1.025801240E+02 -5.543046488E+01  5.402200397E+02  5.526598498E+02  7.629394531E-06  0.00000E+00  9.000E+00
#rwgt            1           1   3.9887504991324721E-002          10      337207           0
</event>
<event>
      5   9999  3.79277E-02  5.88513E+01 -1.00000E+00  1.35154E-01
      21    -1     0     0   502   501  0.000000000E+00  0.000000000E+00  1.587736970E+02  1.587736970E+02  0.000000000E+00  0.00000E+00  9.000E+00
       1    -1     0     0   501     0  0.000000000E+00  0.000000000E+00 -6.535162164E+02  6.535162164E+02  0.000000000E+00  0.00000E+00  9.000E+00
      25     1     1     2     0     0 -5.099731656E+01  5.928473292E+01  3.402689162E+01  1.513216284E+02  1.250000000E+02  0.00000E+00  9.000E+00
      25     1     1     2     0     0  3.663545279E+01 -1.163567023E+02 -5.436158503E+01  1.829240839E+02  1.250000000E+02  0.00000E+00  9.000E+00
       1     1     1     2   502     0  1.436186376E+01  5.707196933E+01 -4.744078260E+02  4.780442011E+02  5.394796609E-06  0.00000E+00  9.000E+00
#rwgt            1           1   2.1857356051820761E-002          10      337289           0
</event>
<event>
      5   9999  3.79277E-02  7.05033E+00 -1.00000E+00  2.15115E-01
      21    -1     0     0   502   501  0.000000000E+00  0.000000000E+00  3.174408860E+01  3.174408860E+01  0.000000000E+00  0.00000E+00  9.000E+00
      21    -1     0     0   501   511  0.000000000E+00  0.000000000E+00 -1.059419476E+03  1.059419476E+03  0.000000000E+00  0.00000E+00  9.000E+00
      25     1     1     2     0     0  9.957495639E+01 -7.326997302E+01 -4.151562233E+02  4.508473696E+02  1.250000000E+02  0.00000E+00  9.000E+00
      25     1     1     2     0     0 -9.490460346E+01  7.855154073E+01 -5.481281585E+02  5.755403604E+02  1.250000000E+02  0.00000E+00  9.000E+00
      21     1     1     2   502   511 -4.670352931E+00 -5.281567704E+00 -6.439100533E+01  6.477583439E+01  0.000000000E+00  0.00000E+00  9.000E+00
#rwgt            1           1   4.0744596731651352E-002          10      337367           0
</event>
<event>
      5   9999 -3.79277E-02  5.37521E+01 -1.00000E+00  1.37306E-01
      21    -1     0     0   502   501  0.000000000E+00  0.000000000E+00  4.403023938E+02  4.403023938E+02  0.000000000E+00  0.00000E+00  9.000E+00
      21    -1     0     0   501   512  0.000000000E+00  0.000000000E+00 -1.752408549E+02  1.752408549E+02  0.000000000E+00  0.00000E+00  9.000E+00
      25     1     1     2     0     0 -5.217287590E+01  1.493631014E+02  4.623249807E+01  2.068665969E+02  1.250000000E+02  0.00000E+00  9.000E+00
      25     1     1     2     0     0 -2.013719641E-01 -1.372707782E+02  2.744367702E+02  3.313364573E+02  1.250000000E+02  0.00000E+00  9.000E+00
      21     1     1     2   502   512  5.237424787E+01 -1.209232326E+01 -5.560772939E+01  7.734019453E+01  1.348699152E-06  0.00000E+00  9.000E+00
#rwgt            1           1  -2.9449042356859963E-002          10      337649           0
</event>
<event>
      5   9999  3.79277E-02  1.28635E+02 -1.00000E+00  1.19101E-01
      21    -1     0     0   502   501  0.000000000E+00  0.000000000E+00  9.461285494E+01  9.461285494E+01  0.000000000E+00  0.00000E+00  9.000E+00
      21    -1     0     0   501   511  0.000000000E+00  0.000000000E+00 -1.238907392E+03  1.238907392E+03  0.000000000E+00  0.00000E+00  9.000E+00
      25     1     1     2     0     0 -5.288693136E+01 -7.768940524E+01 -5.155191076E+02  5.387184993E+02  1.250000000E+02  0.00000E+00  9.000E+00
      25     1     1     2     0     0  1.686449429E+02  1.337881033E+02 -1.322385282E+02  2.818730241E+02  1.250000000E+02  0.00000E+00  9.000E+00
      21     1     1     2   502   511 -1.157580115E+02 -5.609869809E+01 -4.965369009E+02  5.129287232E+02  0.000000000E+00  0.00000E+00  9.000E+00
#rwgt            1           1   1.3558093874801959E-002          10      337763           0
</event>
<event>
      5   9999  3.79277E-02  3.77398E+01 -1.00000E+00  1.46424E-01
      21    -1     0     0   502   501  0.000000000E+00  0.000000000E+00  2.886028000E+02  2.886028000E+02  0.000000000E+00  0.00000E+00  9.000E+00
      21    -1     0     0   501   512  0.000000000E+00  0.000000000E+00 -3.595943612E+02  3.595943612E+02  0.000000000E+00  0.00000E+00  9.000E+00
      25     1     1     2     0     0  3.855297387E+01  1.893095495E+02 -4.139312444E+01  2.338008299E+02  1.250000000E+02  0.00000E+00  9.000E+00
      25     1     1     2     0     0 -2.464393129E+01 -1.542263199E+02  1.377241664E+02  2.428703916E+02  1.250000000E+02  0.00000E+00  9.000E+00
      21     1     1     2   502   512 -1.390904258E+01 -3.508322962E+01 -1.673226032E+02  1.715259398E+02  1.907348633E-06  0.00000E+00  9.000E+00
#rwgt            1           1   3.7289882591177499E-002          10      337915           0
</event>
<event>
      5   9999  3.79277E-02  1.22536E+02 -1.00000E+00  1.19984E-01
      21    -1     0     0   502   501  0.000000000E+00  0.000000000E+00  2.108165159E+02  2.108165159E+02  0.000000000E+00  0.00000E+00  9.000E+00
      21    -1     0     0   511   502  0.000000000E+00  0.000000000E+00 -1.171137340E+03  1.171137340E+03  0.000000000E+00  0.00000E+00  9.000E+00
      25     1     1     2     0     0 -2.081198162E+02  6.663029151E+01 -1.354098501E+02  2.858570992E+02  1.250000000E+02  0.00000E+00  9.000E+00
      25     1     1     2     0     0  1.287582423E+02 -1.599943826E+02  2.101960758E+01  2.413373393E+02  1.250000000E+02  0.00000E+00  9.000E+00
      21     1     1     2   511   501  7.936157396E+01  9.336409111E+01 -8.459305815E+02  8.547594174E+02  1.525878906E-05  0.00000E+00  9.000E+00
#rwgt            1           1   3.6909791285630288E-002          10      338152           0
</event>
<event>
      5   9999  3.79277E-02  4.88982E+01 -1.00000E+00  1.39630E-01
      21    -1     0     0   512   501  0.000000000E+00  0.000000000E+00  3.877365986E+02  3.877365986E+02  0.000000000E+00  0.00000E+00  9.000E+00
      21    -1     0     0   501   502  0.000000000E+00  0.000000000E+00 -3.042806050E+02  3.042806050E+02  0.000000000E+00  0.00000E+00  9.000E+00
      25     1     1     2     0     0 -2.174368580E+02  7.545502157E+00 -1.427621479E+02  2.886897170E+02  1.250000000E+02  0.00000E+00  9.000E+00
      25     1     1     2     0     0  2.057996352E+02  3.994775047E+01  9.261823608E+01  2.610602426E+02  1.250000000E+02  0.00000E+00  9.000E+00
      21     1     1     2   512   502  1.163722275E+01 -4.749325263E+01  1.335999054E+02  1.422672440E+02  1.907348633E-06  0.00000E+00  9.000E+00
#rwgt            1           1   4.7982541921013394E-002          10      338205           0
</event>
<event>
      5   9999  3.79277E-02  5.96620E+01 -1.00000E+00  1.34835E-01
      21    -1     0     0   502   511  0.000000000E+00  0.000000000E+00  1.120124937E+02  1.120124937E+02  0.000000000E+00  0.00000E+00  9.000E+00
      21    -1     0     0   501   502  0.000000000E+00  0.000000000E+00 -4.416088693E+02  4.416088693E+02  0.000000000E+00  0.00000E+00  9.000E+00
      25     1     1     2     0     0  7.454937872E+01 -1.311858297E+02 -1.660941659E+02  2.568649524E+02  1.250000000E+02  0.00000E+00  9.000E+00
      25     1     1     2     0     0 -1.488858188E+01  1.308146668E+02 -1.502105207E+02  2.356318048E+02  1.250000000E+02  0.00000E+00  9.000E+00
      21     1     1     2   501   511 -5.966079684E+01  3.711629601E-01 -1.329168900E+01  6.112460583E+01  1.079486029E-06  0.00000E+00  9.000E+00
#rwgt            1           1   4.0123192450444156E-002          10      338301           0
</event>
<event>
      5   9999  3.79277E-02  3.07331E+01 -1.00000E+00  1.52315E-01
      21    -1     0     0   512   501  0.000000000E+00  0.000000000E+00  3.965278728E+02  3.965278728E+02  0.000000000E+00  0.00000E+00  9.000E+00
      21    -1     0     0   501   502  0.000000000E+00  0.000000000E+00 -3.731841672E+02  3.731841672E+02  0.000000000E+00  0.00000E+00  9.000E+00
      25     1     1     2     0     0 -7.243799372E+01  8.363123886E+00 -2.875151817E+02  3.218806992E+02  1.250000000E+02  0.00000E+00  9.000E+00
      25     1     1     2     0     0  9.821421492E+01  8.373401410E+00  2.597472755E+01  1.612942415E+02  1.250000000E+02  0.00000E+00  9.000E+00
      21     1     1     2   512   502 -2.577622120E+01 -1.673652530E+01  2.848841597E+02  2.865370993E+02  5.394796609E-06  0.00000E+00  9.000E+00
#rwgt            1           1   4.5837034147964965E-002          10      338422           0
</event>
<event>
      5   9999  3.79277E-02  2.85433E+01 -1.00000E+00  1.54557E-01
      21    -1     0     0   502   501  0.000000000E+00  0.000000000E+00  1.080165738E+03  1.080165738E+03  0.000000000E+00  0.00000E+00  9.000E+00
      21    -1     0     0   501   511  0.000000000E+00  0.000000000E+00 -1.043660530E+02  1.043660530E+02  0.000000000E+00  0.00000E+00  9.000E+00
      25     1     1     2     0     0  1.794224841E+01  1.959289882E+02  8.920111614E+01  2.495835167E+02  1.250000000E+02  0.00000E+00  9.000E+00
      25     1     1     2     0     0 -1.094137947E+01 -2.236004125E+02  8.538008163E+02  8.914694006E+02  1.250000000E+02  0.00000E+00  9.000E+00
      21     1     1     2   502   511 -7.000868936E+00  2.767142434E+01  3.279775254E+01  4.347887375E+01  4.768371582E-07  0.00000E+00  9.000E+00
#rwgt            1           1   3.9972539313876780E-002          10      338558           0
</event>
<event>
      5   9999  3.79277E-02  9.92593E+01 -1.00000E+00  1.23973E-01
      21    -1     0     0   502   512  0.000000000E+00  0.000000000E+00  2.226562580E+02  2.226562580E+02  0.000000000E+00  0.00000E+00  9.000E+00
      21    -1     0     0   501   502  0.000000000E+00  0.000000000E+00 -3.465101535E+02  3.465101535E+02  0.000000000E+00  0.00000E+00  9.000E+00
      25     1     1     2     0     0 -7.866113997E+00 -1.717529509E+02  2.723020392E+01  2.143068732E+02  1.250000000E+02  0.00000E+00  9.000E+00
      25     1     1     2     0     0  1.023461978E+02  1.413240850E+02 -1.369158846E+02  2.545941882E+02  1.250000000E+02  0.00000E+00  9.000E+00
      21     1     1     2   501   512 -9.448008381E+01  3.042886590E+01 -1.416821483E+01  1.002653501E+02  1.092571186E-06  0.00000E+00  9.000E+00
#rwgt            1           1   7.7203505800903897E-003          10      338720           0
</event>
<event>
      5   9999 -3.79277E-02  6.46257E+01 -1.00000E+00  1.33002E-01
       2    -1     0     0   502     0  0.000000000E+00  0.000000000E+00  2.603534543E+02  2.603534543E+02  0.000000000E+00  0.00000E+00  9.000E+00
      21    -1     0     0   501   502  0.000000000E+00  0.000000000E+00 -4.090912771E+02  4.090912771E+02  0.000000000E+00  0.00000E+00  9.000E+00
      25     1     1     2     0     0 -1.568164533E+02 -1.550635699E+02 -6.316907315E+01  2.612497704E+02  1.250000000E+02  0.00000E+00  9.000E+00
      25     1     1     2     0     0  1.466826792E+02  9.123732475E+01 -1.898605548E+02  2.855032190E+02  1.250000000E+02  0.00000E+00  9.000E+00
       2     1     1     2   501     0  1.013377406E+01  6.382624514E+01  1.042918051E+02  1.226917420E+02  2.336015456E-06  0.00000E+00  9.000E+00
#rwgt            1           1 -0.29057165188334755               10      338784           0
</event>
<event>
      5   9999  3.79277E-02  1.49522E+01 -1.00000E+00  1.77514E-01
      21    -1     0     0   502   501  0.000000000E+00  0.000000000E+00  4.620865459E+01  4.620865459E+01  0.000000000E+00  0.00000E+00  9.000E+00
      21    -1     0     0   511   502  0.000000000E+00  0.000000000E+00 -5.878130905E+02  5.878130905E+02  0.000000000E+00  0.00000E+00  9.000E+00
      25     1     1     2     0     0  7.823609715E+01 -4.206953419E+01 -2.393421825E+02  2.842541344E+02  1.250000000E+02  0.00000E+00  9.000E+00
      25     1     1     2     0     0 -9.280932295E+01  3.872458705E+01 -2.674094134E+02  3.118428425E+02  1.250000000E+02  0.00000E+00  9.000E+00
      21     1     1     2   511   501  1.457322580E+01  3.344947140E+00 -3.485284011E+01  3.792476823E+01  0.000000000E+00  0.00000E+00  9.000E+00
#rwgt            1           1   4.0116626884596246E-002          10      338880           0
</event>
<event>
      5   9999  3.79277E-02  6.24883E+01 -1.00000E+00  1.33767E-01
      21    -1     0     0   502   512  0.000000000E+00  0.000000000E+00  4.961333542E+02  4.961333542E+02  0.000000000E+00  0.00000E+00  9.000E+00
      21    -1     0     0   501   502  0.000000000E+00  0.000000000E+00 -1.484457770E+02  1.484457770E+02  0.000000000E+00  0.00000E+00  9.000E+00
      25     1     1     2     0     0 -2.744473607E+01 -1.060567355E+02 -5.577852717E+01  1.753211019E+02  1.250000000E+02  0.00000E+00  9.000E+00
      25     1     1     2     0     0 -3.503548320E+01  1.070613411E+02  3.442236267E+02  3.831507811E+02  1.250000000E+02  0.00000E+00  9.000E+00
      21     1     1     2   501   512  6.248021928E+01 -1.004605602E+00  5.924247770E+01  8.610724823E+01  1.168007728E-06  0.00000E+00  9.000E+00
#rwgt            2          11   3.1921043463236302E-003          10      339086           0
</event>
<event>
      5   9999  3.79277E-02  1.89808E+01 -1.00000E+00  1.68265E-01
      21    -1     0     0   502   501  0.000000000E+00  0.000000000E+00  4.003005131E+02  4.003005131E+02  0.000000000E+00  0.00000E+00  9.000E+00
      21    -1     0     0   501   511  0.000000000E+00  0.000000000E+00 -1.203348131E+02  1.203348131E+02  0.000000000E+00  0.00000E+00  9.000E+00
      25     1     1     2     0     0 -2.640459310E+01 -9.131915064E+00  3.385943734E+02  3.620106961E+02  1.250000000E+02  0.00000E+00  9.000E+00
      25     1     1     2     0     0  7.947869219E+00  1.356136694E+01 -6.010289771E+01  1.395866670E+02  1.250000000E+02  0.00000E+00  9.000E+00
      21     1     1     2   502   511  1.845672388E+01 -4.429451873E+00  1.474224247E+00  1.903796306E+01  2.169641819E-07  0.00000E+00  9.000E+00
#rwgt            1           1   3.4794772674555392E-002          10      339106           0
</event>
<event>
      5   9999  3.79277E-02  1.80060E+02 -1.00000E+00  1.13334E-01
      21    -1     0     0   502   501  0.000000000E+00  0.000000000E+00  1.487123577E+02  1.487123577E+02  0.000000000E+00  0.00000E+00  9.000E+00
      -2    -1     0     0     0   502  0.000000000E+00  0.000000000E+00 -1.633542386E+03  1.633542386E+03  0.000000000E+00  0.00000E+00  9.000E+00
      25     1     1     2     0     0  1.091766031E+02 -2.302330087E+02 -3.757980115E+02  4.709309020E+02  1.250000000E+02  0.00000E+00  9.000E+00
      25     1     1     2     0     0  5.309270186E+01  3.082734439E+02 -2.156490725E+02  3.999760913E+02  1.250000000E+02  0.00000E+00  9.000E+00
      -2     1     1     2     0   501 -1.622693049E+02 -7.804043518E+01 -8.933829441E+02  9.113477501E+02  1.868812365E-05  0.00000E+00  9.000E+00
#rwgt            2           9   3.5253723483079811E-005          10      339513           0
</event>
<event>
      5   9999  3.79277E-02  3.16817E+01 -1.00000E+00  1.51413E-01
      21    -1     0     0   502   511  0.000000000E+00  0.000000000E+00  1.908362420E+03  1.908362420E+03  0.000000000E+00  0.00000E+00  9.000E+00
      21    -1     0     0   501   502  0.000000000E+00  0.000000000E+00 -2.081052948E+02  2.081052948E+02  0.000000000E+00  0.00000E+00  9.000E+00
      25     1     1     2     0     0 -2.554551907E+01 -1.944219394E+02  3.188924424E+02  3.946768981E+02  1.250000000E+02  0.00000E+00  9.000E+00
      25     1     1     2     0     0  3.952165430E+01  1.659895762E+02 -1.042678906E+02  2.358204689E+02  1.250000000E+02  0.00000E+00  9.000E+00
      21     1     1     2   501   511 -1.397613523E+01  2.843236324E+01  1.485632574E+03  1.485970348E+03  0.000000000E+00  0.00000E+00  9.000E+00
#rwgt            1           1   4.4472449556550359E-002          10      339532           0
</event>
<event>
      5   9999  3.79277E-02  1.25248E+02 -1.00000E+00  1.19585E-01
      21    -1     0     0   502   501  0.000000000E+00  0.000000000E+00  1.550311952E+02  1.550311952E+02  0.000000000E+00  0.00000E+00  9.000E+00
      -3    -1     0     0     0   502  0.000000000E+00  0.000000000E+00 -6.506214331E+02  6.506214331E+02  0.000000000E+00  0.00000E+00  9.000E+00
      25     1     1     2     0     0  1.321575111E+02  2.721391109E+01 -4.591365546E+01  1.895765504E+02  1.250000000E+02  0.00000E+00  9.000E+00
      25     1     1     2     0     0 -2.556806433E+02 -4.792823234E+01 -2.580536201E+02  3.871516210E+02  1.250000000E+02  0.00000E+00  9.000E+00
      -3     1     1     2     0   501  1.235231322E+02  2.071432125E+01 -1.916229623E+02  2.289244569E+02  0.000000000E+00  0.00000E+00  9.000E+00
#rwgt            1           1   3.8788775723691604E-002          10      339721           0
</event>
<event>
      5   9999  3.79277E-02  4.41463E+01 -1.00000E+00  1.42233E-01
      21    -1     0     0   502   511  0.000000000E+00  0.000000000E+00  4.481889302E+02  4.481889302E+02  0.000000000E+00  0.00000E+00  9.000E+00
      21    -1     0     0   501   502  0.000000000E+00  0.000000000E+00 -4.732639917E+02  4.732639917E+02  0.000000000E+00  0.00000E+00  9.000E+00
      25     1     1     2     0     0 -8.682868926E+01  1.774660436E+02 -2.188276884E+02  3.202248821E+02  1.250000000E+02  0.00000E+00  9.000E+00
      25     1     1     2     0     0  1.057752499E+02 -1.375922242E+02 -1.457800084E+02  2.588374673E+02  1.250000000E+02  0.00000E+00  9.000E+00
      21     1     1     2   501   511 -1.894656062E+01 -3.987381940E+01  3.395326353E+02  3.423905724E+02  3.814697266E-06  0.00000E+00  9.000E+00
#rwgt            1           1   7.5661437993475342E-002          10      339939           0
</event>
<event>
      5   9999  3.79277E-02  3.12921E+01 -1.00000E+00  1.51779E-01
      21    -1     0     0   502   501  0.000000000E+00  0.000000000E+00  2.115697006E+02  2.115697006E+02  0.000000000E+00  0.00000E+00  9.000E+00
      21    -1     0     0   512   502  0.000000000E+00  0.000000000E+00 -2.068029304E+02  2.068029304E+02  0.000000000E+00  0.00000E+00  9.000E+00
      25     1     1     2     0     0 -7.273929265E+01 -1.021608291E+02  4.400845886E+01  1.824543344E+02  1.250000000E+02  0.00000E+00  9.000E+00
      25     1     1     2     0     0  8.014310020E+01  1.325644173E+02 -2.219548955E+01  2.002845001E+02  1.250000000E+02  0.00000E+00  9.000E+00
      21     1     1     2   512   501 -7.403807544E+00 -3.040358821E+01 -1.704619913E+01  3.563379641E+01  4.768371582E-07  0.00000E+00  9.000E+00
#rwgt            1           1   4.7138912085935791E-002          10      340078           0
</event>
<event>
      5   9999  3.79277E-02  4.71389E+01 -1.00000E+00  1.40551E-01
      21    -1     0     0   502   501  0.000000000E+00  0.000000000E+00  7.033694479E+02  7.033694479E+02  0.000000000E+00  0.00000E+00  9.000E+00
      21    -1     0     0   511   502  0.000000000E+00  0.000000000E+00 -8.584373995E+01  8.584373995E+01  0.000000000E+00  0.00000E+00  9.000E+00
      25     1     1     2     0     0 -1.207474971E+02  2.748512254E+01  1.543913510E+02  2.340877598E+02  1.250000000E+02  0.00000E+00  9.000E+00
      25     1     1     2     0     0  9.232007365E+01  1.011754221E+01  4.803340304E+02  5.049466719E+02  1.250000000E+02  0.00000E+00  9.000E+00
      21     1     1     2   511   501  2.842742345E+01 -3.760266476E+01 -1.719967351E+01  5.017875616E+01  3.371747881E-07  0.00000E+00  9.000E+00
#rwgt            1           1   4.2748494057954639E-002          10      340202           0
</event>
<event>
      5   9999  3.79277E-02  9.30320E+01 -1.00000E+00  1.25255E-01
      21    -1     0     0   502   512  0.000000000E+00  0.000000000E+00  5.648717857E+02  5.648717857E+02  0.000000000E+00  0.00000E+00  9.000E+00
      21    -1     0     0   501   502  0.000000000E+00  0.000000000E+00 -5.333685952E+02  5.333685952E+02  0.000000000E+00  0.00000E+00  9.000E+00
      25     1     1     2     0     0 -1.340409257E+02  1.674533981E+02 -4.185245834E+02  4.866163142E+02  1.250000000E+02  0.00000E+00  9.000E+00
      25     1     1     2     0     0  9.535615914E+01 -2.520610245E+02  2.399730239E+02  3.818895251E+02  1.250000000E+02  0.00000E+00  9.000E+00
      21     1     1     2   501   512  3.868476653E+01  8.460762638E+01  2.100547500E+02  2.297345416E+02  2.697398305E-06  0.00000E+00  9.000E+00
#rwgt            1           1   3.9952364933193214E-002          10      340271           0
</event>
<event>
      5   9999  3.79277E-02  1.01513E+02 -1.00000E+00  1.23535E-01
      21    -1     0     0   502   501  0.000000000E+00  0.000000000E+00  5.000150590E+01  5.000150590E+01  0.000000000E+00  0.00000E+00  9.000E+00
       1    -1     0     0   501     0  0.000000000E+00  0.000000000E+00 -1.699824126E+03  1.699824126E+03  0.000000000E+00  0.00000E+00  9.000E+00
      25     1     1     2     0     0  1.082154551E+02  4.155800400E+01 -1.741880074E+02  2.437295927E+02  1.250000000E+02  0.00000E+00  9.000E+00
      25     1     1     2     0     0 -1.226235977E+02  5.892719408E+01 -7.050960455E+02  7.288994404E+02  1.250000000E+02  0.00000E+00  9.000E+00
       1     1     1     2   502     0  1.440814255E+01 -1.004851981E+02 -7.705385677E+02  7.771965992E+02  1.525878906E-05  0.00000E+00  9.000E+00
#rwgt            2          12   2.1482877587703102E-004          10      340575           0
</event>
<event>
      5   9999  3.79277E-02  6.77815E+01 -1.00000E+00  1.31933E-01
      21    -1     0     0   511   501  0.000000000E+00  0.000000000E+00  2.792297190E+02  2.792297190E+02  0.000000000E+00  0.00000E+00  9.000E+00
      21    -1     0     0   501   502  0.000000000E+00  0.000000000E+00 -9.065096607E+02  9.065096607E+02  0.000000000E+00  0.00000E+00  9.000E+00
      25     1     1     2     0     0  1.041362707E+02  2.158283845E+02 -6.574794964E+02  7.108660511E+02  1.250000000E+02  0.00000E+00  9.000E+00
      25     1     1     2     0     0 -1.272940850E+02 -1.521256079E+02 -1.527118616E+02  2.798068929E+02  1.250000000E+02  0.00000E+00  9.000E+00
      21     1     1     2   511   502  2.315781425E+01 -6.370277662E+01  1.829114163E+02  1.950664356E+02  2.697398305E-06  0.00000E+00  9.000E+00
#rwgt            1           1   4.0410886255711327E-002          10      340624           0
</event>
<event>
      5   9999  3.79277E-02  1.27851E+02 -1.00000E+00  1.19212E-01
       2    -1     0     0   502     0  0.000000000E+00  0.000000000E+00  4.718931372E+02  4.718931372E+02  0.000000000E+00  0.00000E+00  9.000E+00
      21    -1     0     0   501   502  0.000000000E+00  0.000000000E+00 -6.912600218E+02  6.912600218E+02  0.000000000E+00  0.00000E+00  9.000E+00
      25     1     1     2     0     0  1.060656985E+02 -8.671105271E+01 -4.522053110E+01  1.908890659E+02  1.250000000E+02  0.00000E+00  9.000E+00
      25     1     1     2     0     0 -1.472076473E+02 -3.433928642E+01 -5.454070635E+02  5.796060239E+02  1.250000000E+02  0.00000E+00  9.000E+00
       2     1     1     2   501     0  4.114194884E+01  1.210503391E+02  3.712607099E+02  3.926580692E+02  5.394796609E-06  0.00000E+00  9.000E+00
#rwgt            1           1   4.5182145930072005E-002          10      340809           0
</event>
<event>
      5   9999  3.79277E-02  4.02346E+01 -1.00000E+00  1.44683E-01
      21    -1     0     0   502   501  0.000000000E+00  0.000000000E+00  2.305692430E+02  2.305692430E+02  0.000000000E+00  0.00000E+00  9.000E+00
      21    -1     0     0   511   502  0.000000000E+00  0.000000000E+00 -1.507027314E+02  1.507027314E+02  0.000000000E+00  0.00000E+00  9.000E+00
      25     1     1     2     0     0 -8.180935959E+01  3.189231751E+01  2.316573943E+01  1.545041835E+02  1.250000000E+02  0.00000E+00  9.000E+00
      25     1     1     2     0     0  1.086800265E+02 -1.945905741E+00  7.587156447E+01  1.821994210E+02  1.250000000E+02  0.00000E+00  9.000E+00
      21     1     1     2   511   501 -2.687066694E+01 -2.994641176E+01 -1.917079228E+01  4.456836991E+01  8.596304120E-07  0.00000E+00  9.000E+00
#rwgt            1           1   4.7850911994525069E-002          10      340937           0
</event>
<event>
      5   9999  3.79277E-02  1.30730E+02 -1.00000E+00  1.18810E-01
      21    -1     0     0   502   501  0.000000000E+00  0.000000000E+00  7.119806584E+01  7.119806584E+01  0.000000000E+00  0.00000E+00  9.000E+00
       2    -1     0     0   501     0  0.000000000E+00  0.000000000E+00 -1.736199057E+03  1.736199057E+03  0.000000000E+00  0.00000E+00  9.000E+00
      25     1     1     2     0     0  5.324932082E+01  5.964126461E+01 -1.607885655E+02  2.187933578E+02  1.250000000E+02  0.00000E+00  9.000E+00
      25     1     1     2     0     0 -9.770471397E+01 -1.825802146E+02 -3.410449435E+02  4.181129027E+02  1.250000000E+02  0.00000E+00  9.000E+00
       2     1     1     2   502     0  4.445539314E+01  1.229389500E+02 -1.163167482E+03  1.170490863E+03  1.525878906E-05  0.00000E+00  9.000E+00
#rwgt            2          13   5.7766950502361662E-004          10      341213           0
</event>
<event>
      5   9999  3.79277E-02  2.97613E+01 -1.00000E+00  1.53281E-01
      21    -1     0     0   502   501  0.000000000E+00  0.000000000E+00  1.721358563E+02  1.721358563E+02  0.000000000E+00  0.00000E+00  9.000E+00
       2    -1     0     0   501     0  0.000000000E+00  0.000000000E+00 -2.412185373E+03  2.412185373E+03  0.000000000E+00  0.00000E+00  9.000E+00
      25     1     1     2     0     0 -1.939718968E+02  8.566519807E+01  4.383645376E+01  2.500205143E+02  1.250000000E+02  0.00000E+00  9.000E+00
      25     1     1     2     0     0  1.688857531E+02 -6.965211307E+01 -4.632273220E+02  5.133988375E+02  1.250000000E+02  0.00000E+00  9.000E+00
       2     1     1     2   502     0  2.508614366E+01 -1.601308501E+01 -1.820658648E+03  1.820901877E+03  0.000000000E+00  0.00000E+00  9.000E+00
#rwgt            1           1   3.6824832143753580E-002          10      341247           0
</event>
<event>
      5   9999  3.79277E-02  6.31199E+01 -1.00000E+00  1.33537E-01
       1    -1     0     0   502     0  0.000000000E+00  0.000000000E+00  2.080879432E+03  2.080879432E+03  0.000000000E+00  0.00000E+00  9.000E+00
      21    -1     0     0   501   502  0.000000000E+00  0.000000000E+00 -2.050606594E+02  2.050606594E+02  0.000000000E+00  0.00000E+00  9.000E+00
      25     1     1     2     0     0 -2.527769653E+02 -1.626134835E+02  3.867035098E+02  5.054739792E+02  1.250000000E+02  0.00000E+00  9.000E+00
      25     1     1     2     0     0  2.112584388E+02  2.101564884E+02  3.505674006E+01  3.250382325E+02  1.250000000E+02  0.00000E+00  9.000E+00
       1     1     1     2   501     0  4.151852642E+01 -4.754300493E+01  1.454058523E+03  1.455427880E+03  2.157918644E-05  0.00000E+00  9.000E+00
#rwgt            1           1   4.9644237073288085E-002          10      341529           0
</event>
<event>
      5   9999  3.79277E-02  3.17267E+01 -1.00000E+00  1.51371E-01
      21    -1     0     0   502   511  0.000000000E+00  0.000000000E+00  1.015243513E+03  1.015243513E+03  0.000000000E+00  0.00000E+00  9.000E+00
      21    -1     0     0   501   502  0.000000000E+00  0.000000000E+00 -6.411186991E+01  6.411186991E+01  0.000000000E+00  0.00000E+00  9.000E+00
      25     1     1     2     0     0  1.154867049E+02  1.254429027E+02  2.301657307E+02  3.125289818E+02  1.250000000E+02  0.00000E+00  9.000E+00
      25     1     1     2     0     0 -1.468775225E+02 -1.208382309E+02  6.592805148E+02  6.974601651E+02  1.250000000E+02  0.00000E+00  9.000E+00
      21     1     1     2   501   511  3.139081764E+01 -4.604671799E+00  6.168539760E+01  6.936623611E+01  9.536743164E-07  0.00000E+00  9.000E+00
#rwgt            1           1   3.5027806942194512E-002          10      341622           0
</event>
<event>
      5   9999  3.79277E-02  7.55643E+01 -1.00000E+00  1.29560E-01
      21    -1     0     0   502   501  0.000000000E+00  0.000000000E+00  1.046087508E+02  1.046087508E+02  0.000000000E+00  0.00000E+00  9.000E+00
      21    -1     0     0   501   512  0.000000000E+00  0.000000000E+00 -6.004830797E+02  6.004830797E+02  0.000000000E+00  0.00000E+00  9.000E+00
      25     1     1     2     0     0 -1.430880135E+02  7.387520504E+01 -1.781574702E+02  2.707338356E+02  1.250000000E+02  0.00000E+00  9.000E+00
      25     1     1     2     0     0  1.044145134E+02 -1.387930643E+02 -1.910501761E+02  2.868642102E+02  1.250000000E+02  0.00000E+00  9.000E+00
      21     1     1     2   502   512  3.867350009E+01  6.491785921E+01 -1.266666826E+02  1.474937847E+02  0.000000000E+00  0.00000E+00  9.000E+00
#rwgt            1           1   3.1658406115967146E-002          10      341834           0
</event>
<event>
      5   9999  3.79277E-02  1.04382E+02 -1.00000E+00  1.22996E-01
      21    -1     0     0   502   501  0.000000000E+00  0.000000000E+00  3.239071569E+02  3.239071569E+02  0.000000000E+00  0.00000E+00  9.000E+00
      21    -1     0     0   511   502  0.000000000E+00  0.000000000E+00 -2.470430969E+02  2.470430969E+02  0.000000000E+00  0.00000E+00  9.000E+00
      25     1     1     2     0     0 -1.287507643E+02 -8.970893878E+01  7.746061883E+01  2.150572028E+02  1.250000000E+02  0.00000E+00  9.000E+00
      25     1     1     2     0     0  2.480113059E+01  9.919515480E+01  1.164236272E+02  1.990834895E+02  1.250000000E+02  0.00000E+00  9.000E+00
      21     1     1     2   511   501  1.039496337E+02 -9.486216020E+00 -1.170201860E+02  1.568095615E+02  2.336015456E-06  0.00000E+00  9.000E+00
#rwgt            1           1   3.5493350698081884E-002          10      342062           0
</event>
<event>
      5   9999  3.79277E-02  3.02163E+01 -1.00000E+00  1.52823E-01
      21    -1     0     0   502   512  0.000000000E+00  0.000000000E+00  7.542902208E+02  7.542902208E+02  0.000000000E+00  0.00000E+00  9.000E+00
      21    -1     0     0   501   502  0.000000000E+00  0.000000000E+00 -7.615867339E+01  7.615867339E+01  0.000000000E+00  0.00000E+00  9.000E+00
      25     1     1     2     0     0 -7.791759247E+01 -1.107875703E+02  5.127289506E+02  5.448495331E+02  1.250000000E+02  0.00000E+00  9.000E+00
      25     1     1     2     0     0  9.478026185E+01  8.571417843E+01  8.157753768E+01  1.964945625E+02  1.250000000E+02  0.00000E+00  9.000E+00
      21     1     1     2   501   512 -1.686266938E+01  2.507339188E+01  8.382505913E+01  8.910479862E+01  9.536743164E-07  0.00000E+00  9.000E+00
#rwgt            1           1   3.4170188376872579E-002          10      342146           0
</event>
<event>
      5   9999  3.79277E-02  2.77848E+01 -1.00000E+00  1.55390E-01
      21    -1     0     0   502   511  0.000000000E+00  0.000000000E+00  6.643260691E+01  6.643260691E+01  0.000000000E+00  0.00000E+00  9.000E+00
      21    -1     0     0   501   502  0.000000000E+00  0.000000000E+00 -7.473021401E+02  7.473021401E+02  0.000000000E+00  0.00000E+00  9.000E+00
      25     1     1     2     0     0  6.158267525E+01  1.334656791E+02 -2.054198248E+02  2.818294126E+02  1.250000000E+02  0.00000E+00  9.000E+00
      25     1     1     2     0     0 -4.822665091E+01 -1.578298751E+02 -4.442848005E+02  4.901531019E+02  1.250000000E+02  0.00000E+00  9.000E+00
      21     1     1     2   501   511 -1.335602434E+01  2.436419605E+01 -3.116490789E+01  4.175223250E+01  5.840038640E-07  0.00000E+00  9.000E+00
#rwgt            1           1   7.8644925113137087E-002          10      342410           0
</event>
<event>
      5   9999  3.79277E-02  2.61304E+01 -1.00000E+00  1.57326E-01
      21    -1     0     0   502   512  0.000000000E+00  0.000000000E+00  1.647323588E+03  1.647323588E+03  0.000000000E+00  0.00000E+00  9.000E+00
      21    -1     0     0   501   502  0.000000000E+00  0.000000000E+00 -1.719197336E+02  1.719197336E+02  0.000000000E+00  0.00000E+00  9.000E+00
      25     1     1     2     0     0  1.321488174E+01  1.307230008E+02  3.006334620E+02  3.510963038E+02  1.250000000E+02  0.00000E+00  9.000E+00
      25     1     1     2     0     0 -1.046346376E+01 -1.567081656E+02 -7.781890491E+01  2.152851950E+02  1.250000000E+02  0.00000E+00  9.000E+00
      21     1     1     2   501   512 -2.751417988E+00  2.598516479E+01  1.252589298E+03  1.252861823E+03  1.525878906E-05  0.00000E+00  9.000E+00
#rwgt            1           1   3.8201781919647126E-002          10      342627           0
</event>
<event>
      5   9999  3.79277E-02  2.89707E+01 -1.00000E+00  1.54101E-01
      21    -1     0     0   511   501  0.000000000E+00  0.000000000E+00  1.563777451E+03  1.563777451E+03  0.000000000E+00  0.00000E+00  9.000E+00
      21    -1     0     0   501   502  0.000000000E+00  0.000000000E+00 -7.895249225E+01  7.895249225E+01  0.000000000E+00  0.00000E+00  9.000E+00
      25     1     1     2     0     0  1.824397366E+02 -2.864375535E+01  2.181800727E+02  3.119811955E+02  1.250000000E+02  0.00000E+00  9.000E+00
      25     1     1     2     0     0 -1.861989548E+02 -8.196614885E-02  3.633368191E+02  4.269762308E+02  1.250000000E+02  0.00000E+00  9.000E+00
      21     1     1     2   511   502  3.759218216E+00  2.872572150E+01  9.033080673E+02  9.037725175E+02  0.000000000E+00  0.00000E+00  9.000E+00
#rwgt            1           1   4.1634268910061278E-002          10      342766           0
</event>
<event>
      5   9999  3.79277E-02  2.24268E+01 -1.00000E+00  1.62367E-01
      21    -1     0     0   502   501  0.000000000E+00  0.000000000E+00  2.441867690E+02  2.441867690E+02  0.000000000E+00  0.00000E+00  9.000E+00
      21    -1     0     0   501   512  0.000000000E+00  0.000000000E+00 -3.698086430E+02  3.698086430E+02  0.000000000E+00  0.00000E+00  9.000E+00
      25     1     1     2     0     0 -1.953046583E+02 -3.726193329E+01 -2.080126897E+01  2.357754313E+02  1.250000000E+02  0.00000E+00  9.000E+00
      25     1     1     2     0     0  1.830506135E+02  5.604491606E+01  3.962610530E+01  2.320426425E+02  1.250000000E+02  0.00000E+00  9.000E+00
      21     1     1     2   502   512  1.225404473E+01 -1.878298278E+01 -1.444467104E+02  1.461773382E+02  2.697398305E-06  0.00000E+00  9.000E+00
#rwgt            1           1   3.5846011854595093E-002          10      342934           0
</event>
<event>
      5   9999  3.79277E-02  1.07362E+02 -1.00000E+00  1.22456E-01
      21    -1     0     0   502   501  0.000000000E+00  0.000000000E+00  7.079641239E+02  7.079641239E+02  0.000000000E+00  0.00000E+00  9.000E+00
      21    -1     0     0   511   502  0.000000000E+00  0.000000000E+00 -2.751066314E+02  2.751066314E+02  0.000000000E+00  0.00000E+00  9.000E+00
      25     1     1     2     0     0  2.316195759E+02 -1.688942468E+01  5.074639804E+02  5.719069610E+02  1.250000000E+02  0.00000E+00  9.000E+00
      25     1     1     2     0     0 -1.762320861E+02  1.088615472E+02  4.961906881E+01  2.469729472E+02  1.250000000E+02  0.00000E+00  9.000E+00
      21     1     1     2   511   501 -5.538748982E+01 -9.197212256E+01 -1.242255567E+02  1.641908472E+02  3.015782986E-06  0.00000E+00  9.000E+00
#rwgt            1           1   4.7136744465450742E-002          10      343072           0
</event>
<event>
      5   9999  3.79277E-02  3.70902E+00 -1.00000E+00  2.71446E-01
      -3    -1     0     0     0   501  0.000000000E+00  0.000000000E+00  3.564761577E+02  3.564761577E+02  0.000000000E+00  0.00000E+00  9.000E+00
      21    -1     0     0   501   502  0.000000000E+00  0.000000000E+00 -6.313067459E+02  6.313067459E+02  0.000000000E+00  0.00000E+00  9.000E+00
      25     1     1     2     0     0 -2.265604101E+02 -2.834805680E+01 -7.660041137E+01  2.713408461E+02  1.250000000E+02  0.00000E+00  9.000E+00
      25     1     1     2     0     0  2.264112729E+02  3.205408121E+01 -4.201943030E+02  4.944469445E+02  1.250000000E+02  0.00000E+00  9.000E+00
      -3     1     1     2     0   502  1.491371787E-01 -3.706024411E+00  2.219641262E+02  2.219951129E+02  0.000000000E+00  0.00000E+00  9.000E+00
#rwgt            1           1   3.8415523893549290E-002          10      343324           0
</event>
<event>
      5   9999  3.79277E-02  5.76469E+01 -1.00000E+00  1.35639E-01
      21    -1     0     0   502   501  0.000000000E+00  0.000000000E+00  9.287859946E+01  9.287859946E+01  0.000000000E+00  0.00000E+00  9.000E+00
      21    -1     0     0   501   511  0.000000000E+00  0.000000000E+00 -8.053518054E+02  8.053518054E+02  0.000000000E+00  0.00000E+00  9.000E+00
      25     1     1     2     0     0  5.204805585E+01  4.948805171E+00 -2.451177122E+02  2.800735325E+02  1.250000000E+02  0.00000E+00  9.000E+00
      25     1     1     2     0     0 -4.413619220E+01 -6.205014201E+01  8.967602415E-01  1.463694906E+02  1.250000000E+02  0.00000E+00  9.000E+00
      21     1     1     2   502   511 -7.911863655E+00  5.710133684E+01 -4.682522539E+02  4.717873817E+02  5.394796609E-06  0.00000E+00  9.000E+00
#rwgt            1           1   4.9681797548025909E-002          10      344024           0
</event>
<event>
      5   9999  3.79277E-02  1.56476E+02 -1.00000E+00  1.15671E-01
      21    -1     0     0   502   501  0.000000000E+00  0.000000000E+00  9.298182526E+01  9.298182526E+01  0.000000000E+00  0.00000E+00  9.000E+00
      21    -1     0     0   512   502  0.000000000E+00  0.000000000E+00 -1.321026168E+03  1.321026168E+03  0.000000000E+00  0.00000E+00  9.000E+00
      25     1     1     2     0     0 -1.478126328E+02  9.211513774E+01 -5.682561716E+02  6.073498576E+02  1.250000000E+02  0.00000E+00  9.000E+00
      25     1     1     2     0     0  4.023268478E+01 -2.057430324E+02 -1.836075072E+02  3.054268833E+02  1.250000000E+02  0.00000E+00  9.000E+00
      21     1     1     2   512   501  1.075799480E+02  1.136278947E+02 -4.761806642E+02  5.012312526E+02  9.344061824E-06  0.00000E+00  9.000E+00
#rwgt            1           1   3.1664639808601597E-002          10      344152           0
</event>
<event>
      5   9999  3.79277E-02  5.49159E+01 -1.00000E+00  1.36791E-01
      21    -1     0     0   511   501  0.000000000E+00  0.000000000E+00  1.225309569E+03  1.225309569E+03  0.000000000E+00  0.00000E+00  9.000E+00
      21    -1     0     0   501   502  0.000000000E+00  0.000000000E+00 -5.381916316E+01  5.381916316E+01  0.000000000E+00  0.00000E+00  9.000E+00
      25     1     1     2     0     0  3.883366071E+01 -5.806521499E+00  5.285915175E+01  1.412829035E+02  1.250000000E+02  0.00000E+00  9.000E+00
      25     1     1     2     0     0 -2.262497959E+01  5.827592183E+01  5.880462539E+02  6.044264798E+02  1.250000000E+02  0.00000E+00  9.000E+00
      21     1     1     2   511   502 -1.620868112E+01 -5.246940033E+01  5.305850000E+02  5.334193487E+02  7.629394531E-06  0.00000E+00  9.000E+00
#rwgt            1           1   5.7161327888581193E-002          10      344342           0
</event>
<event>
      5   9999  3.79277E-02  3.49313E+01 -1.00000E+00  1.48587E-01
      21    -1     0     0   512   501  0.000000000E+00  0.000000000E+00  3.723173124E+02  3.723173124E+02  0.000000000E+00  0.00000E+00  9.000E+00
      21    -1     0     0   501   502  0.000000000E+00  0.000000000E+00 -1.649727877E+02  1.649727877E+02  0.000000000E+00  0.00000E+00  9.000E+00
      25     1     1     2     0     0  1.215520174E+02 -1.617898478E+01  4.643733346E+01  1.811576066E+02  1.250000000E+02  0.00000E+00  9.000E+00
      25     1     1     2     0     0 -1.342313829E+02  4.872786605E+01 -1.725681551E+00  1.897905347E+02  1.250000000E+02  0.00000E+00  9.000E+00
      21     1     1     2   512   502  1.267936544E+01 -3.254888128E+01  1.626328728E+02  1.663419589E+02  1.907348633E-06  0.00000E+00  9.000E+00
#rwgt            1           1   4.8331735632323701E-002          10      344484           0
</event>
<event>
      5   9999  3.79277E-02  1.60298E+02 -1.00000E+00  1.15262E-01
      21    -1     0     0   502   501  0.000000000E+00  0.000000000E+00  6.323794045E+02  6.323794045E+02  0.000000000E+00  0.00000E+00  9.000E+00
      21    -1     0     0   511   502  0.000000000E+00  0.000000000E+00 -4.176616603E+02  4.176616603E+02  0.000000000E+00  0.00000E+00  9.000E+00
      25     1     1     2     0     0 -1.692393414E+00 -1.864753686E+02  3.073615570E+02  3.806206169E+02  1.250000000E+02  0.00000E+00  9.000E+00
      25     1     1     2     0     0  9.537647113E+01  5.640373511E+01  2.444974181E+02  2.961115331E+02  1.250000000E+02  0.00000E+00  9.000E+00
      21     1     1     2   511   501 -9.368407772E+01  1.300716335E+02 -3.371412309E+02  3.733089147E+02  3.814697266E-06  0.00000E+00  9.000E+00
#rwgt            1           1   3.9709023655989398E-002          10      344643           0
</event>
<event>
      5   9999  3.79277E-02  3.69053E+01 -1.00000E+00  1.47043E-01
      21    -1     0     0   512   501  0.000000000E+00  0.000000000E+00  1.061175963E+02  1.061175963E+02  0.000000000E+00  0.00000E+00  9.000E+00
      21    -1     0     0   501   502  0.000000000E+00  0.000000000E+00 -6.317708067E+02  6.317708067E+02  0.000000000E+00  0.00000E+00  9.000E+00
      25     1     1     2     0     0  1.380048127E+02  1.715602945E+01 -3.925251306E+02  4.347880355E+02  1.250000000E+02  0.00000E+00  9.000E+00
      25     1     1     2     0     0 -1.011009332E+02 -1.748196248E+01 -1.809572633E+02  2.426881721E+02  1.250000000E+02  0.00000E+00  9.000E+00
      21     1     1     2   512   502 -3.690387945E+01  3.259330344E-01  4.782918358E+01  6.041219539E+01  9.536743164E-07  0.00000E+00  9.000E+00
#rwgt            1           1   4.0606431749699717E-002          10      344719           0
</event>
<event>
      5   9999  3.79277E-02  3.14798E+01 -1.00000E+00  1.51601E-01
      21    -1     0     0   502   501  0.000000000E+00  0.000000000E+00  7.323187828E+01  7.323187828E+01  0.000000000E+00  0.00000E+00  9.000E+00
      21    -1     0     0   501   511  0.000000000E+00  0.000000000E+00 -5.069700966E+02  5.069700966E+02  0.000000000E+00  0.00000E+00  9.000E+00
      25     1     1     2     0     0  5.166970158E+01 -7.716455613E+01 -7.603421921E+01  1.732926117E+02  1.250000000E+02  0.00000E+00  9.000E+00
      25     1     1     2     0     0 -2.799109729E+01  9.790830651E+01 -2.805126731E+02  3.235458203E+02  1.250000000E+02  0.00000E+00  9.000E+00
      21     1     1     2   502   511 -2.367860429E+01 -2.074375038E+01 -7.719132597E+01  8.336354291E+01  1.348699152E-06  0.00000E+00  9.000E+00
#rwgt            1           1   3.6047092968266768E-002          10      344921           0
</event>
<event>
      5   9999  3.79277E-02  4.30043E+01 -1.00000E+00  1.42916E-01
       2    -1     0     0   502     0  0.000000000E+00  0.000000000E+00  1.143630201E+03  1.143630201E+03  0.000000000E+00  0.00000E+00  9.000E+00
      21    -1     0     0   501   502  0.000000000E+00  0.000000000E+00 -7.979574009E+01  7.979574009E+01  0.000000000E+00  0.00000E+00  9.000E+00
      25     1     1     2     0     0 -7.173180490E+00 -5.589770182E+01  2.266458895E+00  1.371354966E+02  1.250000000E+02  0.00000E+00  9.000E+00
      25     1     1     2     0     0  5.010939368E+01  5.831716054E+01  4.524266514E+02  4.756329651E+02  1.250000000E+02  0.00000E+00  9.000E+00
       2     1     1     2   501     0 -4.293621319E+01 -2.419458728E+00  6.091413505E+02  6.106574793E+02  1.078959322E-05  0.00000E+00  9.000E+00
#rwgt            1           1   3.5647338800822312E-002          10      345120           0
</event>
<event>
      5   9999  3.79277E-02  3.81799E+01 -1.00000E+00  1.46106E-01
      21    -1     0     0   502   511  0.000000000E+00  0.000000000E+00  3.409085310E+02  3.409085310E+02  0.000000000E+00  0.00000E+00  9.000E+00
      21    -1     0     0   501   502  0.000000000E+00  0.000000000E+00 -2.115624898E+02  2.115624898E+02  0.000000000E+00  0.00000E+00  9.000E+00
      25     1     1     2     0     0  1.262268002E+02  2.089845006E+01 -7.249211876E+00  1.790181593E+02  1.250000000E+02  0.00000E+00  9.000E+00
      25     1     1     2     0     0 -1.232183111E+02  1.716269208E+01 -4.974618596E+01  1.832402609E+02  1.250000000E+02  0.00000E+00  9.000E+00
      21     1     1     2   501   511 -3.008489082E+00 -3.806114214E+01  1.863414390E+02  1.902126007E+02  3.814697266E-06  0.00000E+00  9.000E+00
#rwgt            1           1   4.6429771748791607E-002          10      345258           0
</event>
<event>
      5   9999  3.79277E-02  3.19585E+01 -1.00000E+00  1.51156E-01
      21    -1     0     0   502   512  0.000000000E+00  0.000000000E+00  7.745348574E+01  7.745348574E+01  0.000000000E+00  0.00000E+00  9.000E+00
      21    -1     0     0   501   502  0.000000000E+00  0.000000000E+00 -1.000880349E+03  1.000880349E+03  0.000000000E+00  0.00000E+00  9.000E+00
      25     1     1     2     0     0 -1.532450299E+02 -1.281743732E+02 -5.174440983E+02  5.685825393E+02  1.250000000E+02  0.00000E+00  9.000E+00
      25     1     1     2     0     0  1.852026018E+02  1.284156278E+02 -4.020440160E+02  4.775510109E+02  1.250000000E+02  0.00000E+00  9.000E+00
      21     1     1     2   501   512 -3.195757194E+01 -2.412545432E-01 -3.938749417E+00  3.220028502E+01  7.527667844E-07  0.00000E+00  9.000E+00
#rwgt            1           1   3.5480330888656313E-002          10      345439           0
</event>
<event>
      5   9999  3.79277E-02  3.11161E+01 -1.00000E+00  1.51946E-01
       1    -1     0     0   502     0  0.000000000E+00  0.000000000E+00  1.805437310E+03  1.805437310E+03  0.000000000E+00  0.00000E+00  9.000E+00
      21    -1     0     0   501   502  0.000000000E+00  0.000000000E+00 -2.905554943E+02  2.905554943E+02  0.000000000E+00  0.00000E+00  9.000E+00
      25     1     1     2     0     0  5.113942289E+01  2.201090547E+02  1.754816162E+02  3.122211302E+02  1.250000000E+02  0.00000E+00  9.000E+00
      25     1     1     2     0     0 -3.149340456E+01 -2.442388743E+02 -1.361410767E+02  3.079023465E+02  1.250000000E+02  0.00000E+00  9.000E+00
       1     1     1     2   501     0 -1.964601833E+01  2.412981960E+01  1.475541276E+03  1.475869327E+03  2.157918644E-05  0.00000E+00  9.000E+00
#rwgt            1           1   3.7801569630405450E-002          10      345590           0
</event>
<event>
      5   9999  3.79277E-02  8.66318E+01 -1.00000E+00  1.26697E-01
      21    -1     0     0   502   501  0.000000000E+00  0.000000000E+00  1.253906638E+03  1.253906638E+03  0.000000000E+00  0.00000E+00  9.000E+00
      21    -1     0     0   511   502  0.000000000E+00  0.000000000E+00 -1.817814318E+02  1.817814318E+02  0.000000000E+00  0.00000E+00  9.000E+00
      25     1     1     2     0     0  1.172444766E+02 -2.137614935E+02  9.019940006E+02  9.426868093E+02  1.250000000E+02  0.00000E+00  9.000E+00
      25     1     1     2     0     0 -1.860257347E+02  2.664322406E+02  1.998140120E+02  4.014254005E+02  1.250000000E+02  0.00000E+00  9.000E+00
      21     1     1     2   511   501  6.878125807E+01 -5.267074715E+01 -2.968280661E+01  9.157585968E+01  1.617033478E-06  0.00000E+00  9.000E+00
#rwgt            1           1  0.20818794100697441               10      345846           0
</event>
<event>
      5   9999  3.79277E-02  3.11091E+01 -1.00000E+00  1.51953E-01
      21    -1     0     0   502   501  0.000000000E+00  0.000000000E+00  1.475264299E+02  1.475264299E+02  0.000000000E+00  0.00000E+00  9.000E+00
      21    -1     0     0   512   502  0.000000000E+00  0.000000000E+00 -7.117133229E+02  7.117133229E+02  0.000000000E+00  0.00000E+00  9.000E+00
      25     1     1     2     0     0 -1.439931330E+02  7.434793268E+01  3.239750500E+01  2.072106073E+02  1.250000000E+02  0.00000E+00  9.000E+00
      25     1     1     2     0     0  1.664498818E+02 -9.587634016E+01 -4.890602064E+02  5.400951039E+02  1.250000000E+02  0.00000E+00  9.000E+00
      21     1     1     2   512   501 -2.245674888E+01  2.152840748E+01 -1.075241917E+02  1.119340417E+02  1.348699152E-06  0.00000E+00  9.000E+00
#rwgt            1           1   2.7940190727356724E-002          10      345913           0
</event>
<event>
      5   9999  3.79277E-02  8.38574E+01 -1.00000E+00  1.27367E-01
      21    -1     0     0   511   501  0.000000000E+00  0.000000000E+00  4.179127411E+02  4.179127411E+02  0.000000000E+00  0.00000E+00  9.000E+00
      21    -1     0     0   501   502  0.000000000E+00  0.000000000E+00 -2.732415714E+02  2.732415714E+02  0.000000000E+00  0.00000E+00  9.000E+00
      25     1     1     2     0     0 -2.450113770E+02 -8.108288946E+01  8.981568485E+01  3.004943711E+02  1.250000000E+02  0.00000E+00  9.000E+00
      25     1     1     2     0     0  2.722778332E+02  1.782133771E+00  2.137836698E+01  3.003671570E+02  1.250000000E+02  0.00000E+00  9.000E+00
      21     1     1     2   511   502 -2.726645620E+01  7.930075569E+01  3.347711782E+01  9.029278435E+01  9.536743164E-07  0.00000E+00  9.000E+00
#rwgt            1           1  0.18132833267525450               10      346077           0
</event>
<event>
      5   9999  3.79277E-02  1.72190E+02 -1.00000E+00  1.14067E-01
      21    -1     0     0   502   501  0.000000000E+00  0.000000000E+00  1.670124977E+02  1.670124977E+02  0.000000000E+00  0.00000E+00  9.000E+00
       2    -1     0     0   501     0  0.000000000E+00  0.000000000E+00 -1.677035183E+03  1.677035183E+03  0.000000000E+00  0.00000E+00  9.000E+00
      25     1     1     2     0     0  2.402180353E+02 -1.551136755E+02 -2.492496867E+02  3.993937445E+02  1.250000000E+02  0.00000E+00  9.000E+00
      25     1     1     2     0     0 -6.845022038E+01  1.430687808E+02 -3.270069702E+01  2.045689231E+02  1.250000000E+02  0.00000E+00  9.000E+00
       2     1     1     2   502     0 -1.717678149E+02  1.204489470E+01 -1.228072302E+03  1.240085013E+03  0.000000000E+00  0.00000E+00  9.000E+00
#rwgt            2          13   8.6614952130576264E-004          10      346211           0
</event>
<event>
      5   9999  3.79277E-02  2.45907E+01 -1.00000E+00  1.59290E-01
      21    -1     0     0   502   511  0.000000000E+00  0.000000000E+00  5.513070794E+02  5.513070794E+02  0.000000000E+00  0.00000E+00  9.000E+00
      21    -1     0     0   501   502  0.000000000E+00  0.000000000E+00 -4.031968745E+02  4.031968745E+02  0.000000000E+00  0.00000E+00  9.000E+00
      25     1     1     2     0     0 -1.803411832E+02 -1.481031402E+01 -2.622087017E+02  3.422290038E+02  1.250000000E+02  0.00000E+00  9.000E+00
      25     1     1     2     0     0  1.560566404E+02  1.867861653E+01 -4.029067935E-01  2.008176488E+02  1.250000000E+02  0.00000E+00  9.000E+00
      21     1     1     2   501   511  2.428454283E+01 -3.868302508E+00  4.107218134E+02  4.114573013E+02  0.000000000E+00  0.00000E+00  9.000E+00
#rwgt            1           1   2.9846119624704431E-002          10      346260           0
</event>
<event>
      5   9999  3.79277E-02  1.91978E+01 -1.00000E+00  1.67849E-01
      21    -1     0     0   502   501  0.000000000E+00  0.000000000E+00  1.399198936E+01  1.399198936E+01  0.000000000E+00  0.00000E+00  9.000E+00
      21    -1     0     0   512   502  0.000000000E+00  0.000000000E+00 -2.674124671E+03  2.674124671E+03  0.000000000E+00  0.00000E+00  9.000E+00
      25     1     1     2     0     0 -6.459841255E+01 -1.060587970E+02 -1.000305560E+03  1.015705487E+03  1.250000000E+02  0.00000E+00  9.000E+00
      25     1     1     2     0     0  8.369911181E+01  1.079875555E+02 -1.470815039E+03  1.482426637E+03  1.250000000E+02  0.00000E+00  9.000E+00
      21     1     1     2   512   501 -1.910069926E+01 -1.928758464E+00 -1.890120817E+02  1.899845358E+02  0.000000000E+00  0.00000E+00  9.000E+00
#rwgt            1           1  0.39349422309209681               10      346531           0
</event>
<event>
      5   9999  3.79277E-02  2.74248E+01 -1.00000E+00  1.55797E-01
      21    -1     0     0   511   501  0.000000000E+00  0.000000000E+00  3.645847991E+02  3.645847991E+02  0.000000000E+00  0.00000E+00  9.000E+00
      21    -1     0     0   501   502  0.000000000E+00  0.000000000E+00 -1.825684982E+02  1.825684982E+02  0.000000000E+00  0.00000E+00  9.000E+00
      25     1     1     2     0     0 -1.613863538E+02 -1.263988325E+02  8.444482522E+01  2.545155173E+02  1.250000000E+02  0.00000E+00  9.000E+00
      25     1     1     2     0     0  1.831631167E+02  1.097287263E+02  7.983105038E+01  2.599752244E+02  1.250000000E+02  0.00000E+00  9.000E+00
      21     1     1     2   511   502 -2.177676293E+01  1.667010617E+01  1.774042527E+01  3.266255550E+01  6.743495762E-07  0.00000E+00  9.000E+00
#rwgt            1           1   1.2008682911248732E-002          10      346691           0
</event>
<event>
      5   9999  3.79277E-02  6.29589E+01 -1.00000E+00  1.33596E-01
      21    -1     0     0   512   501  0.000000000E+00  0.000000000E+00  2.569304556E+02  2.569304556E+02  0.000000000E+00  0.00000E+00  9.000E+00
      21    -1     0     0   501   502  0.000000000E+00  0.000000000E+00 -1.962730405E+02  1.962730405E+02  0.000000000E+00  0.00000E+00  9.000E+00
      25     1     1     2     0     0 -5.052566059E+01  1.283858535E+02 -4.450138388E+01  1.914187633E+02  1.250000000E+02  0.00000E+00  9.000E+00
      25     1     1     2     0     0 -7.094927217E+00 -1.030147675E+02  3.199366141E+01  1.652603240E+02  1.250000000E+02  0.00000E+00  9.000E+00
      21     1     1     2   512   502  5.762058781E+01 -2.537108604E+01  7.316513760E+01  9.652440886E+01  9.536743164E-07  0.00000E+00  9.000E+00
#rwgt            1           1   3.9417558660662953E-002          10      346847           0
</event>
<event>
      5   9999  3.79277E-02  3.95329E+01 -1.00000E+00  1.45157E-01
      21    -1     0     0   502   501  0.000000000E+00  0.000000000E+00  1.571898507E+02  1.571898507E+02  0.000000000E+00  0.00000E+00  9.000E+00
      21    -1     0     0   511   502  0.000000000E+00  0.000000000E+00 -5.304271553E+02  5.304271553E+02  0.000000000E+00  0.00000E+00  9.000E+00
      25     1     1     2     0     0  1.138458539E+02 -1.004662254E+02  5.206540403E+01  2.034456861E+02  1.250000000E+02  0.00000E+00  9.000E+00
      25     1     1     2     0     0 -9.251431211E+01  6.718233132E+01 -2.343336545E+02  2.891532902E+02  1.250000000E+02  0.00000E+00  9.000E+00
      21     1     1     2   511   501 -2.133154183E+01  3.328389408E+01 -1.909690541E+02  1.950180297E+02  0.000000000E+00  0.00000E+00  9.000E+00
#rwgt            1           1   3.9846462065782684E-002          10      346965           0
</event>
<event>
      5   9999  3.79277E-02  8.03614E+01 -1.00000E+00  1.28255E-01
      21    -1     0     0   502   501  0.000000000E+00  0.000000000E+00  1.104934013E+03  1.104934013E+03  0.000000000E+00  0.00000E+00  9.000E+00
      21    -1     0     0   512   502  0.000000000E+00  0.000000000E+00 -7.303491326E+01  7.303491326E+01  0.000000000E+00  0.00000E+00  9.000E+00
      25     1     1     2     0     0 -4.523090466E+01 -1.578243028E+02  2.867008795E+02  3.532375116E+02  1.250000000E+02  0.00000E+00  9.000E+00
      25     1     1     2     0     0  1.246902304E+02  1.458168905E+02  6.906090560E+02  7.275823577E+02  1.250000000E+02  0.00000E+00  9.000E+00
      21     1     1     2   512   501 -7.945932576E+01  1.200741232E+01  5.458916421E+01  9.714905687E+01  9.536743164E-07  0.00000E+00  9.000E+00
#rwgt            1           1   3.7673399634251939E-002          10      347234           0
</event>
<event>
      5   9999  3.79277E-02  7.03421E+00 -1.00000E+00  2.15255E-01
      21    -1     0     0   511   501  0.000000000E+00  0.000000000E+00  2.444291961E+02  2.444291961E+02  0.000000000E+00  0.00000E+00  9.000E+00
      21    -1     0     0   501   502  0.000000000E+00  0.000000000E+00 -2.131547397E+02  2.131547397E+02  0.000000000E+00  0.00000E+00  9.000E+00
      25     1     1     2     0     0 -1.458232764E+02  3.654063198E+01  1.023370603E+02  2.206751450E+02  1.250000000E+02  0.00000E+00  9.000E+00
      25     1     1     2     0     0  1.497395270E+02 -3.069742655E+01 -8.978283260E+01  2.169106152E+02  1.250000000E+02  0.00000E+00  9.000E+00
      21     1     1     2   511   502 -3.916250573E+00 -5.843205432E+00  1.872022866E+01  1.999817565E+01  3.371747881E-07  0.00000E+00  9.000E+00
#rwgt            1           1   3.2024476154735519E-002          10      347302           0
</event>
<event>
      5   9999  3.79277E-02  6.14487E+01 -1.00000E+00  1.34152E-01
       1    -1     0     0   502     0  0.000000000E+00  0.000000000E+00  1.354337655E+03  1.354337655E+03  0.000000000E+00  0.00000E+00  9.000E+00
      21    -1     0     0   501   502  0.000000000E+00  0.000000000E+00 -2.512929415E+03  2.512929415E+03  0.000000000E+00  0.00000E+00  9.000E+00
      25     1     1     2     0     0 -8.477443054E+01  2.156659132E+01 -2.338299305E+03  2.343271316E+03  1.250000000E+02  0.00000E+00  9.000E+00
      25     1     1     2     0     0  3.512322156E+01 -5.777020026E+01 -1.419779981E+02  2.008825246E+02  1.250000000E+02  0.00000E+00  9.000E+00
       1     1     1     2   501     0  4.965120898E+01  3.620360894E+01  1.321685543E+03  1.323113229E+03  2.157918644E-05  0.00000E+00  9.000E+00
#rwgt            1           1   7.0665176810809402E-002          10      347696           0
</event>
<event>
      5   9999  3.79277E-02  5.19200E+01 -1.00000E+00  1.38148E-01
      21    -1     0     0   511   501  0.000000000E+00  0.000000000E+00  2.355165711E+02  2.355165711E+02  0.000000000E+00  0.00000E+00  9.000E+00
      21    -1     0     0   501   502  0.000000000E+00  0.000000000E+00 -2.602691934E+02  2.602691934E+02  0.000000000E+00  0.00000E+00  9.000E+00
      25     1     1     2     0     0 -1.134233225E+02 -1.751652724E+01  4.562155648E+01  1.757213852E+02  1.250000000E+02  0.00000E+00  9.000E+00
      25     1     1     2     0     0  8.928676879E+01 -2.845211494E+01 -1.554550778E+02  2.203926749E+02  1.250000000E+02  0.00000E+00  9.000E+00
      21     1     1     2   511   502  2.413655372E+01  4.596864219E+01  8.508089896E+01  9.967170439E+01  9.536743164E-07  0.00000E+00  9.000E+00
#rwgt            1           1   3.9074196084214953E-002          10      347829           0
</event>
<event>
      5   9999  3.79277E-02  4.46719E+01 -1.00000E+00  1.41926E-01
      21    -1     0     0   502   512  0.000000000E+00  0.000000000E+00  8.337674958E+02  8.337674958E+02  0.000000000E+00  0.00000E+00  9.000E+00
      21    -1     0     0   501   502  0.000000000E+00  0.000000000E+00 -1.157040357E+02  1.157040357E+02  0.000000000E+00  0.00000E+00  9.000E+00
      25     1     1     2     0     0  4.463373591E+01 -2.306732708E+02  1.494034221E+02  3.052027372E+02  1.250000000E+02  0.00000E+00  9.000E+00
      25     1     1     2     0     0 -4.312322002E-01  2.242142953E+02  4.599162417E+02  5.267069257E+02  1.250000000E+02  0.00000E+00  9.000E+00
      21     1     1     2   501   512 -4.420250370E+01  6.458975523E+00  1.087437964E+02  1.175618686E+02  0.000000000E+00  0.00000E+00  9.000E+00
#rwgt            1           1   3.2198210466937847E-002          10      347939           0
</event>
<event>
      5   9999  3.79277E-02  2.24093E+01 -1.00000E+00  1.62394E-01
      21    -1     0     0   502   501  0.000000000E+00  0.000000000E+00  1.959330647E+02  1.959330647E+02  0.000000000E+00  0.00000E+00  9.000E+00
       1    -1     0     0   501     0  0.000000000E+00  0.000000000E+00 -3.336941742E+02  3.336941742E+02  0.000000000E+00  0.00000E+00  9.000E+00
      25     1     1     2     0     0  1.046872688E+02 -1.239767461E+01  4.199932748E+01  1.688255611E+02  1.250000000E+02  0.00000E+00  9.000E+00
      25     1     1     2     0     0 -8.603892289E+01 -2.873021930E-02  2.588344828E+01  1.539404105E+02  1.250000000E+02  0.00000E+00  9.000E+00
       1     1     1     2   502     0 -1.864834590E+01  1.242640483E+01 -2.056438853E+02  2.068612673E+02  0.000000000E+00  0.00000E+00  9.000E+00
#rwgt            1           1   3.6609952216339413E-002          10      348258           0
</event>
<event>
      5   9999  3.79277E-02  7.01127E+01 -1.00000E+00  1.31185E-01
      21    -1     0     0   502   501  0.000000000E+00  0.000000000E+00  5.415140532E+02  5.415140532E+02  0.000000000E+00  0.00000E+00  9.000E+00
      21    -1     0     0   511   502  0.000000000E+00  0.000000000E+00 -1.342346173E+02  1.342346173E+02  0.000000000E+00  0.00000E+00  9.000E+00
      25     1     1     2     0     0 -1.613654757E+02 -1.525022345E+01  1.959039229E+02  2.833279603E+02  1.250000000E+02  0.00000E+00  9.000E+00
      25     1     1     2     0     0  2.222560400E+02  5.000843342E+01  1.763782251E+02  3.140587031E+02  1.250000000E+02  0.00000E+00  9.000E+00
      21     1     1     2   511   501 -6.089056434E+01 -3.475820997E+01  3.499728797E+01  7.836200706E+01  1.507891493E-06  0.00000E+00  9.000E+00
#rwgt            1           1  0.23060672299022500               10      348523           0
</event>
<event>
      5   9999  5.37349E-02  3.36482E+01 -1.00000E+00  1.49657E-01
      21    -1     0     0   502   501  0.000000000E+00  0.000000000E+00  1.784109497E+03  1.784109497E+03  0.000000000E+00  0.00000E+00  9.000E+00
      21    -1     0     0   501   512  0.000000000E+00  0.000000000E+00 -5.768329086E+01  5.768329086E+01  0.000000000E+00  0.00000E+00  9.000E+00
      25     1     1     2     0     0  2.049621991E+02  1.889352730E+01  9.027706264E+02  9.343373439E+02  1.250000000E+02  0.00000E+00  9.000E+00
      25     1     1     2     0     0 -1.820657687E+02  5.763191510E+00  8.410472330E+02  8.695784074E+02  1.250000000E+02  0.00000E+00  9.000E+00
      21     1     1     2   502   512 -2.289643040E+01 -2.465671882E+01 -1.739165310E+01  3.787703665E+01  2.236564522E-06  0.00000E+00  9.000E+00
#rwgt            1           1  0.38018895891942989               10      348597           0
</event>
<event>
      5   9999  3.79277E-02  1.29470E+01 -1.00000E+00  1.83625E-01
      21    -1     0     0   502   501  0.000000000E+00  0.000000000E+00  1.261370795E+02  1.261370795E+02  0.000000000E+00  0.00000E+00  9.000E+00
      21    -1     0     0   501   511  0.000000000E+00  0.000000000E+00 -5.294445029E+02  5.294445029E+02  0.000000000E+00  0.00000E+00  9.000E+00
      25     1     1     2     0     0 -3.791817834E+01 -1.763043853E+02 -3.393940727E+02  4.041464600E+02  1.250000000E+02  0.00000E+00  9.000E+00
      25     1     1     2     0     0  5.076619915E+01  1.747063366E+02 -4.012766106E+01  2.243540510E+02  1.250000000E+02  0.00000E+00  9.000E+00
      21     1     1     2   502   511 -1.284802081E+01  1.598048710E+00 -2.378568966E+01  2.708107146E+01  3.371747881E-07  0.00000E+00  9.000E+00
#rwgt            1           1   3.2644803520341020E-002          10      348731           0
</event>
<event>
      5   9999  3.79277E-02  1.93471E+01 -1.00000E+00  1.67567E-01
      21    -1     0     0   512   501  0.000000000E+00  0.000000000E+00  3.701304459E+02  3.701304459E+02  0.000000000E+00  0.00000E+00  9.000E+00
      21    -1     0     0   501   502  0.000000000E+00  0.000000000E+00 -3.382156156E+02  3.382156156E+02  0.000000000E+00  0.00000E+00  9.000E+00
      25     1     1     2     0     0 -1.995629543E+02 -8.882862933E+01 -1.676023706E+02  3.023763429E+02  1.250000000E+02  0.00000E+00  9.000E+00
      25     1     1     2     0     0  1.802762222E+02  9.035563723E+01  3.441213011E+01  2.397349623E+02  1.250000000E+02  0.00000E+00  9.000E+00
      21     1     1     2   512   502  1.928673215E+01 -1.527007896E+00  1.651050708E+02  1.662347562E+02  0.000000000E+00  0.00000E+00  9.000E+00
#rwgt            1           1   6.3057874802161296E-002          10      349042           0
</event>
<event>
      5   9999  3.79277E-02  2.15120E+01 -1.00000E+00  1.63799E-01
      21    -1     0     0   511   501  0.000000000E+00  0.000000000E+00  1.031427977E+02  1.031427977E+02  0.000000000E+00  0.00000E+00  9.000E+00
      21    -1     0     0   501   502  0.000000000E+00  0.000000000E+00 -4.021263718E+02  4.021263718E+02  0.000000000E+00  0.00000E+00  9.000E+00
      25     1     1     2     0     0  7.131184865E+01 -1.080762979E+02 -9.369361597E+01  2.029023401E+02  1.250000000E+02  0.00000E+00  9.000E+00
      25     1     1     2     0     0 -8.591428504E+01  1.238729531E+02 -2.006167737E+02  2.803531038E+02  1.250000000E+02  0.00000E+00  9.000E+00
      21     1     1     2   511   502  1.460243639E+01 -1.579665522E+01 -4.673184463E+00  2.201372567E+01  2.528810911E-07  0.00000E+00  9.000E+00
#rwgt            1           1   2.1367742703432245E-002          10      349244           0
</event>
<event>
      5   9999  3.79277E-02  1.12560E+02 -1.00000E+00  1.21560E-01
      21    -1     0     0   502   501  0.000000000E+00  0.000000000E+00  3.188550963E+02  3.188550963E+02  0.000000000E+00  0.00000E+00  9.000E+00
      21    -1     0     0   501   512  0.000000000E+00  0.000000000E+00 -3.054169858E+02  3.054169858E+02  0.000000000E+00  0.00000E+00  9.000E+00
      25     1     1     2     0     0  4.364229931E+01  9.883118846E+01  2.175140212E+02  2.731475856E+02  1.250000000E+02  0.00000E+00  9.000E+00
      25     1     1     2     0     0  4.844164405E+01 -3.409839343E+01 -1.937915674E+02  2.380954954E+02  1.250000000E+02  0.00000E+00  9.000E+00
      21     1     1     2   502   512 -9.208394336E+01 -6.473279503E+01 -1.028434335E+01  1.130290011E+02  1.685873940E-06  0.00000E+00  9.000E+00
#rwgt            1           1   5.9532464916388764E-002          10      349452           0
</event>
<event>
      5   9999  3.79277E-02  1.11793E+01 -1.00000E+00  1.90322E-01
      21    -1     0     0   502   501  0.000000000E+00  0.000000000E+00  3.654374455E+02  3.654374455E+02  0.000000000E+00  0.00000E+00  9.000E+00
      21    -1     0     0   501   511  0.000000000E+00  0.000000000E+00 -1.326552944E+02  1.326552944E+02  0.000000000E+00  0.00000E+00  9.000E+00
      25     1     1     2     0     0  1.221916205E+02 -5.330710671E+01  2.910855366E+01  1.850533643E+02  1.250000000E+02  0.00000E+00  9.000E+00
      25     1     1     2     0     0 -1.331678545E+02  5.542821804E+01  2.212537850E+02  2.922057532E+02  1.250000000E+02  0.00000E+00  9.000E+00
      21     1     1     2   502   511  1.097623394E+01 -2.121111333E+00 -1.758018758E+01  2.083362235E+01  2.384185791E-07  0.00000E+00  9.000E+00
#rwgt            1           1   3.5974189775639702E-002          10      349580           0
</event>
<event>
      5   9999  3.79277E-02  2.31544E+01 -1.00000E+00  1.61287E-01
      21    -1     0     0   502   512  0.000000000E+00  0.000000000E+00  3.318038677E+02  3.318038677E+02  0.000000000E+00  0.00000E+00  9.000E+00
      21    -1     0     0   501   502  0.000000000E+00  0.000000000E+00 -1.477656095E+02  1.477656095E+02  0.000000000E+00  0.00000E+00  9.000E+00
      25     1     1     2     0     0  7.727713956E+01  3.325345283E+01  1.138919220E+02  1.888754042E+02  1.250000000E+02  0.00000E+00  9.000E+00
      25     1     1     2     0     0 -8.909934559E+01 -1.334456345E+01 -5.486219386E+01  1.635592586E+02  1.250000000E+02  0.00000E+00  9.000E+00
      21     1     1     2   501   512  1.182220604E+01 -1.990888938E+01  1.250085301E+02  1.271348144E+02  1.348699152E-06  0.00000E+00  9.000E+00
#rwgt            1           1   5.3836666136049954E-002          10      349847           0
</event>
<event>
      5   9999  3.79277E-02  7.13476E+00 -1.00000E+00  2.14390E-01
      21    -1     0     0   511   501  0.000000000E+00  0.000000000E+00  1.599401765E+02  1.599401765E+02  0.000000000E+00  0.00000E+00  9.000E+00
      21    -1     0     0   501   502  0.000000000E+00  0.000000000E+00 -2.048070136E+02  2.048070136E+02  0.000000000E+00  0.00000E+00  9.000E+00
      25     1     1     2     0     0 -1.104892876E+02  5.974875367E+01 -1.522726953E+01  1.778613673E+02  1.250000000E+02  0.00000E+00  9.000E+00
      25     1     1     2     0     0  1.047532842E+02 -6.399176399E+01 -3.408475921E+01  1.784795989E+02  1.250000000E+02  0.00000E+00  9.000E+00
      21     1     1     2   511   502  5.736003388E+00  4.243010312E+00  4.445191693E+00  8.406223918E+00  1.576990671E-07  0.00000E+00  9.000E+00
#rwgt            1           1   2.2929766538802510E-002          10      350073           0
</event>
<event>
      5   9999  3.79277E-02  2.06702E+01 -1.00000E+00  1.65197E-01
      21    -1     0     0   512   501  0.000000000E+00  0.000000000E+00  1.861624574E+02  1.861624574E+02  0.000000000E+00  0.00000E+00  9.000E+00
      21    -1     0     0   501   502  0.000000000E+00  0.000000000E+00 -2.200152770E+02  2.200152770E+02  0.000000000E+00  0.00000E+00  9.000E+00
      25     1     1     2     0     0  3.188267211E+01  4.877919670E+01 -1.505241074E+02  2.041529371E+02  1.250000000E+02  0.00000E+00  9.000E+00
      25     1     1     2     0     0 -1.725253237E+01 -6.338112084E+01  8.698096072E+01  1.658478335E+02  1.250000000E+02  0.00000E+00  9.000E+00
      21     1     1     2   512   502 -1.463013974E+01  1.460192414E+01  2.969032719E+01  3.617696375E+01  0.000000000E+00  0.00000E+00  9.000E+00
#rwgt            1           1   3.7895984511183665E-002          10      350339           0
</event>
<event>
      5   9999  3.79277E-02  8.31588E+01 -1.00000E+00  1.27541E-01
      21    -1     0     0   502   501  0.000000000E+00  0.000000000E+00  8.015143603E+01  8.015143603E+01  0.000000000E+00  0.00000E+00  9.000E+00
       2    -1     0     0   501     0  0.000000000E+00  0.000000000E+00 -2.866247908E+03  2.866247908E+03  0.000000000E+00  0.00000E+00  9.000E+00
      25     1     1     2     0     0  1.119960825E+01  9.597594957E+01 -5.518873274E+02  5.740569974E+02  1.250000000E+02  0.00000E+00  9.000E+00
      25     1     1     2     0     0  7.191137621E+01 -9.879577024E+01 -4.360681225E+01  1.801621612E+02  1.250000000E+02  0.00000E+00  9.000E+00
       2     1     1     2   502     0 -8.311098447E+01  2.819820672E+00 -2.190602332E+03  2.192180185E+03  3.051757812E-05  0.00000E+00  9.000E+00
#rwgt            1           1   2.7384218963177290E-002          10      350451           0
</event>
<event>
      5   9999  3.79277E-02  2.19023E+02 -1.00000E+00  1.10230E-01
      21    -1     0     0   502   501  0.000000000E+00  0.000000000E+00  2.706526224E+03  2.706526224E+03  0.000000000E+00  0.00000E+00  9.000E+00
      21    -1     0     0   501   511  0.000000000E+00  0.000000000E+00 -6.910755900E+01  6.910755900E+01  0.000000000E+00  0.00000E+00  9.000E+00
      25     1     1     2     0     0  3.662480255E+01 -2.311561123E+02  1.157256661E+03  1.187283666E+03  1.250000000E+02  0.00000E+00  9.000E+00
      25     1     1     2     0     0  1.806489654E+02  2.035290165E+02  1.176027074E+03  1.213557905E+03  1.250000000E+02  0.00000E+00  9.000E+00
      21     1     1     2   502   511 -2.172737679E+02  2.762709581E+01  3.041349299E+02  3.747922121E+02  3.814697266E-06  0.00000E+00  9.000E+00
#rwgt            2          11   4.3298912063491554E-003          10      350527           0
</event>
<event>
      5   9999  3.79277E-02  3.56273E+01 -1.00000E+00  1.48029E-01
      21    -1     0     0   502   501  0.000000000E+00  0.000000000E+00  7.338415696E+02  7.338415696E+02  0.000000000E+00  0.00000E+00  9.000E+00
      21    -1     0     0   512   502  0.000000000E+00  0.000000000E+00 -3.236707144E+02  3.236707144E+02  0.000000000E+00  0.00000E+00  9.000E+00
      25     1     1     2     0     0  4.549153827E+00  1.034635164E+02 -1.455013678E+01  1.629788346E+02  1.250000000E+02  0.00000E+00  9.000E+00
      25     1     1     2     0     0  2.376475465E+00 -1.384111551E+02  6.449823409E+02  6.714093502E+02  1.250000000E+02  0.00000E+00  9.000E+00
      21     1     1     2   512   501 -6.925629292E+00  3.494763867E+01 -2.202613490E+02  2.231240992E+02  3.814697266E-06  0.00000E+00  9.000E+00
#rwgt            1           1   2.4444284558231194E-002          10      350547           0
</event>
<event>
      5   9999  3.79277E-02  9.93005E+01 -1.00000E+00  1.23965E-01
      21    -1     0     0   511   501  0.000000000E+00  0.000000000E+00  3.689773788E+02  3.689773788E+02  0.000000000E+00  0.00000E+00  9.000E+00
      21    -1     0     0   501   502  0.000000000E+00  0.000000000E+00 -2.017638837E+02  2.017638837E+02  0.000000000E+00  0.00000E+00  9.000E+00
      25     1     1     2     0     0  4.647679209E+01  1.180129678E+02 -2.600843981E+01  1.799683075E+02  1.250000000E+02  0.00000E+00  9.000E+00
      25     1     1     2     0     0 -1.439163434E+02 -9.887871325E+01  5.696037061E+01  2.221674991E+02  1.250000000E+02  0.00000E+00  9.000E+00
      21     1     1     2   511   502  9.743955135E+01 -1.913425456E+01  1.362615643E+02  1.686054559E+02  1.907348633E-06  0.00000E+00  9.000E+00
#rwgt            1           1   3.5796740950632372E-002          10      350713           0
</event>
<event>
      5   9999  3.79277E-02  3.96182E+01 -1.00000E+00  1.45099E-01
      21    -1     0     0   502   501  0.000000000E+00  0.000000000E+00  2.133218109E+02  2.133218109E+02  0.000000000E+00  0.00000E+00  9.000E+00
      21    -1     0     0   501   512  0.000000000E+00  0.000000000E+00 -2.282504964E+02  2.282504964E+02  0.000000000E+00  0.00000E+00  9.000E+00
      25     1     1     2     0     0 -7.661767451E+01 -8.151703515E+01  3.508695138E+01  1.713808310E+02  1.250000000E+02  0.00000E+00  9.000E+00
      25     1     1     2     0     0  7.656917846E+01  1.211351629E+02  1.848584640E+01  1.910583505E+02  1.250000000E+02  0.00000E+00  9.000E+00
      21     1     1     2   502   512  4.849604211E-02 -3.961812773E+01 -6.850148327E+01  7.913312585E+01  9.536743164E-07  0.00000E+00  9.000E+00
#rwgt            1           1   5.2677311703228875E-002          10      350810           0
</event>
<event>
      5   9999  3.79277E-02  4.63406E+01 -1.00000E+00  1.40985E-01
      21    -1     0     0   511   501  0.000000000E+00  0.000000000E+00  3.858682347E+01  3.858682347E+01  0.000000000E+00  0.00000E+00  9.000E+00
      21    -1     0     0   501   502  0.000000000E+00  0.000000000E+00 -3.387949912E+03  3.387949912E+03  0.000000000E+00  0.00000E+00  9.000E+00
      25     1     1     2     0     0  6.649806826E+01  2.947753367E+02 -1.437193819E+03  1.473928616E+03  1.250000000E+02  0.00000E+00  9.000E+00
      25     1     1     2     0     0 -1.127095177E+02 -2.982328659E+02 -1.777545071E+03  1.810231410E+03  1.250000000E+02  0.00000E+00  9.000E+00
      21     1     1     2   511   502  4.621144946E+01  3.457529233E+00 -1.346241989E+02  1.423767098E+02  1.907348633E-06  0.00000E+00  9.000E+00
#rwgt            1           1   3.0625550655088443E-002          10      350988           0
</event>
<event>
      5   9999  3.79277E-02  3.52513E+01 -1.00000E+00  1.48328E-01
      21    -1     0     0   502   501  0.000000000E+00  0.000000000E+00  1.975892560E+02  1.975892560E+02  0.000000000E+00  0.00000E+00  9.000E+00
      21    -1     0     0   501   512  0.000000000E+00  0.000000000E+00 -2.209090977E+02  2.209090977E+02  0.000000000E+00  0.00000E+00  9.000E+00
      25     1     1     2     0     0 -1.189356174E+02  6.053656936E+01  1.271489256E+00  1.828577972E+02  1.250000000E+02  0.00000E+00  9.000E+00
      25     1     1     2     0     0  1.416327028E+02 -3.356440833E+01  1.358667168E+00  1.918677617E+02  1.250000000E+02  0.00000E+00  9.000E+00
      21     1     1     2   502   512 -2.269708539E+01 -2.697216103E+01 -2.594999818E+01  4.377279476E+01  6.743495762E-07  0.00000E+00  9.000E+00
#rwgt            1           1   2.1530376048680907E-002          10      351171           0
</event>
<event>
      5   9999 -3.79277E-02  4.06522E+01 -1.00000E+00  1.44406E-01
      21    -1     0     0   502   501  0.000000000E+00  0.000000000E+00  8.541767675E+01  8.541767675E+01  0.000000000E+00  0.00000E+00  9.000E+00
      -1    -1     0     0     0   502  0.000000000E+00  0.000000000E+00 -5.778177201E+02  5.778177201E+02  0.000000000E+00  0.00000E+00  9.000E+00
      25     1     1     2     0     0 -7.547654813E+01 -1.447669571E+02 -1.714033788E+02  2.676906787E+02  1.250000000E+02  0.00000E+00  9.000E+00
      25     1     1     2     0     0  3.917820257E+01  1.264630234E+02 -2.969070498E+02  3.482910049E+02  1.250000000E+02  0.00000E+00  9.000E+00
      -1     1     1     2     0   501  3.629834556E+01  1.830393373E+01 -2.408961470E+01  4.725371326E+01  8.259061849E-07  0.00000E+00  9.000E+00
#rwgt            1           1 -0.11627869157508972               10      351423           0
</event>
<event>
      5   9999  3.79277E-02  4.53760E+01 -1.00000E+00  1.41524E-01
      21    -1     0     0   502   501  0.000000000E+00  0.000000000E+00  7.200159774E+02  7.200159774E+02  0.000000000E+00  0.00000E+00  9.000E+00
      21    -1     0     0   501   511  0.000000000E+00  0.000000000E+00 -2.894158175E+02  2.894158175E+02  0.000000000E+00  0.00000E+00  9.000E+00
      25     1     1     2     0     0 -2.430354370E+02 -1.250837374E+02  4.115305106E+02  5.096023216E+02  1.250000000E+02  0.00000E+00  9.000E+00
      25     1     1     2     0     0  2.353551273E+02  8.036246102E+01  1.807634445E+02  3.318894152E+02  1.250000000E+02  0.00000E+00  9.000E+00
      21     1     1     2   502   511  7.680309718E+00  4.472127638E+01 -1.616937952E+02  1.679400581E+02  3.303624740E-06  0.00000E+00  9.000E+00
#rwgt            1           1   3.4384508240363806E-002          10      351594           0
</event>
<event>
      5   9999  3.79277E-02  1.52191E+02 -1.00000E+00  1.16145E-01
      21    -1     0     0   502   512  0.000000000E+00  0.000000000E+00  3.219005323E+03  3.219005323E+03  0.000000000E+00  0.00000E+00  9.000E+00
      21    -1     0     0   501   502  0.000000000E+00  0.000000000E+00 -2.824857528E+01  2.824857528E+01  0.000000000E+00  0.00000E+00  9.000E+00
      25     1     1     2     0     0  1.191093778E+02  1.266212026E+02  8.846416818E+02  9.101845297E+02  1.250000000E+02  0.00000E+00  9.000E+00
      25     1     1     2     0     0 -1.788154086E+02  1.336952105E+01  1.110584399E+03  1.131890632E+03  1.250000000E+02  0.00000E+00  9.000E+00
      21     1     1     2   501   512  5.970603080E+01 -1.399907237E+02  1.195530667E+03  1.205178737E+03  2.642899792E-05  0.00000E+00  9.000E+00
#rwgt            1           1   8.1483943092070285E-002          10      351751           0
</event>
<event>
      5   9999  3.79277E-02  3.95206E+01 -1.00000E+00  1.45166E-01
      21    -1     0     0   502   511  0.000000000E+00  0.000000000E+00  1.232016850E+02  1.232016850E+02  0.000000000E+00  0.00000E+00  9.000E+00
      21    -1     0     0   501   502  0.000000000E+00  0.000000000E+00 -5.063463469E+02  5.063463469E+02  0.000000000E+00  0.00000E+00  9.000E+00
      25     1     1     2     0     0  1.222786239E+02 -2.296073906E+01 -2.667702137E+02  3.197977553E+02  1.250000000E+02  0.00000E+00  9.000E+00
      25     1     1     2     0     0 -1.473900398E+02 -7.556364289E+00 -1.599097759E+02  2.509523041E+02  1.250000000E+02  0.00000E+00  9.000E+00
      21     1     1     2   501   511  2.511141593E+01  3.051710335E+01  4.353532773E+01  5.879797248E+01  1.168007728E-06  0.00000E+00  9.000E+00
#rwgt            1           1   4.3883127935704799E-002          10      351815           0
</event>
<event>
      5   9999  3.79277E-02  1.30941E+01 -1.00000E+00  1.83130E-01
      21    -1     0     0   502   501  0.000000000E+00  0.000000000E+00  3.349177563E+02  3.349177563E+02  0.000000000E+00  0.00000E+00  9.000E+00
       2    -1     0     0   501     0  0.000000000E+00  0.000000000E+00 -2.582306280E+02  2.582306280E+02  0.000000000E+00  0.00000E+00  9.000E+00
      25     1     1     2     0     0  7.216064250E+01  4.291918533E+01 -6.259746406E+01  1.630725523E+02  1.250000000E+02  0.00000E+00  9.000E+00
      25     1     1     2     0     0 -8.254465807E+01 -3.494251714E+01  2.635336944E+02  3.051386704E+02  1.250000000E+02  0.00000E+00  9.000E+00
       2     1     1     2   502     0  1.038401557E+01 -7.976668183E+00 -1.242491020E+02  1.249371617E+02  1.348699152E-06  0.00000E+00  9.000E+00
#rwgt            1           1   4.2730939743857971E-002          10      351892           0
</event>
<event>
      5   9999  3.79277E-02  7.89023E+00 -1.00000E+00  2.08458E-01
      21    -1     0     0   502   501  0.000000000E+00  0.000000000E+00  5.382509984E+02  5.382509984E+02  0.000000000E+00  0.00000E+00  9.000E+00
      21    -1     0     0   511   502  0.000000000E+00  0.000000000E+00 -1.330823356E+02  1.330823356E+02  0.000000000E+00  0.00000E+00  9.000E+00
      25     1     1     2     0     0 -1.753354514E+02 -6.493701899E+01  3.791265815E+02  4.408188990E+02  1.250000000E+02  0.00000E+00  9.000E+00
      25     1     1     2     0     0  1.686382140E+02  6.910867901E+01  2.666190566E+01  2.225998966E+02  1.250000000E+02  0.00000E+00  9.000E+00
      21     1     1     2   511   501  6.697237353E+00 -4.171660020E+00 -6.198244102E-01  7.914538381E+00  1.125012999E-07  0.00000E+00  9.000E+00
#rwgt            1           1   4.3437533710747364E-002          10      352109           0
</event>
<event>
      5   9999  3.79277E-02  3.89851E+01 -1.00000E+00  1.45536E-01
      21    -1     0     0   502   501  0.000000000E+00  0.000000000E+00  1.736710781E+02  1.736710781E+02  0.000000000E+00  0.00000E+00  9.000E+00
      21    -1     0     0   512   502  0.000000000E+00  0.000000000E+00 -3.429214986E+02  3.429214986E+02  0.000000000E+00  0.00000E+00  9.000E+00
      25     1     1     2     0     0 -3.972060847E+01 -1.622531941E+02 -1.255387058E+02  2.434929001E+02  1.250000000E+02  0.00000E+00  9.000E+00
      25     1     1     2     0     0  8.891126575E+00  1.861149331E+02 -1.536360001E+01  2.248974448E+02  1.250000000E+02  0.00000E+00  9.000E+00
      21     1     1     2   512   501  3.082948190E+01 -2.386173898E+01 -2.834811463E+01  4.820223174E+01  5.840038640E-07  0.00000E+00  9.000E+00
#rwgt            1           1   3.0628555548204046E-002          10      352486           0
</event>
<event>
      5   9999  3.79277E-02  3.42051E+01 -1.00000E+00  1.49185E-01
      21    -1     0     0   502   501  0.000000000E+00  0.000000000E+00  8.468539845E+01  8.468539845E+01  0.000000000E+00  0.00000E+00  9.000E+00
       2    -1     0     0   501     0  0.000000000E+00  0.000000000E+00 -6.946218509E+02  6.946218509E+02  0.000000000E+00  0.00000E+00  9.000E+00
      25     1     1     2     0     0 -3.620911037E+01  7.435137182E+01 -1.542973514E+01  1.506728340E+02  1.250000000E+02  0.00000E+00  9.000E+00
      25     1     1     2     0     0  2.637456320E+01 -1.071121738E+02 -5.302533903E+02  5.558437670E+02  1.250000000E+02  0.00000E+00  9.000E+00
       2     1     1     2   502     0  9.834547167E+00  3.276080201E+01 -6.425332705E+01  7.279064846E+01  9.536743164E-07  0.00000E+00  9.000E+00
#rwgt            1           1   3.6352623272410303E-002          10      352591           0
</event>
<event>
      5   9999  3.79277E-02  4.14933E+01 -1.00000E+00  1.43860E-01
      21    -1     0     0   511   501  0.000000000E+00  0.000000000E+00  4.251610610E+02  4.251610610E+02  0.000000000E+00  0.00000E+00  9.000E+00
      21    -1     0     0   501   502  0.000000000E+00  0.000000000E+00 -1.073092160E+02  1.073092160E+02  0.000000000E+00  0.00000E+00  9.000E+00
      25     1     1     2     0     0 -7.575070303E+01  9.666730894E+01  4.129582588E+01  1.800363376E+02  1.250000000E+02  0.00000E+00  9.000E+00
      25     1     1     2     0     0  3.431718272E+01 -9.889348851E+01  1.588605927E+02  2.276384831E+02  1.250000000E+02  0.00000E+00  9.000E+00
      21     1     1     2   511   502  4.143352031E+01  2.226179571E+00  1.176954264E+02  1.247954562E+02  0.000000000E+00  0.00000E+00  9.000E+00
#rwgt            1           1   3.9253587788409011E-002          10      352863           0
</event>
<event>
      5   9999  3.79277E-02  1.78788E+01 -1.00000E+00  1.70489E-01
       2    -1     0     0   502     0  0.000000000E+00  0.000000000E+00  3.289018315E+03  3.289018315E+03  0.000000000E+00  0.00000E+00  9.000E+00
      21    -1     0     0   501   502  0.000000000E+00  0.000000000E+00 -1.010021361E+02  1.010021361E+02  0.000000000E+00  0.00000E+00  9.000E+00
      25     1     1     2     0     0 -5.544301384E+01 -2.309361638E+02  1.141651869E+02  2.916575550E+02  1.250000000E+02  0.00000E+00  9.000E+00
      25     1     1     2     0     0  7.323635270E+01  2.326820390E+02  1.526792209E+03  1.551200807E+03  1.250000000E+02  0.00000E+00  9.000E+00
       2     1     1     2   501     0 -1.779333885E+01 -1.745875264E+00  1.547058782E+03  1.547162088E+03  3.051757812E-05  0.00000E+00  9.000E+00
#rwgt            1           1   3.3863939615166289E-002          10      352977           0
</event>
<event>
      5   9999  3.79277E-02  2.96620E+01 -1.00000E+00  1.53382E-01
      21    -1     0     0   511   501  0.000000000E+00  0.000000000E+00  3.767395100E+02  3.767395100E+02  0.000000000E+00  0.00000E+00  9.000E+00
      21    -1     0     0   501   502  0.000000000E+00  0.000000000E+00 -5.020096805E+02  5.020096805E+02  0.000000000E+00  0.00000E+00  9.000E+00
      25     1     1     2     0     0 -1.070122564E+02  1.335197389E+02  3.046505824E+01  2.140847110E+02  1.250000000E+02  0.00000E+00  9.000E+00
      25     1     1     2     0     0  1.147107018E+02 -1.621653090E+02 -3.755523119E+02  4.428551361E+02  1.250000000E+02  0.00000E+00  9.000E+00
      21     1     1     2   511   502 -7.698445423E+00  2.864557011E+01  2.198170832E+02  2.218093434E+02  0.000000000E+00  0.00000E+00  9.000E+00
#rwgt            1           1   4.4678250136032112E-002          10      353231           0
</event>
<event>
      5   9999  3.79277E-02  5.37292E+01 -1.00000E+00  1.37316E-01
      21    -1     0     0   502   501  0.000000000E+00  0.000000000E+00  9.676397845E+01  9.676397845E+01  0.000000000E+00  0.00000E+00  9.000E+00
      21    -1     0     0   501   512  0.000000000E+00  0.000000000E+00 -5.544580487E+02  5.544580487E+02  0.000000000E+00  0.00000E+00  9.000E+00
      25     1     1     2     0     0  1.014295712E+02  4.786078903E+01 -1.167369866E+02  2.045266170E+02  1.250000000E+02  0.00000E+00  9.000E+00
      25     1     1     2     0     0 -1.534366230E+02 -6.135499983E+01 -1.716423290E+02  2.690600721E+02  1.250000000E+02  0.00000E+00  9.000E+00
      21     1     1     2   502   512  5.200705189E+01  1.349421080E+01 -1.693147547E+02  1.776353381E+02  0.000000000E+00  0.00000E+00  9.000E+00
#rwgt            1           1   3.8381522937899440E-002          10      353381           0
</event>
<event>
      5   9999  3.79277E-02  5.34569E+01 -1.00000E+00  1.37439E-01
      21    -1     0     0   502   511  0.000000000E+00  0.000000000E+00  1.023556300E+02  1.023556300E+02  0.000000000E+00  0.00000E+00  9.000E+00
      21    -1     0     0   501   502  0.000000000E+00  0.000000000E+00 -8.448988553E+02  8.448988553E+02  0.000000000E+00  0.00000E+00  9.000E+00
      25     1     1     2     0     0  1.754922839E+02  1.513575334E+02 -3.455933799E+02  4.344725870E+02  1.250000000E+02  0.00000E+00  9.000E+00
      25     1     1     2     0     0 -1.804730558E+02 -9.813316956E+01 -3.909554013E+02  4.589899439E+02  1.250000000E+02  0.00000E+00  9.000E+00
      21     1     1     2   501   511  4.980771875E+00 -5.322436384E+01 -5.994444206E+00  5.379195438E+01  5.527507362E-07  0.00000E+00  9.000E+00
#rwgt            1           1   2.9184057875182082E-002          10      353474           0
</event>
<event>
      5   9999  3.79277E-02  2.95465E+01 -1.00000E+00  1.53501E-01
      21    -1     0     0   502   512  0.000000000E+00  0.000000000E+00  1.752113632E+02  1.752113632E+02  0.000000000E+00  0.00000E+00  9.000E+00
      21    -1     0     0   501   502  0.000000000E+00  0.000000000E+00 -4.860496460E+02  4.860496460E+02  0.000000000E+00  0.00000E+00  9.000E+00
      25     1     1     2     0     0 -2.232539464E+01 -2.242533019E+02 -3.012582696E+02  3.964461018E+02  1.250000000E+02  0.00000E+00  9.000E+00
      25     1     1     2     0     0  3.234237239E+01  1.964566588E+02 -9.132330031E+00  2.352650575E+02  1.250000000E+02  0.00000E+00  9.000E+00
      21     1     1     2   501   512 -1.001697776E+01  2.779664305E+01 -4.476831646E-01  2.954984989E+01  5.837661839E-07  0.00000E+00  9.000E+00
#rwgt            1           1   4.5470719696560032E-002          10      353554           0
</event>
<event>
      5   9999  3.79277E-02  8.98893E+01 -1.00000E+00  1.25946E-01
      21    -1     0     0   502   511  0.000000000E+00  0.000000000E+00  6.347785690E+02  6.347785690E+02  0.000000000E+00  0.00000E+00  9.000E+00
      21    -1     0     0   501   502  0.000000000E+00  0.000000000E+00 -1.645497120E+02  1.645497120E+02  0.000000000E+00  0.00000E+00  9.000E+00
      25     1     1     2     0     0  4.076619017E+01 -3.223467817E+01  4.739812730E+02  4.929342795E+02  1.250000000E+02  0.00000E+00  9.000E+00
      25     1     1     2     0     0 -9.336145754E+01 -4.066134664E+01 -8.758231558E+01  1.834812494E+02  1.250000000E+02  0.00000E+00  9.000E+00
      21     1     1     2   501   511  5.259526738E+01  7.289602481E+01  8.382989955E+01  1.229127522E+02  2.132480600E-06  0.00000E+00  9.000E+00
#rwgt            1           1   3.6757347152795015E-002          10      353730           0
</event>
<event>
      5   9999  3.79277E-02  7.42134E+00 -1.00000E+00  2.12027E-01
      21    -1     0     0   502   501  0.000000000E+00  0.000000000E+00  5.617735923E+02  5.617735923E+02  0.000000000E+00  0.00000E+00  9.000E+00
      21    -1     0     0   512   502  0.000000000E+00  0.000000000E+00 -1.581581161E+02  1.581581161E+02  0.000000000E+00  0.00000E+00  9.000E+00
      25     1     1     2     0     0  1.980281661E+02  7.927114010E+01  1.640496345E+01  2.477764941E+02  1.250000000E+02  0.00000E+00  9.000E+00
      25     1     1     2     0     0 -1.916009183E+02 -7.556078329E+01  3.941779470E+02  4.619757545E+02  1.250000000E+02  0.00000E+00  9.000E+00
      21     1     1     2   512   501 -6.427247775E+00 -3.710356811E+00 -6.967434172E+00  1.017945974E+01  1.192092896E-07  0.00000E+00  9.000E+00
#rwgt            1           1   4.0913299770977768E-002          10      353804           0
</event>
<event>
      5   9999  3.79277E-02  5.52703E+01 -1.00000E+00  1.36637E-01
      21    -1     0     0   502   501  0.000000000E+00  0.000000000E+00  1.180578334E+02  1.180578334E+02  0.000000000E+00  0.00000E+00  9.000E+00
      21    -1     0     0   501   511  0.000000000E+00  0.000000000E+00 -7.162948375E+02  7.162948375E+02  0.000000000E+00  0.00000E+00  9.000E+00
      25     1     1     2     0     0 -4.553374742E+00 -1.154316910E+01  5.396661686E+01  1.367163988E+02  1.250000000E+02  0.00000E+00  9.000E+00
      25     1     1     2     0     0  5.367009913E+01  3.688792410E+01 -2.158317285E+02  2.577780703E+02  1.250000000E+02  0.00000E+00  9.000E+00
      21     1     1     2   502   511 -4.911672439E+01 -2.534475500E+01 -4.363718924E+02  4.398582018E+02  5.394796609E-06  0.00000E+00  9.000E+00
#rwgt            1           1   6.0646867734297380E-002          10      354165           0
</event>
<event>
      5   9999  3.79277E-02  2.10587E+01 -1.00000E+00  1.64542E-01
      21    -1     0     0   502   501  0.000000000E+00  0.000000000E+00  3.331874282E+02  3.331874282E+02  0.000000000E+00  0.00000E+00  9.000E+00
      21    -1     0     0   501   512  0.000000000E+00  0.000000000E+00 -3.511408021E+02  3.511408021E+02  0.000000000E+00  0.00000E+00  9.000E+00
      25     1     1     2     0     0 -9.738684334E+01  2.826952637E+01 -2.160704568E+02  2.694342326E+02  1.250000000E+02  0.00000E+00  9.000E+00
      25     1     1     2     0     0  7.636652609E+01 -2.954036773E+01  2.869887188E+02  3.235614383E+02  1.250000000E+02  0.00000E+00  9.000E+00
      21     1     1     2   502   512  2.102031725E+01  1.270841355E+00 -8.887163583E+01  9.133255953E+01  1.651812370E-06  0.00000E+00  9.000E+00
#rwgt            1           1   2.7392571609929726E-002          10      354332           0
</event>
<event>
      5   9999  3.79277E-02  1.71408E+01 -1.00000E+00  1.72094E-01
      21    -1     0     0   502   511  0.000000000E+00  0.000000000E+00  1.204368975E+02  1.204368975E+02  0.000000000E+00  0.00000E+00  9.000E+00
      21    -1     0     0   501   502  0.000000000E+00  0.000000000E+00 -2.644182018E+02  2.644182018E+02  0.000000000E+00  0.00000E+00  9.000E+00
      25     1     1     2     0     0 -3.250830208E+01  1.078881512E+02 -1.235977636E+02  2.088014608E+02  1.250000000E+02  0.00000E+00  9.000E+00
      25     1     1     2     0     0  2.761906176E+01 -9.145941442E+01 -1.479060020E+01  1.580234125E+02  1.250000000E+02  0.00000E+00  9.000E+00
      21     1     1     2   501   511  4.889240321E+00 -1.642873681E+01 -5.592940501E+00  1.803022594E+01  1.032382731E-07  0.00000E+00  9.000E+00
#rwgt            1           1   4.4933544101419566E-002          10      354698           0
</event>
<event>
      5   9999  3.79277E-02  7.90488E+01 -1.00000E+00  1.28601E-01
       2    -1     0     0   502     0  0.000000000E+00  0.000000000E+00  2.095703030E+03  2.095703030E+03  0.000000000E+00  0.00000E+00  9.000E+00
      21    -1     0     0   501   502  0.000000000E+00  0.000000000E+00 -2.646351932E+02  2.646351932E+02  0.000000000E+00  0.00000E+00  9.000E+00
      25     1     1     2     0     0 -1.754277636E+02  2.112414219E+02  5.281650027E+01  3.062881344E+02  1.250000000E+02  0.00000E+00  9.000E+00
      25     1     1     2     0     0  1.085054583E+02 -1.691687353E+02 -3.484677535E+01  2.392295827E+02  1.250000000E+02  0.00000E+00  9.000E+00
       2     1     1     2   501     0  6.692230528E+01 -4.207268664E+01  1.813098112E+03  1.814820506E+03  3.051757812E-05  0.00000E+00  9.000E+00
#rwgt            1           1   3.2611505523673111E-002          10      354864           0
</event>
<event>
      5   9999  3.79277E-02  9.65646E+01 -1.00000E+00  1.24515E-01
      21    -1     0     0   502   501  0.000000000E+00  0.000000000E+00  2.491769124E+02  2.491769124E+02  0.000000000E+00  0.00000E+00  9.000E+00
      21    -1     0     0   501   511  0.000000000E+00  0.000000000E+00 -4.748740052E+02  4.748740052E+02  0.000000000E+00  0.00000E+00  9.000E+00
      25     1     1     2     0     0 -1.612124744E+02 -2.168552745E+02  4.659851181E+01  3.013504493E+02  1.250000000E+02  0.00000E+00  9.000E+00
      25     1     1     2     0     0  1.025687707E+02  1.401373756E+02 -2.384451102E+02  3.203746360E+02  1.250000000E+02  0.00000E+00  9.000E+00
      21     1     1     2   502   511  5.864370370E+01  7.671789891E+01 -3.385049435E+01  1.023258323E+02  1.261592536E-06  0.00000E+00  9.000E+00
#rwgt            1           1   3.6337898983779586E-002          10      354923           0
</event>
<event>
      5   9999  3.79277E-02  1.92258E+02 -1.00000E+00  1.12276E-01
      21    -1     0     0   502   501  0.000000000E+00  0.000000000E+00  8.475251086E+02  8.475251086E+02  0.000000000E+00  0.00000E+00  9.000E+00
       2    -1     0     0   501     0  0.000000000E+00  0.000000000E+00 -5.868793895E+02  5.868793895E+02  0.000000000E+00  0.00000E+00  9.000E+00
      25     1     1     2     0     0 -3.185824988E+02  1.254058892E+02 -6.844725104E-01  3.644817062E+02  1.250000000E+02  0.00000E+00  9.000E+00
      25     1     1     2     0     0  3.712190412E+02  5.950614153E+01  5.772303670E+02  7.001174573E+02  1.250000000E+02  0.00000E+00  9.000E+00
       2     1     1     2   502     0 -5.263654237E+01 -1.849120308E+02 -3.159001754E+02  3.698053346E+02  5.394796609E-06  0.00000E+00  9.000E+00
#rwgt            1           1   1.7138158127059416E-002          10      355063           0
</event>
<event>
      5   9999  3.79277E-02  1.24177E+02 -1.00000E+00  1.19741E-01
      21    -1     0     0   502   501  0.000000000E+00  0.000000000E+00  1.398486626E+03  1.398486626E+03  0.000000000E+00  0.00000E+00  9.000E+00
      21    -1     0     0   501   511  0.000000000E+00  0.000000000E+00 -1.646213965E+02  1.646213965E+02  0.000000000E+00  0.00000E+00  9.000E+00
      25     1     1     2     0     0  2.458927172E+02 -1.587792089E+02  5.908983230E+02  6.711630902E+02  1.250000000E+02  0.00000E+00  9.000E+00
      25     1     1     2     0     0 -1.243620552E+02  1.332808361E+02  7.150021438E+02  7.483867768E+02  1.250000000E+02  0.00000E+00  9.000E+00
      21     1     1     2   502   511 -1.215306620E+02  2.549837282E+01 -7.203523685E+01  1.435581560E+02  1.907348633E-06  0.00000E+00  9.000E+00
#rwgt            1           1   3.9687392934625247E-002          10      355208           0
</event>
<event>
      5   9999  3.79277E-02  1.40449E+02 -1.00000E+00  1.17537E-01
      21    -1     0     0   502   501  0.000000000E+00  0.000000000E+00  8.027798096E+02  8.027798096E+02  0.000000000E+00  0.00000E+00  9.000E+00
      21    -1     0     0   501   512  0.000000000E+00  0.000000000E+00 -2.791478332E+02  2.791478332E+02  0.000000000E+00  0.00000E+00  9.000E+00
      25     1     1     2     0     0 -8.864832724E+01 -2.443231565E+01  6.860006091E+02  7.033329934E+02  1.250000000E+02  0.00000E+00  9.000E+00
      25     1     1     2     0     0 -5.004339104E+01  4.658022915E+01 -1.879366780E+02  2.358373458E+02  1.250000000E+02  0.00000E+00  9.000E+00
      21     1     1     2   502   512  1.386917183E+02 -2.214791350E+01  2.556804535E+01  1.427573036E+02  2.523185073E-06  0.00000E+00  9.000E+00
#rwgt            1           1   6.1484100554577661E-002          10      355260           0
</event>
<event>
      5   9999  3.79277E-02  1.07153E+01 -1.00000E+00  1.92351E-01
      21    -1     0     0   511   501  0.000000000E+00  0.000000000E+00  3.979495032E+02  3.979495032E+02  0.000000000E+00  0.00000E+00  9.000E+00
      21    -1     0     0   501   502  0.000000000E+00  0.000000000E+00 -1.254282293E+02  1.254282293E+02  0.000000000E+00  0.00000E+00  9.000E+00
      25     1     1     2     0     0 -2.414220215E+01 -1.540679989E+02  3.274792170E+01  2.025270860E+02  1.250000000E+02  0.00000E+00  9.000E+00
      25     1     1     2     0     0  1.444949726E+01  1.586362756E+02  2.274942933E+02  3.045536232E+02  1.250000000E+02  0.00000E+00  9.000E+00
      21     1     1     2   511   502  9.692704891E+00 -4.568276743E+00  1.227905891E+01  1.629702329E+01  1.685873940E-07  0.00000E+00  9.000E+00
#rwgt            1           1  0.29611682301210623               10      355393           0
</event>
<event>
      5   9999  3.79277E-02  5.21046E+01 -1.00000E+00  1.38061E-01
       2    -1     0     0   502     0  0.000000000E+00  0.000000000E+00  4.803177470E+02  4.803177470E+02  0.000000000E+00  0.00000E+00  9.000E+00
      21    -1     0     0   501   502  0.000000000E+00  0.000000000E+00 -3.371077833E+02  3.371077833E+02  0.000000000E+00  0.00000E+00  9.000E+00
      25     1     1     2     0     0 -2.309746366E+01  1.153232192E+02 -2.945289537E+00  1.716584179E+02  1.250000000E+02  0.00000E+00  9.000E+00
      25     1     1     2     0     0 -1.249791300E+01 -1.533740183E+02 -2.082635714E+02  2.875386973E+02  1.250000000E+02  0.00000E+00  9.000E+00
       2     1     1     2   501     0  3.559537665E+01  3.805079909E+01  3.544188246E+02  3.582284151E+02  3.814697266E-06  0.00000E+00  9.000E+00
#rwgt            1           1   4.8174339957103490E-002          10      355667           0
</event>
<event>
      5   9999  3.79277E-02  3.71149E+01 -1.00000E+00  1.46886E-01
      21    -1     0     0   502   501  0.000000000E+00  0.000000000E+00  1.097837433E+02  1.097837433E+02  0.000000000E+00  0.00000E+00  9.000E+00
      21    -1     0     0   511   502  0.000000000E+00  0.000000000E+00 -7.312071171E+02  7.312071171E+02  0.000000000E+00  0.00000E+00  9.000E+00
      25     1     1     2     0     0 -1.881596673E+02 -2.407056270E+01 -9.789770512E+01  2.473710029E+02  1.250000000E+02  0.00000E+00  9.000E+00
      25     1     1     2     0     0  1.525944817E+02  3.468334379E+01 -2.635902124E+02  3.310480482E+02  1.250000000E+02  0.00000E+00  9.000E+00
      21     1     1     2   511   501  3.556518564E+01 -1.061278109E+01 -2.599354563E+02  2.625718092E+02  0.000000000E+00  0.00000E+00  9.000E+00
#rwgt            1           1   4.1635772257455517E-002          10      355775           0
</event>
<event>
      5   9999  3.79277E-02  3.06060E+01 -1.00000E+00  1.52439E-01
      21    -1     0     0   502   501  0.000000000E+00  0.000000000E+00  1.915333906E+02  1.915333906E+02  0.000000000E+00  0.00000E+00  9.000E+00
      21    -1     0     0   501   512  0.000000000E+00  0.000000000E+00 -3.466729588E+02  3.466729588E+02  0.000000000E+00  0.00000E+00  9.000E+00
      25     1     1     2     0     0 -1.404399039E+02  1.028418035E+02 -5.549282140E+01  2.213690502E+02  1.250000000E+02  0.00000E+00  9.000E+00
      25     1     1     2     0     0  1.392621047E+02 -1.334251134E+02 -1.904035768E+01  2.306159793E+02  1.250000000E+02  0.00000E+00  9.000E+00
      21     1     1     2   502   512  1.177799139E+00  3.058330985E+01 -8.060638909E+01  8.622131995E+01  0.000000000E+00  0.00000E+00  9.000E+00
#rwgt            1           1   3.2301434338643902E-002          10      355880           0
</event>
<event>
      5   9999  3.79277E-02  8.44396E+00 -1.00000E+00  2.04650E-01
       2    -1     0     0   502     0  0.000000000E+00  0.000000000E+00  1.809684398E+03  1.809684398E+03  0.000000000E+00  0.00000E+00  9.000E+00
      21    -1     0     0   501   502  0.000000000E+00  0.000000000E+00 -2.449600246E+02  2.449600246E+02  0.000000000E+00  0.00000E+00  9.000E+00
      25     1     1     2     0     0  2.563722438E+02  1.100987432E+02  1.199997665E+02  3.284408693E+02  1.250000000E+02  0.00000E+00  9.000E+00
      25     1     1     2     0     0 -2.603778097E+02 -1.026653150E+02  2.619527614E+01  3.076490910E+02  1.250000000E+02  0.00000E+00  9.000E+00
       2     1     1     2   501     0  4.005565877E+00 -7.433428207E+00  1.418529331E+03  1.418554462E+03  0.000000000E+00  0.00000E+00  9.000E+00
#rwgt            1           1   1.7694755318731391E-002          10      355963           0
</event>
<event>
      5   9999  3.79277E-02  2.00371E+01 -1.00000E+00  1.66303E-01
      21    -1     0     0   502   501  0.000000000E+00  0.000000000E+00  5.031897133E+01  5.031897133E+01  0.000000000E+00  0.00000E+00  9.000E+00
      21    -1     0     0   501   511  0.000000000E+00  0.000000000E+00 -1.110842991E+03  1.110842991E+03  0.000000000E+00  0.00000E+00  9.000E+00
      25     1     1     2     0     0  1.489680558E+02  2.235186819E+01 -4.282419825E+02  4.708580288E+02  1.250000000E+02  0.00000E+00  9.000E+00
      25     1     1     2     0     0 -1.443711425E+02 -4.185447797E+01 -3.041580261E+02  3.615687057E+02  1.250000000E+02  0.00000E+00  9.000E+00
      21     1     1     2   502   511 -4.596913344E+00  1.950260978E+01 -3.281240110E+02  3.287352278E+02  3.814697266E-06  0.00000E+00  9.000E+00
#rwgt            1           1   3.6252684950737565E-002          10      356379           0
</event>
<event>
      5   9999  3.79277E-02  6.31432E+01 -1.00000E+00  1.33529E-01
      21    -1     0     0   512   501  0.000000000E+00  0.000000000E+00  4.449378487E+02  4.449378487E+02  0.000000000E+00  0.00000E+00  9.000E+00
      21    -1     0     0   501   502  0.000000000E+00  0.000000000E+00 -4.466975260E+02  4.466975260E+02  0.000000000E+00  0.00000E+00  9.000E+00
      25     1     1     2     0     0 -6.550090671E+01 -1.119749243E+02 -2.096637757E+02  2.764283836E+02  1.250000000E+02  0.00000E+00  9.000E+00
      25     1     1     2     0     0  3.930181042E+01  1.694263387E+02 -1.437353101E+02  2.579433192E+02  1.250000000E+02  0.00000E+00  9.000E+00
      21     1     1     2   512   502  2.619909629E+01 -5.745141442E+01  3.516394085E+02  3.572636719E+02  3.814697266E-06  0.00000E+00  9.000E+00
#rwgt            1           1   4.4576138708762758E-002          10      356754           0
</event>
<event>
      5   9999  3.79277E-02  4.25781E+01 -1.00000E+00  1.43178E-01
      21    -1     0     0   511   501  0.000000000E+00  0.000000000E+00  3.498268775E+02  3.498268775E+02  0.000000000E+00  0.00000E+00  9.000E+00
      21    -1     0     0   501   502  0.000000000E+00  0.000000000E+00 -6.551419694E+02  6.551419694E+02  0.000000000E+00  0.00000E+00  9.000E+00
      25     1     1     2     0     0  2.714897909E+02  2.527506293E+02 -8.749497231E+01  4.010859725E+02  1.250000000E+02  0.00000E+00  9.000E+00
      25     1     1     2     0     0 -3.140313911E+02 -2.545130449E+02 -2.949614510E+02  5.157711336E+02  1.250000000E+02  0.00000E+00  9.000E+00
      21     1     1     2   511   502  4.254160022E+01  1.762415594E+00  7.714133136E+01  8.811174077E+01  9.536743164E-07  0.00000E+00  9.000E+00
#rwgt            1           1   3.7506292995821804E-002          10      356850           0
</event>
<event>
      5   9999  3.79277E-02  1.29701E+02 -1.00000E+00  1.18952E-01
      21    -1     0     0   502   512  0.000000000E+00  0.000000000E+00  6.370586847E+02  6.370586847E+02  0.000000000E+00  0.00000E+00  9.000E+00
      21    -1     0     0   501   502  0.000000000E+00  0.000000000E+00 -1.978982443E+02  1.978982443E+02  0.000000000E+00  0.00000E+00  9.000E+00
      25     1     1     2     0     0  1.487055110E+02 -9.629474629E+00 -3.243655415E+01  1.971881990E+02  1.250000000E+02  0.00000E+00  9.000E+00
      25     1     1     2     0     0 -2.365910084E+02  1.050155110E+02  3.901742139E+02  4.846281873E+02  1.250000000E+02  0.00000E+00  9.000E+00
      21     1     1     2   501   512  8.788549733E+01 -9.538603636E+01  8.142278067E+01  1.531405426E+02  0.000000000E+00  0.00000E+00  9.000E+00
#rwgt            1           1   4.0774302997958423E-002          10      356987           0
</event>
<event>
      5   9999  3.79277E-02  3.84711E+01 -1.00000E+00  1.45898E-01
      21    -1     0     0   502   501  0.000000000E+00  0.000000000E+00  4.825725455E+01  4.825725455E+01  0.000000000E+00  0.00000E+00  9.000E+00
      21    -1     0     0   511   502  0.000000000E+00  0.000000000E+00 -1.516608321E+03  1.516608321E+03  0.000000000E+00  0.00000E+00  9.000E+00
      25     1     1     2     0     0  5.636161310E+01 -2.137288144E+02 -5.635385188E+02  6.181078383E+02  1.250000000E+02  0.00000E+00  9.000E+00
      25     1     1     2     0     0 -7.320690312E+01  1.791417906E+02 -6.625986410E+02  7.015076556E+02  1.250000000E+02  0.00000E+00  9.000E+00
      21     1     1     2   511   501  1.684529001E+01  3.458702379E+01 -2.422139071E+02  2.452500821E+02  3.814697266E-06  0.00000E+00  9.000E+00
#rwgt            1           1   4.1211625211717257E-002          10      357084           0
</event>
<event>
      5   9999  3.79277E-02  7.59542E+01 -1.00000E+00  1.29450E-01
      21    -1     0     0   502   501  0.000000000E+00  0.000000000E+00  3.172173243E+02  3.172173243E+02  0.000000000E+00  0.00000E+00  9.000E+00
       1    -1     0     0   501     0  0.000000000E+00  0.000000000E+00 -1.653971481E+03  1.653971481E+03  0.000000000E+00  0.00000E+00  9.000E+00
      25     1     1     2     0     0 -7.736827104E+01 -1.694132791E+02 -2.688565592E+01  2.259082712E+02  1.250000000E+02  0.00000E+00  9.000E+00
      25     1     1     2     0     0  6.659896061E+00  1.416756933E+02  1.755087817E+02  2.579625724E+02  1.250000000E+02  0.00000E+00  9.000E+00
       1     1     1     2   502     0  7.070837497E+01  2.773758583E+01 -1.485377283E+03  1.487317962E+03  0.000000000E+00  0.00000E+00  9.000E+00
#rwgt            1           1   4.7913704549477562E-002          10      357262           0
</event>
<event>
      5   9999  3.79277E-02  7.17390E+01 -1.00000E+00  1.30683E-01
       1    -1     0     0   502     0  0.000000000E+00  0.000000000E+00  4.247900453E+02  4.247900453E+02  0.000000000E+00  0.00000E+00  9.000E+00
      21    -1     0     0   501   502  0.000000000E+00  0.000000000E+00 -1.265381790E+03  1.265381790E+03  0.000000000E+00  0.00000E+00  9.000E+00
      25     1     1     2     0     0  1.260822075E+02 -2.009559002E+02 -5.383368430E+02  6.014246033E+02  1.250000000E+02  0.00000E+00  9.000E+00
      25     1     1     2     0     0 -1.919954619E+02  1.726376983E+02 -6.622306173E+02  7.216927482E+02  1.250000000E+02  0.00000E+00  9.000E+00
       1     1     1     2   501     0  6.591325441E+01  2.831820190E+01  3.599757160E+02  3.670544834E+02  7.629394531E-06  0.00000E+00  9.000E+00
#rwgt            1           1   3.3332414884973301E-002          10      357349           0
</event>
<event>
      5   9999  3.79277E-02  4.73753E+01 -1.00000E+00  1.40425E-01
       2    -1     0     0   502     0  0.000000000E+00  0.000000000E+00  2.375771862E+03  2.375771862E+03  0.000000000E+00  0.00000E+00  9.000E+00
      21    -1     0     0   501   502  0.000000000E+00  0.000000000E+00 -3.987951408E+01  3.987951408E+01  0.000000000E+00  0.00000E+00  9.000E+00
      25     1     1     2     0     0  1.332305272E+02 -5.618358872E+01  1.128715152E+03  1.144783762E+03  1.250000000E+02  0.00000E+00  9.000E+00
      25     1     1     2     0     0 -1.794933340E+02  4.597714124E+01  3.694271118E+02  4.317790470E+02  1.250000000E+02  0.00000E+00  9.000E+00
       2     1     1     2   501     0  4.626280679E+01  1.020644748E+01  8.377500843E+02  8.390885666E+02  1.078959322E-05  0.00000E+00  9.000E+00
#rwgt            1           1   3.7521130807316769E-002          10      357480           0
</event>
<event>
      5   9999  3.79277E-02  2.89593E+01 -1.00000E+00  1.54112E-01
      21    -1     0     0   502   501  0.000000000E+00  0.000000000E+00  4.573479857E+01  4.573479857E+01  0.000000000E+00  0.00000E+00  9.000E+00
      21    -1     0     0   501   511  0.000000000E+00  0.000000000E+00 -8.798229354E+02  8.798229354E+02  0.000000000E+00  0.00000E+00  9.000E+00
      25     1     1     2     0     0  7.390607168E+01  4.096423320E+01 -1.289446279E+02  1.984739099E+02  1.250000000E+02  0.00000E+00  9.000E+00
      25     1     1     2     0     0 -4.980175677E+01 -5.701495239E+01 -5.402150409E+02  5.596322098E+02  1.250000000E+02  0.00000E+00  9.000E+00
      21     1     1     2   502   511 -2.410431491E+01  1.605071920E+01 -1.649284680E+02  1.674516143E+02  0.000000000E+00  0.00000E+00  9.000E+00
#rwgt            1           1   4.4416617429732963E-002          10      357628           0
</event>
<event>
      5   9999  3.79277E-02  1.09685E+02 -1.00000E+00  1.22049E-01
      -1    -1     0     0     0   501  0.000000000E+00  0.000000000E+00  6.112585733E+02  6.112585733E+02  0.000000000E+00  0.00000E+00  9.000E+00
      21    -1     0     0   501   502  0.000000000E+00  0.000000000E+00 -1.862939926E+02  1.862939926E+02  0.000000000E+00  0.00000E+00  9.000E+00
      25     1     1     2     0     0  4.051078514E+01  1.200452235E+02 -8.274634795E+01  1.962751576E+02  1.250000000E+02  0.00000E+00  9.000E+00
      25     1     1     2     0     0  6.894983584E+01 -1.130391921E+02  1.814073032E+02  2.570321934E+02  1.250000000E+02  0.00000E+00  9.000E+00
      -1     1     1     2     0   502 -1.094606210E+02 -7.006031393E+00  3.263036254E+02  3.442452149E+02  0.000000000E+00  0.00000E+00  9.000E+00
#rwgt            1           1   3.9168244683380482E-002          10      357738           0
</event>
<event>
      5   9999  3.79277E-02  2.80444E+01 -1.00000E+00  1.55101E-01
      21    -1     0     0   502   501  0.000000000E+00  0.000000000E+00  3.240741701E+02  3.240741701E+02  0.000000000E+00  0.00000E+00  9.000E+00
      21    -1     0     0   501   511  0.000000000E+00  0.000000000E+00 -1.423685118E+02  1.423685118E+02  0.000000000E+00  0.00000E+00  9.000E+00
      25     1     1     2     0     0 -3.270016743E+01  9.892882752E+01 -2.134482893E+01  1.641243906E+02  1.250000000E+02  0.00000E+00  9.000E+00
      25     1     1     2     0     0  2.538899862E+01 -1.260035012E+02  2.071603910E+02  2.739742892E+02  1.250000000E+02  0.00000E+00  9.000E+00
      21     1     1     2   502   511  7.311168814E+00  2.707467368E+01 -4.109903732E+00  2.834400206E+01  6.391886052E-07  0.00000E+00  9.000E+00
#rwgt            1           1   5.6115006147346115E-003          10      357947           0
</event>
<event>
      5   9999  3.79277E-02  1.29513E+01 -1.00000E+00  1.83611E-01
      21    -1     0     0   502   512  0.000000000E+00  0.000000000E+00  6.681552117E+02  6.681552117E+02  0.000000000E+00  0.00000E+00  9.000E+00
      21    -1     0     0   501   502  0.000000000E+00  0.000000000E+00 -5.756740364E+01  5.756740364E+01  0.000000000E+00  0.00000E+00  9.000E+00
      25     1     1     2     0     0  9.999554253E+01 -9.788429393E+01  3.410518629E+02  3.892580336E+02  1.250000000E+02  0.00000E+00  9.000E+00
      25     1     1     2     0     0 -1.092509474E+02  8.882489137E+01  2.487327232E+02  3.119592897E+02  1.250000000E+02  0.00000E+00  9.000E+00
      21     1     1     2   501   512  9.255404894E+00  9.059402561E+00  2.080322201E+01  2.450529209E+01  3.371747881E-07  0.00000E+00  9.000E+00
#rwgt            1           1   4.0480480211583750E-002          10      358131           0
</event>
<event>
      5   9999  3.79277E-02  6.76887E+01 -1.00000E+00  1.31963E-01
      21    -1     0     0   502   511  0.000000000E+00  0.000000000E+00  2.269509324E+02  2.269509324E+02  0.000000000E+00  0.00000E+00  9.000E+00
      21    -1     0     0   501   502  0.000000000E+00  0.000000000E+00 -3.206145672E+02  3.206145672E+02  0.000000000E+00  0.00000E+00  9.000E+00
      25     1     1     2     0     0 -4.745972842E+01  1.092374670E+02 -2.141524311E+02  2.750845575E+02  1.250000000E+02  0.00000E+00  9.000E+00
      25     1     1     2     0     0  3.650978970E-01 -6.061794550E+01  5.479886590E+00  1.390312834E+02  1.250000000E+02  0.00000E+00  9.000E+00
      21     1     1     2   501   511  4.709463053E+01 -4.861952147E+01  1.150089097E+02  1.334496587E+02  1.348699152E-06  0.00000E+00  9.000E+00
#rwgt            2          11   1.1889874571425370E-003          10      358379           0
</event>
<event>
      5   9999  3.79277E-02  5.89295E+01 -1.00000E+00  1.35123E-01
      21    -1     0     0   512   501  0.000000000E+00  0.000000000E+00  1.526707491E+02  1.526707491E+02  0.000000000E+00  0.00000E+00  9.000E+00
      21    -1     0     0   501   502  0.000000000E+00  0.000000000E+00 -9.617979122E+02  9.617979122E+02  0.000000000E+00  0.00000E+00  9.000E+00
      25     1     1     2     0     0 -1.644359493E+02 -2.189648339E+02 -6.011012226E+02  6.722592207E+02  1.250000000E+02  0.00000E+00  9.000E+00
      25     1     1     2     0     0  1.067136906E+02  2.308316874E+02 -2.433382355E+02  3.735098078E+02  1.250000000E+02  0.00000E+00  9.000E+00
      21     1     1     2   512   502  5.772225868E+01 -1.186685353E+01  3.531229511E+01  6.869963279E+01  0.000000000E+00  0.00000E+00  9.000E+00
#rwgt            1           1   3.7651058049464892E-002          10      358489           0
</event>
<event>
      5   9999 -3.79277E-02  6.04567E+01 -1.00000E+00  1.34528E-01
      21    -1     0     0   502   501  0.000000000E+00  0.000000000E+00  5.522614952E+02  5.522614952E+02  0.000000000E+00  0.00000E+00  9.000E+00
      21    -1     0     0   501   511  0.000000000E+00  0.000000000E+00 -2.764335337E+02  2.764335337E+02  0.000000000E+00  0.00000E+00  9.000E+00
      25     1     1     2     0     0 -1.140936774E+02  1.305218533E+02  1.783693815E+02  2.783773656E+02  1.250000000E+02  0.00000E+00  9.000E+00
      25     1     1     2     0     0  1.105167770E+02 -7.017109253E+01  2.936879386E+02  3.449862976E+02  1.250000000E+02  0.00000E+00  9.000E+00
      21     1     1     2   502   511  3.576900471E+00 -6.035076075E+01 -1.962293586E+02  2.053313657E+02  2.697398305E-06  0.00000E+00  9.000E+00
#rwgt            1           1 -0.14001016562465854               10      358676           0
</event>
<event>
      5   9999  3.79277E-02  1.91328E+01 -1.00000E+00  1.67973E-01
      21    -1     0     0   502   501  0.000000000E+00  0.000000000E+00  5.356249150E+02  5.356249150E+02  0.000000000E+00  0.00000E+00  9.000E+00
      21    -1     0     0   501   512  0.000000000E+00  0.000000000E+00 -4.098757277E+02  4.098757277E+02  0.000000000E+00  0.00000E+00  9.000E+00
      25     1     1     2     0     0 -5.764080192E+01  2.169093528E+01  3.769208483E+01  1.443559904E+02  1.250000000E+02  0.00000E+00  9.000E+00
      25     1     1     2     0     0  7.354860124E+01 -1.106054892E+01  4.324317530E+02  4.562389215E+02  1.250000000E+02  0.00000E+00  9.000E+00
      21     1     1     2   502   512 -1.590779932E+01 -1.063038635E+01 -3.443746505E+02  3.449057307E+02  0.000000000E+00  0.00000E+00  9.000E+00
#rwgt            1           1   4.0744894292034893E-002          10      358708           0
</event>
<event>
      5   9999  3.79277E-02  7.69018E+01 -1.00000E+00  1.29185E-01
      21    -1     0     0   502   501  0.000000000E+00  0.000000000E+00  1.423166329E+03  1.423166329E+03  0.000000000E+00  0.00000E+00  9.000E+00
      21    -1     0     0   511   502  0.000000000E+00  0.000000000E+00 -3.896050149E+01  3.896050149E+01  0.000000000E+00  0.00000E+00  9.000E+00
      25     1     1     2     0     0  2.194704794E+00 -7.862509834E+01  8.487443437E+02  8.614979302E+02  1.250000000E+02  0.00000E+00  9.000E+00
      25     1     1     2     0     0  4.980835537E+01  1.352781551E+02  3.292016596E+02  3.804993879E+02  1.250000000E+02  0.00000E+00  9.000E+00
      21     1     1     2   511   501 -5.200306016E+01 -5.665305680E+01  2.062598239E+02  2.201295120E+02  2.697398305E-06  0.00000E+00  9.000E+00
#rwgt            2          11   2.5487479699956256E-003          10      358953           0
</event>
<event>
      5   9999  3.79277E-02  1.53463E+01 -1.00000E+00  1.76455E-01
      21    -1     0     0   502   501  0.000000000E+00  0.000000000E+00  1.700469295E+02  1.700469295E+02  0.000000000E+00  0.00000E+00  9.000E+00
      21    -1     0     0   501   512  0.000000000E+00  0.000000000E+00 -2.569508828E+02  2.569508828E+02  0.000000000E+00  0.00000E+00  9.000E+00
      25     1     1     2     0     0 -2.008152965E+01  6.512315145E+01  1.082741980E+02  1.788647384E+02  1.250000000E+02  0.00000E+00  9.000E+00
      25     1     1     2     0     0  1.993403210E+01 -4.977760986E+01 -1.616537761E+02  2.112631520E+02  1.250000000E+02  0.00000E+00  9.000E+00
      21     1     1     2   502   512  1.474975588E-01 -1.534554159E+01 -3.352437529E+01  3.686992190E+01  0.000000000E+00  0.00000E+00  9.000E+00
#rwgt            1           1   3.0798787759875976E-002          10      359018           0
</event>
<event>
      5   9999  3.79277E-02  3.81804E+01 -1.00000E+00  1.46105E-01
      21    -1     0     0   502   501  0.000000000E+00  0.000000000E+00  5.509724890E+02  5.509724890E+02  0.000000000E+00  0.00000E+00  9.000E+00
      21    -1     0     0   501   511  0.000000000E+00  0.000000000E+00 -3.043159601E+02  3.043159601E+02  0.000000000E+00  0.00000E+00  9.000E+00
      25     1     1     2     0     0  5.218768068E+01 -9.881262895E+01  2.434234874E+02  2.955799112E+02  1.250000000E+02  0.00000E+00  9.000E+00
      25     1     1     2     0     0 -2.990659874E+01  1.298174458E+02  2.502079113E+02  3.097998915E+02  1.250000000E+02  0.00000E+00  9.000E+00
      21     1     1     2   502   511 -2.228108193E+01 -3.100481688E+01 -2.469748698E+02  2.499086465E+02  3.814697266E-06  0.00000E+00  9.000E+00
#rwgt            1           1   1.7271344624868252E-002          10      359487           0
</event>
<event>
      5   9999  3.79277E-02  6.31708E+01 -1.00000E+00  1.33519E-01
      21    -1     0     0   502   501  0.000000000E+00  0.000000000E+00  3.648442348E+02  3.648442348E+02  0.000000000E+00  0.00000E+00  9.000E+00
      21    -1     0     0   512   502  0.000000000E+00  0.000000000E+00 -3.404605112E+02  3.404605112E+02  0.000000000E+00  0.00000E+00  9.000E+00
      25     1     1     2     0     0  1.681182671E+02 -2.330294043E+02 -4.461352536E+01  3.165151207E+02  1.250000000E+02  0.00000E+00  9.000E+00
      25     1     1     2     0     0 -1.186503270E+02  1.937423778E+02  1.392361207E+02  2.943224531E+02  1.250000000E+02  0.00000E+00  9.000E+00
      21     1     1     2   512   501 -4.946794009E+01  3.928702642E+01 -7.023887175E+01  9.446717232E+01  9.536743164E-07  0.00000E+00  9.000E+00
#rwgt            1           1   7.9804086453983278E-002          10      359631           0
</event>
<event>
      5   9999  3.79277E-02  4.83491E+01 -1.00000E+00  1.39913E-01
      21    -1     0     0   502   501  0.000000000E+00  0.000000000E+00  7.205769281E+02  7.205769281E+02  0.000000000E+00  0.00000E+00  9.000E+00
      21    -1     0     0   501   511  0.000000000E+00  0.000000000E+00 -8.229018857E+01  8.229018857E+01  0.000000000E+00  0.00000E+00  9.000E+00
      25     1     1     2     0     0 -2.532570853E+01  1.272913256E+02  8.157978899E+01  1.977997347E+02  1.250000000E+02  0.00000E+00  9.000E+00
      25     1     1     2     0     0  5.472216731E+01 -8.890531249E+01  5.184055193E+02  5.433856390E+02  1.250000000E+02  0.00000E+00  9.000E+00
      21     1     1     2   502   511 -2.939645877E+01 -3.838601306E+01  3.830143127E+01  6.168174304E+01  0.000000000E+00  0.00000E+00  9.000E+00
#rwgt            1           1   4.9333316497738477E-002          10      359871           0
</event>
<event>
      5   9999  3.79277E-02  4.00683E+01 -1.00000E+00  1.44794E-01
      21    -1     0     0   512   501  0.000000000E+00  0.000000000E+00  2.084385718E+02  2.084385718E+02  0.000000000E+00  0.00000E+00  9.000E+00
      21    -1     0     0   501   502  0.000000000E+00  0.000000000E+00 -6.406570671E+02  6.406570671E+02  0.000000000E+00  0.00000E+00  9.000E+00
      25     1     1     2     0     0 -7.363051851E+01 -2.215333095E+02 -2.631766954E-01  2.648084774E+02  1.250000000E+02  0.00000E+00  9.000E+00
      25     1     1     2     0     0  4.531389934E+01  2.498817734E+02 -4.566209708E+02  5.372354801E+02  1.250000000E+02  0.00000E+00  9.000E+00
      21     1     1     2   512   502  2.831661917E+01 -2.834846391E+01  2.466565217E+01  4.705168141E+01  3.371747881E-07  0.00000E+00  9.000E+00
#rwgt            1           1   3.3706280082068260E-002          10      359949           0
</event>
<event>
      5   9999  3.79277E-02  5.37906E+01 -1.00000E+00  1.37289E-01
      21    -1     0     0   502   501  0.000000000E+00  0.000000000E+00  6.442166707E+01  6.442166707E+01  0.000000000E+00  0.00000E+00  9.000E+00
       1    -1     0     0   501     0  0.000000000E+00  0.000000000E+00 -4.104730897E+03  4.104730897E+03  0.000000000E+00  0.00000E+00  9.000E+00
      25     1     1     2     0     0 -8.460978219E+01 -2.699844476E+01 -3.828987716E+02  4.124611503E+02  1.250000000E+02  0.00000E+00  9.000E+00
      25     1     1     2     0     0  4.351652101E+01 -7.711442746E+00 -3.944474710E+01  1.383258545E+02  1.250000000E+02  0.00000E+00  9.000E+00
       1     1     1     2   502     0  4.109326117E+01  3.470988751E+01 -3.617965712E+03  3.618365560E+03  0.000000000E+00  0.00000E+00  9.000E+00
#rwgt            1           1   5.4040397492598140E-002          10      360139           0
</event>
<event>
      5   9999  3.79277E-02  1.04626E+02 -1.00000E+00  1.22951E-01
      21    -1     0     0   511   501  0.000000000E+00  0.000000000E+00  3.018417369E+02  3.018417369E+02  0.000000000E+00  0.00000E+00  9.000E+00
      21    -1     0     0   501   502  0.000000000E+00  0.000000000E+00 -6.363015441E+02  6.363015441E+02  0.000000000E+00  0.00000E+00  9.000E+00
      25     1     1     2     0     0 -2.732968637E+01 -3.269941206E+01  8.565382909E+00  1.323424690E+02  1.250000000E+02  0.00000E+00  9.000E+00
      25     1     1     2     0     0 -7.372570842E+01  5.599162206E+00 -5.527050562E+02  5.714671555E+02  1.250000000E+02  0.00000E+00  9.000E+00
      21     1     1     2   511   502  1.010553948E+02  2.710024985E+01  2.096798661E+02  2.343336565E+02  3.814697266E-06  0.00000E+00  9.000E+00
#rwgt            1           1   5.0647802199655943E-002          10      360210           0
</event>
<event>
      5   9999  3.79277E-02  6.44843E+01 -1.00000E+00  1.33052E-01
      21    -1     0     0   502   501  0.000000000E+00  0.000000000E+00  8.633085294E+01  8.633085294E+01  0.000000000E+00  0.00000E+00  9.000E+00
      21    -1     0     0   501   512  0.000000000E+00  0.000000000E+00 -5.831717930E+02  5.831717930E+02  0.000000000E+00  0.00000E+00  9.000E+00
      25     1     1     2     0     0 -3.249815467E+01  1.500543144E+02 -1.240783165E+02  2.336511415E+02  1.250000000E+02  0.00000E+00  9.000E+00
      25     1     1     2     0     0  5.113828379E+01 -8.832282380E+01 -2.679127350E+02  3.127591387E+02  1.250000000E+02  0.00000E+00  9.000E+00
      21     1     1     2   502   512 -1.864012912E+01 -6.173149061E+01 -1.048498886E+02  1.230923656E+02  1.348699152E-06  0.00000E+00  9.000E+00
#rwgt            2          11   2.6963761138551179E-003          10      360418           0
</event>
<event>
      5   9999  3.79277E-02  3.35192E+01 -1.00000E+00  1.49768E-01
      21    -1     0     0   511   501  0.000000000E+00  0.000000000E+00  2.204398089E+02  2.204398089E+02  0.000000000E+00  0.00000E+00  9.000E+00
      21    -1     0     0   501   502  0.000000000E+00  0.000000000E+00 -1.937288942E+02  1.937288942E+02  0.000000000E+00  0.00000E+00  9.000E+00
      25     1     1     2     0     0 -8.608393268E+01 -6.455267695E+01 -6.972673051E+01  1.790650957E+02  1.250000000E+02  0.00000E+00  9.000E+00
      25     1     1     2     0     0  8.531795336E+01  9.806312975E+01  8.734026061E+01  2.003717837E+02  1.250000000E+02  0.00000E+00  9.000E+00
      21     1     1     2   511   502  7.659793190E-01 -3.351045280E+01  9.097384562E+00  3.473182369E+01  7.907449699E-07  0.00000E+00  9.000E+00
#rwgt            1           1   4.3199782613744013E-002          10      360453           0
</event>
<event>
      5   9999  3.79277E-02  5.98610E+01 -1.00000E+00  1.34757E-01
      21    -1     0     0   502   512  0.000000000E+00  0.000000000E+00  1.155544113E+02  1.155544113E+02  0.000000000E+00  0.00000E+00  9.000E+00
      21    -1     0     0   501   502  0.000000000E+00  0.000000000E+00 -8.399065706E+02  8.399065706E+02  0.000000000E+00  0.00000E+00  9.000E+00
      25     1     1     2     0     0 -4.651880317E+01 -1.476666306E+02 -1.774791919E+02  2.666332619E+02  1.250000000E+02  0.00000E+00  9.000E+00
      25     1     1     2     0     0  1.006039576E+02  1.220124259E+02 -5.843920098E+02  6.181805638E+02  1.250000000E+02  0.00000E+00  9.000E+00
      21     1     1     2   501   512 -5.408515440E+01  2.565420462E+01  3.751904225E+01  7.064715616E+01  8.259061849E-07  0.00000E+00  9.000E+00
#rwgt            1           1   4.2134473817054173E-002          10      360699           0
</event>
<event>
      5   9999  3.79277E-02  1.87687E+01 -1.00000E+00  1.68679E-01
      21    -1     0     0   511   501  0.000000000E+00  0.000000000E+00  1.300621463E+03  1.300621463E+03  0.000000000E+00  0.00000E+00  9.000E+00
      21    -1     0     0   501   502  0.000000000E+00  0.000000000E+00 -2.373579256E+02  2.373579256E+02  0.000000000E+00  0.00000E+00  9.000E+00
      25     1     1     2     0     0  1.307530445E+02  2.178378742E+01 -1.535210652E+02  2.382532466E+02  1.250000000E+02  0.00000E+00  9.000E+00
      25     1     1     2     0     0 -1.183225106E+02 -3.584593916E+01  1.453183802E+02  2.280955490E+02  1.250000000E+02  0.00000E+00  9.000E+00
      21     1     1     2   511   502 -1.243053388E+01  1.406215174E+01  1.071466222E+03  1.071630593E+03  1.525878906E-05  0.00000E+00  9.000E+00
#rwgt            1           1   4.6197187399397058E-002          10      360955           0
</event>
<event>
      5   9999  3.79277E-02  1.61746E+01 -1.00000E+00  1.74354E-01
      21    -1     0     0   502   501  0.000000000E+00  0.000000000E+00  5.396739878E+01  5.396739878E+01  0.000000000E+00  0.00000E+00  9.000E+00
      21    -1     0     0   512   502  0.000000000E+00  0.000000000E+00 -9.669278502E+02  9.669278502E+02  0.000000000E+00  0.00000E+00  9.000E+00
      25     1     1     2     0     0 -1.762912682E+01  8.751459309E+01 -7.008213700E+02  7.174574432E+02  1.250000000E+02  0.00000E+00  9.000E+00
      25     1     1     2     0     0  9.054310473E+00 -1.012292144E+02 -9.887659814E+01  1.890262311E+02  1.250000000E+02  0.00000E+00  9.000E+00
      21     1     1     2   512   501  8.574816348E+00  1.371462127E+01 -1.132624832E+02  1.144115747E+02  0.000000000E+00  0.00000E+00  9.000E+00
#rwgt            1           1   4.7150784533262630E-002          10      361110           0
</event>
<event>
      5   9999  3.79277E-02  3.34671E+01 -1.00000E+00  1.49812E-01
      21    -1     0     0   502   511  0.000000000E+00  0.000000000E+00  1.264017849E+02  1.264017849E+02  0.000000000E+00  0.00000E+00  9.000E+00
      21    -1     0     0   501   502  0.000000000E+00  0.000000000E+00 -8.444683967E+02  8.444683967E+02  0.000000000E+00  0.00000E+00  9.000E+00
      25     1     1     2     0     0  1.688360656E+02 -3.753425312E+01 -5.492786998E+00  2.134703912E+02  1.250000000E+02  0.00000E+00  9.000E+00
      25     1     1     2     0     0 -1.496685334E+02  6.496879497E+01 -6.811737867E+02  7.115084974E+02  1.250000000E+02  0.00000E+00  9.000E+00
      21     1     1     2   501   511 -1.916753223E+01 -2.743454185E+01 -3.140003811E+01  4.589129298E+01  3.371747881E-07  0.00000E+00  9.000E+00
#rwgt            1           1   4.9761745454635430E-002          10      361280           0
</event>
<event>
      5   9999  3.79277E-02  4.41283E+01 -1.00000E+00  1.42243E-01
      21    -1     0     0   502   501  0.000000000E+00  0.000000000E+00  1.083841661E+02  1.083841661E+02  0.000000000E+00  0.00000E+00  9.000E+00
      21    -1     0     0   512   502  0.000000000E+00  0.000000000E+00 -1.750079669E+03  1.750079669E+03  0.000000000E+00  0.00000E+00  9.000E+00
      25     1     1     2     0     0 -1.320361837E+02 -2.303408211E+02 -1.411319046E+02  3.256281040E+02  1.250000000E+02  0.00000E+00  9.000E+00
      25     1     1     2     0     0  1.243770691E+02  1.868822502E+02 -1.394242613E+03  1.417720739E+03  1.250000000E+02  0.00000E+00  9.000E+00
      21     1     1     2   512   501  7.659114615E+00  4.345857088E+01 -1.063209852E+02  1.151149917E+02  1.348699152E-06  0.00000E+00  9.000E+00
#rwgt            1           1   3.4295547929166975E-002          10      361402           0
</event>
<event>
      5   9999  3.79277E-02  1.03518E+02 -1.00000E+00  1.23156E-01
      21    -1     0     0   502   511  0.000000000E+00  0.000000000E+00  5.287367345E+02  5.287367345E+02  0.000000000E+00  0.00000E+00  9.000E+00
      21    -1     0     0   501   502  0.000000000E+00  0.000000000E+00 -2.447810608E+02  2.447810608E+02  0.000000000E+00  0.00000E+00  9.000E+00
      25     1     1     2     0     0  1.456339666E+02 -1.129235327E+02 -1.260744054E+02  2.558920322E+02  1.250000000E+02  0.00000E+00  9.000E+00
      25     1     1     2     0     0 -5.418749120E+01  1.614366131E+02  2.537384932E+02  3.301610019E+02  1.250000000E+02  0.00000E+00  9.000E+00
      21     1     1     2   501   511 -9.144647539E+01 -4.851308044E+01  1.562915859E+02  1.874647611E+02  2.697398305E-06  0.00000E+00  9.000E+00
#rwgt            2          11   2.1355968197064880E-003          10      361651           0
</event>
<event>
      5   9999 -3.79277E-02  3.83824E+01 -1.00000E+00  1.45961E-01
       2    -1     0     0   502     0  0.000000000E+00  0.000000000E+00  3.192939903E+03  3.192939903E+03  0.000000000E+00  0.00000E+00  9.000E+00
      21    -1     0     0   501   502  0.000000000E+00  0.000000000E+00 -1.741378157E+03  1.741378157E+03  0.000000000E+00  0.00000E+00  9.000E+00
      25     1     1     2     0     0 -1.425345728E+02  6.714653488E+00 -4.633809007E+02  5.007075496E+02  1.250000000E+02  0.00000E+00  9.000E+00
      25     1     1     2     0     0  1.063565631E+02  6.105673189E+00 -1.253862400E+03  1.264573018E+03  1.250000000E+02  0.00000E+00  9.000E+00
       2     1     1     2   501     0  3.617800975E+01 -1.282032668E+01  3.168805047E+03  3.169037493E+03  0.000000000E+00  0.00000E+00  9.000E+00
#rwgt            1           1  -1.4541691983856119E-002          10      361686           0
</event>
<event>
      5   9999  3.79277E-02  1.78932E+01 -1.00000E+00  1.70459E-01
      21    -1     0     0   502   511  0.000000000E+00  0.000000000E+00  4.927661408E+02  4.927661408E+02  0.000000000E+00  0.00000E+00  9.000E+00
      21    -1     0     0   501   502  0.000000000E+00  0.000000000E+00 -2.982222345E+02  2.982222345E+02  0.000000000E+00  0.00000E+00  9.000E+00
      25     1     1     2     0     0  2.270306939E+01  1.510495148E+02 -1.568724926E+02  2.521217250E+02  1.250000000E+02  0.00000E+00  9.000E+00
      25     1     1     2     0     0 -4.020279487E+01 -1.473177858E+02  1.064808175E+01  1.976288855E+02  1.250000000E+02  0.00000E+00  9.000E+00
      21     1     1     2   501   511  1.749972548E+01 -3.731729031E+00  3.407683172E+02  3.412377649E+02  5.394796609E-06  0.00000E+00  9.000E+00
#rwgt            1           1   3.7364355785184503E-002          10      361872           0
</event>
<event>
      5   9999  3.79277E-02  1.06987E+02 -1.00000E+00  1.22523E-01
      21    -1     0     0   502   512  0.000000000E+00  0.000000000E+00  3.343121060E+02  3.343121060E+02  0.000000000E+00  0.00000E+00  9.000E+00
      21    -1     0     0   501   502  0.000000000E+00  0.000000000E+00 -3.993232223E+02  3.993232223E+02  0.000000000E+00  0.00000E+00  9.000E+00
      25     1     1     2     0     0  1.685014752E+02  1.442470378E+02 -2.015853661E+02  3.247485410E+02  1.250000000E+02  0.00000E+00  9.000E+00
      25     1     1     2     0     0 -6.152818870E+01 -1.459760535E+02 -3.683868702E+01  2.051263393E+02  1.250000000E+02  0.00000E+00  9.000E+00
      21     1     1     2   501   512 -1.069732865E+02  1.729015720E+00  1.734129368E+02  2.037604480E+02  3.814697266E-06  0.00000E+00  9.000E+00
#rwgt            1           1   3.3830160008413011E-002          10      362074           0
</event>
<event>
      5   9999  3.79277E-02  6.41635E+01 -1.00000E+00  1.33165E-01
      21    -1     0     0   511   501  0.000000000E+00  0.000000000E+00  1.440458348E+02  1.440458348E+02  0.000000000E+00  0.00000E+00  9.000E+00
      21    -1     0     0   501   502  0.000000000E+00  0.000000000E+00 -3.445273431E+02  3.445273431E+02  0.000000000E+00  0.00000E+00  9.000E+00
      25     1     1     2     0     0 -5.370132932E+01  5.310270214E+01 -2.490749014E+02  2.887335038E+02  1.250000000E+02  0.00000E+00  9.000E+00
      25     1     1     2     0     0  3.354931849E+01  7.814073597E+00  3.380442275E+01  1.339938637E+02  1.250000000E+02  0.00000E+00  9.000E+00
      21     1     1     2   511   502  2.015201084E+01 -6.091677574E+01  1.478897033E+01  6.584581043E+01  7.152557373E-07  0.00000E+00  9.000E+00
#rwgt            1           1   3.3486314353564132E-002          10      362153           0
</event>
<event>
      5   9999  3.79277E-02  1.89644E+01 -1.00000E+00  1.68297E-01
      21    -1     0     0   502   501  0.000000000E+00  0.000000000E+00  1.327760280E+03  1.327760280E+03  0.000000000E+00  0.00000E+00  9.000E+00
       2    -1     0     0   501     0  0.000000000E+00  0.000000000E+00 -2.326654472E+02  2.326654472E+02  0.000000000E+00  0.00000E+00  9.000E+00
      25     1     1     2     0     0 -1.015585031E+02 -1.564972850E+02  8.006236350E+02  8.315219388E+02  1.250000000E+02  0.00000E+00  9.000E+00
      25     1     1     2     0     0  9.199001205E+01  1.401237904E+02  4.898475974E+02  5.326091509E+02  1.250000000E+02  0.00000E+00  9.000E+00
       2     1     1     2   502     0  9.568491020E+00  1.637349456E+01 -1.953763994E+02  1.962946377E+02  5.394796609E-06  0.00000E+00  9.000E+00
#rwgt            1           1   3.3078004510054368E-002          10      362266           0
</event>
<event>
      5   9999  3.79277E-02  7.32257E+01 -1.00000E+00  1.30237E-01
      21    -1     0     0   511   501  0.000000000E+00  0.000000000E+00  6.070501712E+01  6.070501712E+01  0.000000000E+00  0.00000E+00  9.000E+00
      21    -1     0     0   501   502  0.000000000E+00  0.000000000E+00 -1.206319795E+03  1.206319795E+03  0.000000000E+00  0.00000E+00  9.000E+00
      25     1     1     2     0     0  2.019567333E+02  4.301405128E+01 -3.982749324E+02  4.657087636E+02  1.250000000E+02  0.00000E+00  9.000E+00
      25     1     1     2     0     0 -1.467086811E+02 -9.107298374E+01 -6.008321256E+02  6.375280140E+02  1.250000000E+02  0.00000E+00  9.000E+00
      21     1     1     2   511   502 -5.524805220E+01  4.805893246E+01 -1.465077196E+02  1.637880342E+02  2.697398305E-06  0.00000E+00  9.000E+00
#rwgt            1           1  0.13238439748189532               10      362403           0
</event>
<event>
      5   9999  3.79277E-02  4.84108E+01 -1.00000E+00  1.39881E-01
      21    -1     0     0   512   501  0.000000000E+00  0.000000000E+00  6.230551088E+02  6.230551088E+02  0.000000000E+00  0.00000E+00  9.000E+00
      21    -1     0     0   501   502  0.000000000E+00  0.000000000E+00 -7.232681226E+02  7.232681226E+02  0.000000000E+00  0.00000E+00  9.000E+00
      25     1     1     2     0     0  1.217354857E+02  2.954905816E+01 -4.507584076E+02  4.842528444E+02  1.250000000E+02  0.00000E+00  9.000E+00
      25     1     1     2     0     0 -9.792890159E+01  1.260360860E+01 -2.298544302E+02  2.796551086E+02  1.250000000E+02  0.00000E+00  9.000E+00
      21     1     1     2   512   502 -2.380658415E+01 -4.215266676E+01  5.803998240E+02  5.824152784E+02  7.629394531E-06  0.00000E+00  9.000E+00
#rwgt            1           1   3.1920515831459835E-002          10      362499           0
</event>
<event>
      5   9999  3.79277E-02  5.06305E+01 -1.00000E+00  1.38766E-01
      21    -1     0     0   502   501  0.000000000E+00  0.000000000E+00  2.095478288E+03  2.095478288E+03  0.000000000E+00  0.00000E+00  9.000E+00
      21    -1     0     0   501   511  0.000000000E+00  0.000000000E+00 -3.837691955E+02  3.837691955E+02  0.000000000E+00  0.00000E+00  9.000E+00
      25     1     1     2     0     0  3.148870954E+00 -2.009126233E+02  1.297643069E+03  1.319044477E+03  1.250000000E+02  0.00000E+00  9.000E+00
      25     1     1     2     0     0 -5.375757094E+01  2.023986980E+02  7.663899781E+02  8.042597266E+02  1.250000000E+02  0.00000E+00  9.000E+00
      21     1     1     2   502   511  5.060869999E+01 -1.486074674E+00 -3.523239550E+02  3.559432795E+02  8.529922400E-06  0.00000E+00  9.000E+00
#rwgt            1           1   9.2793153384714736E-002          10      362565           0
</event>
<event>
      5   9999  3.79277E-02  1.08973E+01 -1.00000E+00  1.91540E-01
      21    -1     0     0   502   501  0.000000000E+00  0.000000000E+00  8.273062675E+01  8.273062675E+01  0.000000000E+00  0.00000E+00  9.000E+00
      21    -1     0     0   512   502  0.000000000E+00  0.000000000E+00 -4.787048434E+02  4.787048434E+02  0.000000000E+00  0.00000E+00  9.000E+00
      25     1     1     2     0     0 -4.964835329E+01  1.122322602E+02 -3.041031425E+02  3.509483730E+02  1.250000000E+02  0.00000E+00  9.000E+00
      25     1     1     2     0     0  6.040974293E+01 -1.105163005E+02 -8.088916707E+01  1.950160175E+02  1.250000000E+02  0.00000E+00  9.000E+00
      21     1     1     2   512   501 -1.076138964E+01 -1.715959721E+00 -1.098190707E+01  1.547107972E+01  1.685873940E-07  0.00000E+00  9.000E+00
#rwgt            1           1   6.9128476974100392E-002          10      362692           0
</event>
<event>
      5   9999  3.79277E-02  9.30788E+01 -1.00000E+00  1.25245E-01
      21    -1     0     0   511   501  0.000000000E+00  0.000000000E+00  1.372560619E+02  1.372560619E+02  0.000000000E+00  0.00000E+00  9.000E+00
      21    -1     0     0   501   502  0.000000000E+00  0.000000000E+00 -8.634733108E+02  8.634733108E+02  0.000000000E+00  0.00000E+00  9.000E+00
      25     1     1     2     0     0 -2.936040823E+02  5.115164647E+01 -5.049574932E+02  5.995222415E+02  1.250000000E+02  0.00000E+00  9.000E+00
      25     1     1     2     0     0  2.012762721E+02 -3.935134558E+01 -1.756493097E+02  2.975539381E+02  1.250000000E+02  0.00000E+00  9.000E+00
      21     1     1     2   511   502  9.232781022E+01 -1.180030089E+01 -4.561044598E+01  1.036531930E+02  1.784161275E-06  0.00000E+00  9.000E+00
#rwgt            1           1   3.0499807916060981E-002          10      363009           0
</event>
<event>
      5   9999  3.79277E-02  2.12422E+01 -1.00000E+00  1.64238E-01
      21    -1     0     0   502   512  0.000000000E+00  0.000000000E+00  3.367048389E+02  3.367048389E+02  0.000000000E+00  0.00000E+00  9.000E+00
      21    -1     0     0   501   502  0.000000000E+00  0.000000000E+00 -2.559037913E+02  2.559037913E+02  0.000000000E+00  0.00000E+00  9.000E+00
      25     1     1     2     0     0 -2.589943898E+01  2.057621172E+02 -1.206866329E+02  2.705533093E+02  1.250000000E+02  0.00000E+00  9.000E+00
      25     1     1     2     0     0  2.585740819E+01 -1.845199670E+02  1.604176719E+02  2.758170649E+02  1.250000000E+02  0.00000E+00  9.000E+00
      21     1     1     2   501   512  4.203079276E-02 -2.124215016E+01  4.107000858E+01  4.623825596E+01  6.743495762E-07  0.00000E+00  9.000E+00
#rwgt            1           1   4.0118653604549928E-002          10      363176           0
</event>
<event>
      5   9999  3.79277E-02  4.29400E+01 -1.00000E+00  1.42955E-01
      21    -1     0     0   502   511  0.000000000E+00  0.000000000E+00  1.401992636E+02  1.401992636E+02  0.000000000E+00  0.00000E+00  9.000E+00
      21    -1     0     0   501   502  0.000000000E+00  0.000000000E+00 -4.717247829E+02  4.717247829E+02  0.000000000E+00  0.00000E+00  9.000E+00
      25     1     1     2     0     0  1.697555780E+02 -1.938689921E+01 -2.386977479E+02  3.190523828E+02  1.250000000E+02  0.00000E+00  9.000E+00
      25     1     1     2     0     0 -1.955385470E+02 -1.495087434E+01 -9.149685212E+01  2.499110361E+02  1.250000000E+02  0.00000E+00  9.000E+00
      21     1     1     2   501   511  2.578296897E+01  3.433777356E+01 -1.330919363E+00  4.296062765E+01  2.759733674E-07  0.00000E+00  9.000E+00
#rwgt            2          11   2.5330778600903886E-003          10      363464           0
</event>
<event>
      5   9999  3.79277E-02  6.88757E+01 -1.00000E+00  1.31578E-01
      21    -1     0     0   502   501  0.000000000E+00  0.000000000E+00  2.267070273E+02  2.267070273E+02  0.000000000E+00  0.00000E+00  9.000E+00
       1    -1     0     0   501     0  0.000000000E+00  0.000000000E+00 -7.728404312E+02  7.728404312E+02  0.000000000E+00  0.00000E+00  9.000E+00
      25     1     1     2     0     0 -3.000129223E+01  1.971746212E+02  5.183401194E+01  2.410179943E+02  1.250000000E+02  0.00000E+00  9.000E+00
      25     1     1     2     0     0  8.596225017E+01 -1.570219563E+02 -7.471811643E+01  2.307665490E+02  1.250000000E+02  0.00000E+00  9.000E+00
       1     1     1     2   502     0 -5.596095794E+01 -4.015266495E+01 -5.232492994E+02  5.277629152E+02  1.321449896E-05  0.00000E+00  9.000E+00
#rwgt            1           1  0.11044303609108699               10      363514           0
</event>
<event>
      5   9999  3.79277E-02  2.36355E+01 -1.00000E+00  1.60598E-01
      21    -1     0     0   502   511  0.000000000E+00  0.000000000E+00  3.779590996E+01  3.779590996E+01  0.000000000E+00  0.00000E+00  9.000E+00
      21    -1     0     0   501   502  0.000000000E+00  0.000000000E+00 -1.007090672E+03  1.007090672E+03  0.000000000E+00  0.00000E+00  9.000E+00
      25     1     1     2     0     0  1.009163395E+02 -9.154626634E+01 -5.734471812E+02  6.025209508E+02  1.250000000E+02  0.00000E+00  9.000E+00
      25     1     1     2     0     0 -9.844256099E+01  6.804054120E+01 -3.599400798E+02  3.993774081E+02  1.250000000E+02  0.00000E+00  9.000E+00
      21     1     1     2   501   511 -2.473778533E+00  2.350572513E+01 -3.590750101E+01  4.298822308E+01  4.768371582E-07  0.00000E+00  9.000E+00
#rwgt            1           1   4.4862546822658819E-002          10      363749           0
</event>
<event>
      5   9999  3.79277E-02  8.59806E+01 -1.00000E+00  1.26852E-01
      21    -1     0     0   502   501  0.000000000E+00  0.000000000E+00  3.711900466E+02  3.711900466E+02  0.000000000E+00  0.00000E+00  9.000E+00
      21    -1     0     0   501   512  0.000000000E+00  0.000000000E+00 -4.253066032E+02  4.253066032E+02  0.000000000E+00  0.00000E+00  9.000E+00
      25     1     1     2     0     0  6.833562641E+01  5.407389187E+01 -1.498057037E+02  2.136831591E+02  1.250000000E+02  0.00000E+00  9.000E+00
      25     1     1     2     0     0 -1.186652681E+02  1.563692041E+01  3.082566641E+02  3.535153888E+02  1.250000000E+02  0.00000E+00  9.000E+00
      21     1     1     2   502   512  5.032964174E+01 -6.971081228E+01 -2.125675171E+02  2.292981019E+02  2.697398305E-06  0.00000E+00  9.000E+00
#rwgt            1           1   4.2011874760509778E-002          10      364007           0
</event>
<event>
      5   9999  3.79277E-02  6.44441E+01 -1.00000E+00  1.33066E-01
      21    -1     0     0   502   501  0.000000000E+00  0.000000000E+00  3.314358601E+03  3.314358601E+03  0.000000000E+00  0.00000E+00  9.000E+00
      21    -1     0     0   501   511  0.000000000E+00  0.000000000E+00 -1.650071814E+01  1.650071814E+01  0.000000000E+00  0.00000E+00  9.000E+00
      25     1     1     2     0     0  1.117070275E+01 -1.141697054E+02  8.609669961E+02  8.775241733E+02  1.250000000E+02  0.00000E+00  9.000E+00
      25     1     1     2     0     0 -4.046731114E-01  1.777081910E+02  1.989085258E+03  2.000916172E+03  1.250000000E+02  0.00000E+00  9.000E+00
      21     1     1     2   502   511 -1.076602964E+01 -6.353848559E+01  4.478056287E+02  4.524189735E+02  5.394796609E-06  0.00000E+00  9.000E+00
#rwgt            1           1   4.4468074637442526E-002          10      364128           0
</event>
<event>
      5   9999 -3.79277E-02  2.41856E+01 -1.00000E+00  1.59836E-01
      21    -1     0     0   502   501  0.000000000E+00  0.000000000E+00  1.097067416E+03  1.097067416E+03  0.000000000E+00  0.00000E+00  9.000E+00
      21    -1     0     0   501   512  0.000000000E+00  0.000000000E+00 -1.204548554E+02  1.204548554E+02  0.000000000E+00  0.00000E+00  9.000E+00
      25     1     1     2     0     0 -1.295130417E+02 -6.415859427E+01  2.506152255E+02  3.151554290E+02  1.250000000E+02  0.00000E+00  9.000E+00
      25     1     1     2     0     0  1.224937710E+02  4.101397848E+01  8.023686273E+02  8.222574320E+02  1.250000000E+02  0.00000E+00  9.000E+00
      21     1     1     2   502   512  7.019270670E+00  2.314461578E+01 -7.637129212E+01  8.010941056E+01  1.651812370E-06  0.00000E+00  9.000E+00
#rwgt            1           1 -0.19056224455310009               10      364177           0
</event>
<event>
      5   9999  3.79277E-02  6.33000E+00 -1.00000E+00  2.21920E-01
      21    -1     0     0   502   501  0.000000000E+00  0.000000000E+00  3.991625734E+02  3.991625734E+02  0.000000000E+00  0.00000E+00  9.000E+00
      21    -1     0     0   501   511  0.000000000E+00  0.000000000E+00 -8.790448074E+01  8.790448074E+01  0.000000000E+00  0.00000E+00  9.000E+00
      25     1     1     2     0     0 -1.374018170E+01 -1.021702905E+02  4.101114230E+01  1.671360962E+02  1.250000000E+02  0.00000E+00  9.000E+00
      25     1     1     2     0     0  7.416799297E+00  1.018808664E+02  2.686203628E+02  3.133953082E+02  1.250000000E+02  0.00000E+00  9.000E+00
      21     1     1     2   502   511  6.323382401E+00  2.894240883E-01  1.626587469E+00  6.535649783E+00  1.604904177E-07  0.00000E+00  9.000E+00
#rwgt            1           1   5.1068370595130329E-002          10      364427           0
</event>
<event>
      5   9999  3.79277E-02  1.63889E+01 -1.00000E+00  1.73836E-01
      21    -1     0     0   502   501  0.000000000E+00  0.000000000E+00  2.488213528E+02  2.488213528E+02  0.000000000E+00  0.00000E+00  9.000E+00
      21    -1     0     0   501   512  0.000000000E+00  0.000000000E+00 -1.629765118E+02  1.629765118E+02  0.000000000E+00  0.00000E+00  9.000E+00
      25     1     1     2     0     0  1.093799092E+02 -3.172965006E+01  1.280894747E+02  2.121382774E+02  1.250000000E+02  0.00000E+00  9.000E+00
      25     1     1     2     0     0 -1.205832454E+02  1.976804375E+01 -2.625672063E+01  1.767639952E+02  1.250000000E+02  0.00000E+00  9.000E+00
      21     1     1     2   502   512  1.120333621E+01  1.196160631E+01 -1.598791308E+01  2.289559198E+01  3.769728732E-07  0.00000E+00  9.000E+00
#rwgt            1           1   4.0818485633890150E-002          10      364797           0
</event>
<event>
      5   9999  3.79277E-02  1.38024E+01 -1.00000E+00  1.80857E-01
      21    -1     0     0   502   501  0.000000000E+00  0.000000000E+00  1.793945058E+02  1.793945058E+02  0.000000000E+00  0.00000E+00  9.000E+00
      21    -1     0     0   511   502  0.000000000E+00  0.000000000E+00 -3.211150501E+02  3.211150501E+02  0.000000000E+00  0.00000E+00  9.000E+00
      25     1     1     2     0     0  1.349830221E+02 -8.048443990E+01  4.630530627E+01  2.060760605E+02  1.250000000E+02  0.00000E+00  9.000E+00
      25     1     1     2     0     0 -1.412821128E+02  6.820321395E+01 -1.403945501E+02  2.448426913E+02  1.250000000E+02  0.00000E+00  9.000E+00
      21     1     1     2   511   501  6.299090677E+00  1.228122595E+01 -4.763130055E+01  4.959080405E+01  0.000000000E+00  0.00000E+00  9.000E+00
#rwgt            1           1   4.7390541449410940E-002          10      365015           0
</event>
<event>
      5   9999  3.79277E-02  8.70447E+01 -1.00000E+00  1.26600E-01
       2    -1     0     0   502     0  0.000000000E+00  0.000000000E+00  1.537249481E+03  1.537249481E+03  0.000000000E+00  0.00000E+00  9.000E+00
      21    -1     0     0   501   502  0.000000000E+00  0.000000000E+00 -6.219242974E+01  6.219242974E+01  0.000000000E+00  0.00000E+00  9.000E+00
      25     1     1     2     0     0 -5.922624560E+01  4.754440716E+00  4.755306113E+02  4.952622691E+02  1.250000000E+02  0.00000E+00  9.000E+00
      25     1     1     2     0     0  1.451207459E+02  9.349565897E+00  1.331824711E+02  2.334738012E+02  1.250000000E+02  0.00000E+00  9.000E+00
       2     1     1     2   501     0 -8.589450025E+01 -1.410400661E+01  8.663439689E+02  8.707058405E+02  1.078959322E-05  0.00000E+00  9.000E+00
#rwgt            1           1   4.6515155585053113E-002          10      365341           0
</event>
<event>
      5   9999 -3.79277E-02  5.56495E+01 -1.00000E+00  1.36474E-01
      21    -1     0     0   511   501  0.000000000E+00  0.000000000E+00  9.863213820E+01  9.863213820E+01  0.000000000E+00  0.00000E+00  9.000E+00
      21    -1     0     0   501   502  0.000000000E+00  0.000000000E+00 -8.991259015E+02  8.991259015E+02  0.000000000E+00  0.00000E+00  9.000E+00
      25     1     1     2     0     0 -1.940904542E+02 -4.455258616E+01 -4.782562074E+02  5.329259210E+02  1.250000000E+02  0.00000E+00  9.000E+00
      25     1     1     2     0     0  2.228338801E+02  9.220421009E+01 -3.005467299E+02  4.051047906E+02  1.250000000E+02  0.00000E+00  9.000E+00
      21     1     1     2   511   502 -2.874342592E+01 -4.765162392E+01 -2.169082597E+01  5.972732814E+01  7.152557373E-07  0.00000E+00  9.000E+00
#rwgt            1           1 -0.27459848077458393               10      365584           0
</event>
<event>
      5   9999  3.79277E-02  1.63260E+01 -1.00000E+00  1.73987E-01
      21    -1     0     0   502   512  0.000000000E+00  0.000000000E+00  3.746511733E+02  3.746511733E+02  0.000000000E+00  0.00000E+00  9.000E+00
      21    -1     0     0   501   502  0.000000000E+00  0.000000000E+00 -2.514756086E+02  2.514756086E+02  0.000000000E+00  0.00000E+00  9.000E+00
      25     1     1     2     0     0  2.532359710E+02 -8.883702043E+01 -1.564469945E+01  2.964628642E+02  1.250000000E+02  0.00000E+00  9.000E+00
      25     1     1     2     0     0 -2.404059283E+02  7.874107642E+01  1.354373348E+02  3.129911167E+02  1.250000000E+02  0.00000E+00  9.000E+00
      21     1     1     2   501   512 -1.283004268E+01  1.009594402E+01  3.382929343E+00  1.667280095E+01  3.237360862E-07  0.00000E+00  9.000E+00
#rwgt            1           1   7.9624680840878495E-002          10      365740           0
</event>
<event>
      5   9999  3.79277E-02  7.64538E+01 -1.00000E+00  1.29310E-01
      21    -1     0     0   511   501  0.000000000E+00  0.000000000E+00  6.636001837E+02  6.636001837E+02  0.000000000E+00  0.00000E+00  9.000E+00
      21    -1     0     0   501   502  0.000000000E+00  0.000000000E+00 -1.194557730E+02  1.194557730E+02  0.000000000E+00  0.00000E+00  9.000E+00
      25     1     1     2     0     0 -1.568338680E+01 -1.964820995E+02  7.866602976E+01  2.463017017E+02  1.250000000E+02  0.00000E+00  9.000E+00
      25     1     1     2     0     0  5.640750583E+01  1.317771658E+02  3.482116307E+02  3.967661375E+02  1.250000000E+02  0.00000E+00  9.000E+00
      21     1     1     2   511   502 -4.072411903E+01  6.470493367E+01  1.172667502E+02  1.399881174E+02  1.907348633E-06  0.00000E+00  9.000E+00
#rwgt            1           1   2.8561187547205730E-002          10      365915           0
</event>
<event>
      5   9999  3.79277E-02  1.21634E+02 -1.00000E+00  1.20119E-01
      21    -1     0     0   502   512  0.000000000E+00  0.000000000E+00  1.767762240E+03  1.767762240E+03  0.000000000E+00  0.00000E+00  9.000E+00
      21    -1     0     0   501   502  0.000000000E+00  0.000000000E+00 -5.988519307E+02  5.988519307E+02  0.000000000E+00  0.00000E+00  9.000E+00
      25     1     1     2     0     0  3.277536092E+01 -2.458195374E+02 -2.893327416E+02  4.010485066E+02  1.250000000E+02  0.00000E+00  9.000E+00
      25     1     1     2     0     0  6.697839120E+01  3.154192164E+02 -1.323763041E+02  3.703024073E+02  1.250000000E+02  0.00000E+00  9.000E+00
      21     1     1     2   501   512 -9.975375211E+01 -6.959967895E+01  1.590619355E+03  1.595263257E+03  2.157918644E-05  0.00000E+00  9.000E+00
#rwgt            1           1   3.6907338798402925E-002          10      366152           0
</event>
<event>
      5   9999  3.79277E-02  2.21010E+01 -1.00000E+00  1.62867E-01
      21    -1     0     0   502   501  0.000000000E+00  0.000000000E+00  7.296340304E+02  7.296340304E+02  0.000000000E+00  0.00000E+00  9.000E+00
      21    -1     0     0   511   502  0.000000000E+00  0.000000000E+00 -1.007720806E+02  1.007720806E+02  0.000000000E+00  0.00000E+00  9.000E+00
      25     1     1     2     0     0  1.915834287E+02  1.016325495E+02  2.540355676E+02  3.566405121E+02  1.250000000E+02  0.00000E+00  9.000E+00
      25     1     1     2     0     0 -2.011658453E+02 -1.215481859E+02  3.572538931E+02  4.455300247E+02  1.250000000E+02  0.00000E+00  9.000E+00
      21     1     1     2   511   501  9.582416540E+00  1.991563639E+01  1.757248905E+01  2.823557421E+01  3.371747881E-07  0.00000E+00  9.000E+00
#rwgt            1           1   3.7768161118786489E-002          10      366277           0
</event>
<event>
      5   9999  3.79277E-02  2.97993E+01 -1.00000E+00  1.53243E-01
      21    -1     0     0   502   501  0.000000000E+00  0.000000000E+00  5.161144503E+02  5.161144503E+02  0.000000000E+00  0.00000E+00  9.000E+00
      21    -1     0     0   501   512  0.000000000E+00  0.000000000E+00 -2.802677356E+02  2.802677356E+02  0.000000000E+00  0.00000E+00  9.000E+00
      25     1     1     2     0     0 -1.184858552E+02 -2.254325265E+02  3.016411928E+02  4.140907281E+02  1.250000000E+02  0.00000E+00  9.000E+00
      25     1     1     2     0     0  1.462417501E+02  2.145877477E+02  2.252578382E+01  2.890795079E+02  1.250000000E+02  0.00000E+00  9.000E+00
      21     1     1     2   502   512 -2.775589492E+01  1.084477879E+01 -8.832026194E+01  9.321194987E+01  9.536743164E-07  0.00000E+00  9.000E+00
#rwgt            1           1   3.0972700182202342E-002          10      366617           0
</event>
<event>
      5   9999  3.79277E-02  8.98078E+01 -1.00000E+00  1.25965E-01
      21    -1     0     0   502   511  0.000000000E+00  0.000000000E+00  3.428321891E+02  3.428321891E+02  0.000000000E+00  0.00000E+00  9.000E+00
      21    -1     0     0   501   502  0.000000000E+00  0.000000000E+00 -2.907043209E+02  2.907043209E+02  0.000000000E+00  0.00000E+00  9.000E+00
      25     1     1     2     0     0  5.796327986E+01 -2.118396000E+02 -7.156294932E+01  2.626442721E+02  1.250000000E+02  0.00000E+00  9.000E+00
      25     1     1     2     0     0  3.178927645E+01  2.086893463E+02  4.084193265E+01  2.487063828E+02  1.250000000E+02  0.00000E+00  9.000E+00
      21     1     1     2   501   511 -8.975255631E+01  3.150253678E+00  8.284888496E+01  1.221858552E+02  2.132480600E-06  0.00000E+00  9.000E+00
#rwgt            1           1   4.1183207113049375E-002          10      366865           0
</event>
<event>
      5   9999  3.79277E-02  1.13816E+01 -1.00000E+00  1.89477E-01
      21    -1     0     0   512   501  0.000000000E+00  0.000000000E+00  7.074463537E+01  7.074463537E+01  0.000000000E+00  0.00000E+00  9.000E+00
      21    -1     0     0   501   502  0.000000000E+00  0.000000000E+00 -1.152107792E+03  1.152107792E+03  0.000000000E+00  0.00000E+00  9.000E+00
      25     1     1     2     0     0  1.281341830E+01 -1.472602673E+02 -1.128608457E+02  2.240811025E+02  1.250000000E+02  0.00000E+00  9.000E+00
      25     1     1     2     0     0 -2.311801743E+01  1.520931247E+02 -9.672141292E+02  9.873170378E+02  1.250000000E+02  0.00000E+00  9.000E+00
      21     1     1     2   512   502  1.030459913E+01 -4.832857363E+00 -1.288181385E+00  1.145428674E+01  2.803636748E-07  0.00000E+00  9.000E+00
#rwgt            1           1   5.0008168553150982E-002          10      367027           0
</event>
<event>
      5   9999  3.79277E-02  1.81082E+01 -1.00000E+00  1.70010E-01
      21    -1     0     0   502   501  0.000000000E+00  0.000000000E+00  2.063028061E+02  2.063028061E+02  0.000000000E+00  0.00000E+00  9.000E+00
      21    -1     0     0   511   502  0.000000000E+00  0.000000000E+00 -5.334098841E+02  5.334098841E+02  0.000000000E+00  0.00000E+00  9.000E+00
      25     1     1     2     0     0 -2.239805274E+02 -1.690577846E+02 -6.448411622E+01  3.138964995E+02  1.250000000E+02  0.00000E+00  9.000E+00
      25     1     1     2     0     0  2.301024610E+02  1.520157664E+02 -2.056201741E+02  3.660062729E+02  1.250000000E+02  0.00000E+00  9.000E+00
      21     1     1     2   511   501 -6.121933630E+00  1.704201825E+01 -5.700278769E+01  5.980991775E+01  0.000000000E+00  0.00000E+00  9.000E+00
#rwgt            1           1   6.2923759831197204E-002          10      367291           0
</event>
<event>
      5   9999  3.79277E-02  2.52087E+01 -1.00000E+00  1.58481E-01
      21    -1     0     0   512   501  0.000000000E+00  0.000000000E+00  2.093511115E+02  2.093511115E+02  0.000000000E+00  0.00000E+00  9.000E+00
      21    -1     0     0   501   502  0.000000000E+00  0.000000000E+00 -1.677987832E+02  1.677987832E+02  0.000000000E+00  0.00000E+00  9.000E+00
      25     1     1     2     0     0 -1.033571189E+02 -2.828332592E+01 -2.033970967E+01  1.658955827E+02  1.250000000E+02  0.00000E+00  9.000E+00
      25     1     1     2     0     0  1.239213790E+02  1.370278470E+01  5.078674602E+01  1.837078334E+02  1.250000000E+02  0.00000E+00  9.000E+00
      21     1     1     2   512   502 -2.056426010E+01  1.458054122E+01  1.110529201E+01  2.754647865E+01  2.384185791E-07  0.00000E+00  9.000E+00
#rwgt            1           1   6.2211248431545720E-002          10      367509           0
</event>
<event>
      5   9999  3.79277E-02  1.18585E+01 -1.00000E+00  1.87571E-01
      21    -1     0     0   502   501  0.000000000E+00  0.000000000E+00  3.221551422E+02  3.221551422E+02  0.000000000E+00  0.00000E+00  9.000E+00
      21    -1     0     0   501   511  0.000000000E+00  0.000000000E+00 -2.501654581E+02  2.501654581E+02  0.000000000E+00  0.00000E+00  9.000E+00
      25     1     1     2     0     0  5.942057790E+00 -3.737429411E+01 -3.073116732E+01  1.341698571E+02  1.250000000E+02  0.00000E+00  9.000E+00
      25     1     1     2     0     0 -1.370198915E+01  4.634128107E+01  2.535857599E+02  2.868204952E+02  1.250000000E+02  0.00000E+00  9.000E+00
      21     1     1     2   502   511  7.759931359E+00 -8.966986953E+00 -1.508649084E+02  1.513302480E+02  0.000000000E+00  0.00000E+00  9.000E+00
#rwgt            1           1   3.7110339676093410E-002          10      367642           0
</event>
<event>
      5   9999  3.79277E-02  2.91660E+01 -1.00000E+00  1.53895E-01
      21    -1     0     0   502   501  0.000000000E+00  0.000000000E+00  8.460703559E+01  8.460703559E+01  0.000000000E+00  0.00000E+00  9.000E+00
      21    -1     0     0   501   512  0.000000000E+00  0.000000000E+00 -6.193656054E+02  6.193656054E+02  0.000000000E+00  0.00000E+00  9.000E+00
      25     1     1     2     0     0 -9.104164409E+01 -1.150915402E+02 -3.836932953E+02  4.293951426E+02  1.250000000E+02  0.00000E+00  9.000E+00
      25     1     1     2     0     0  1.151155710E+02  9.862633001E+01 -1.131101374E+02  2.267105000E+02  1.250000000E+02  0.00000E+00  9.000E+00
      21     1     1     2   502   512 -2.407392687E+01  1.646521018E+01 -3.795513708E+01  4.786699836E+01  0.000000000E+00  0.00000E+00  9.000E+00
#rwgt            1           1   4.9394456852314660E-002          10      367817           0
</event>
<event>
      5   9999  3.79277E-02  1.34790E+02 -1.00000E+00  1.18264E-01
      21    -1     0     0   502   511  0.000000000E+00  0.000000000E+00  2.904000415E+02  2.904000415E+02  0.000000000E+00  0.00000E+00  9.000E+00
      21    -1     0     0   501   502  0.000000000E+00  0.000000000E+00 -4.757002204E+02  4.757002204E+02  0.000000000E+00  0.00000E+00  9.000E+00
      25     1     1     2     0     0  9.796968738E+01 -1.342931056E+02 -2.451950029E+02  3.215249404E+02  1.250000000E+02  0.00000E+00  9.000E+00
      25     1     1     2     0     0 -1.781587265E+02  2.595127450E+01 -9.531574167E+01  2.390064667E+02  1.250000000E+02  0.00000E+00  9.000E+00
      21     1     1     2   501   511  8.018903917E+01  1.083418311E+02  1.552105657E+02  2.055688548E+02  2.697398305E-06  0.00000E+00  9.000E+00
#rwgt            1           1   3.1845386387417650E-002          10      368001           0
</event>
<event>
      5   9999  3.79277E-02  2.16576E+01 -1.00000E+00  1.63566E-01
      21    -1     0     0   512   501  0.000000000E+00  0.000000000E+00  4.639511364E+02  4.639511364E+02  0.000000000E+00  0.00000E+00  9.000E+00
      21    -1     0     0   501   502  0.000000000E+00  0.000000000E+00 -2.179744312E+02  2.179744312E+02  0.000000000E+00  0.00000E+00  9.000E+00
      25     1     1     2     0     0  5.012610158E+00  1.567024334E+02  7.348877088E+01  2.135564992E+02  1.250000000E+02  0.00000E+00  9.000E+00
      25     1     1     2     0     0  1.659299914E+01 -1.582021996E+02 -7.809105210E+01  2.168558876E+02  1.250000000E+02  0.00000E+00  9.000E+00
      21     1     1     2   512   502 -2.160560930E+01  1.499766122E+00  2.505789865E+02  2.515131808E+02  2.697398305E-06  0.00000E+00  9.000E+00
#rwgt            1           1   8.6239498530233466E-002          10      368058           0
</event>
<event>
      5   9999  3.79277E-02  5.12361E+00 -1.00000E+00  2.36678E-01
      21    -1     0     0   502   501  0.000000000E+00  0.000000000E+00  1.694559120E+02  1.694559120E+02  0.000000000E+00  0.00000E+00  9.000E+00
      21    -1     0     0   511   502  0.000000000E+00  0.000000000E+00 -5.007101524E+02  5.007101524E+02  0.000000000E+00  0.00000E+00  9.000E+00
      25     1     1     2     0     0 -2.563417160E+02 -2.933157333E+01 -1.832834511E+02  3.402781803E+02  1.250000000E+02  0.00000E+00  9.000E+00
      25     1     1     2     0     0  2.568491025E+02  2.423315253E+01 -1.368968330E+02  3.176860872E+02  1.250000000E+02  0.00000E+00  9.000E+00
      21     1     1     2   511   501 -5.073864674E-01  5.098420801E+00 -1.107395637E+01  1.220179681E+01  2.665600750E-07  0.00000E+00  9.000E+00
#rwgt            1           1   3.2576810113729336E-002          10      368178           0
</event>
<event>
      5   9999  3.79277E-02  2.52034E+01 -1.00000E+00  1.58488E-01
      21    -1     0     0   512   501  0.000000000E+00  0.000000000E+00  2.369780267E+02  2.369780267E+02  0.000000000E+00  0.00000E+00  9.000E+00
      21    -1     0     0   501   502  0.000000000E+00  0.000000000E+00 -4.897983032E+02  4.897983032E+02  0.000000000E+00  0.00000E+00  9.000E+00
      25     1     1     2     0     0  1.317192118E+02 -1.217682711E+02  1.311058666E+02  2.549337382E+02  1.250000000E+02  0.00000E+00  9.000E+00
      25     1     1     2     0     0 -1.250577086E+02  1.460754138E+02 -3.832438344E+02  4.466299292E+02  1.250000000E+02  0.00000E+00  9.000E+00
      21     1     1     2   512   502 -6.661503221E+00 -2.430714269E+01 -6.823086502E-01  2.521266262E+01  2.575574222E-07  0.00000E+00  9.000E+00
#rwgt            1           1   3.5675649782865769E-002          10      368688           0
</event>
<event>
      5   9999  3.79277E-02  2.45443E+01 -1.00000E+00  1.59352E-01
      21    -1     0     0   502   501  0.000000000E+00  0.000000000E+00  6.424415048E+02  6.424415048E+02  0.000000000E+00  0.00000E+00  9.000E+00
      21    -1     0     0   511   502  0.000000000E+00  0.000000000E+00 -8.227567737E+01  8.227567737E+01  0.000000000E+00  0.00000E+00  9.000E+00
      25     1     1     2     0     0 -9.402527786E+01 -4.539288218E+01  6.929975116E+01  1.769992151E+02  1.250000000E+02  0.00000E+00  9.000E+00
      25     1     1     2     0     0  8.866976630E+01  2.143998549E+01  4.985376598E+02  5.220026807E+02  1.250000000E+02  0.00000E+00  9.000E+00
      21     1     1     2   511   501  5.355511567E+00  2.395289670E+01 -7.671583448E+00  2.571528644E+01  7.348554138E-07  0.00000E+00  9.000E+00
#rwgt            1           1   4.9827195065874512E-002          10      369005           0
</event>
<event>
      5   9999  3.79277E-02  1.06678E+02 -1.00000E+00  1.22578E-01
      21    -1     0     0   502   501  0.000000000E+00  0.000000000E+00  7.321445389E+01  7.321445389E+01  0.000000000E+00  0.00000E+00  9.000E+00
      21    -1     0     0   501   512  0.000000000E+00  0.000000000E+00 -1.092817604E+03  1.092817604E+03  0.000000000E+00  0.00000E+00  9.000E+00
      25     1     1     2     0     0 -6.811723807E+01  1.774483439E+02 -4.687583981E+02  5.210444402E+02  1.250000000E+02  0.00000E+00  9.000E+00
      25     1     1     2     0     0 -9.659181776E-01 -9.616080187E+01 -1.121819368E+02  1.935397111E+02  1.250000000E+02  0.00000E+00  9.000E+00
      21     1     1     2   502   512  6.908315625E+01 -8.128754199E+01 -4.386628154E+02  4.514479068E+02  0.000000000E+00  0.00000E+00  9.000E+00
#rwgt            1           1   3.4750394731422357E-002          10      369180           0
</event>
<event>
      5   9999  3.79277E-02  1.07715E+01 -1.00000E+00  1.92099E-01
      21    -1     0     0   502   501  0.000000000E+00  0.000000000E+00  2.673885755E+02  2.673885755E+02  0.000000000E+00  0.00000E+00  9.000E+00
      21    -1     0     0   511   502  0.000000000E+00  0.000000000E+00 -1.331836936E+02  1.331836936E+02  0.000000000E+00  0.00000E+00  9.000E+00
      25     1     1     2     0     0 -5.324788890E+01  4.842079378E+01 -7.324075627E-01  1.442409351E+02  1.250000000E+02  0.00000E+00  9.000E+00
      25     1     1     2     0     0  5.412150967E+01 -5.915676540E+01  1.664267832E+02  2.230505209E+02  1.250000000E+02  0.00000E+00  9.000E+00
      21     1     1     2   511   501 -8.736207766E-01  1.073597163E+01 -3.148949377E+01  3.328081306E+01  3.371747881E-07  0.00000E+00  9.000E+00
#rwgt            1           1   3.3011859733177912E-002          10      369240           0
</event>
<event>
      5   9999  3.79277E-02  3.67966E+02 -1.00000E+00  1.02788E-01
      21    -1     0     0   502   501  0.000000000E+00  0.000000000E+00  7.229630863E+02  7.229630863E+02  0.000000000E+00  0.00000E+00  9.000E+00
       1    -1     0     0   501     0  0.000000000E+00  0.000000000E+00 -1.258790075E+03  1.258790075E+03  0.000000000E+00  0.00000E+00  9.000E+00
      25     1     1     2     0     0  1.314494296E+02  2.877279820E+02  3.007477590E+02  4.540270462E+02  1.250000000E+02  0.00000E+00  9.000E+00
      25     1     1     2     0     0 -4.533121800E+02 -1.093929846E+02  1.245303519E+02  4.985895769E+02  1.250000000E+02  0.00000E+00  9.000E+00
       1     1     1     2   502     0  3.218627505E+02 -1.783349973E+02 -9.611050992E+02  1.029136538E+03  1.078959322E-05  0.00000E+00  9.000E+00
#rwgt            2          12   5.9914436619430537E-004          10      369612           0
</event>
<event>
      5   9999  3.79277E-02  4.02561E+01 -1.00000E+00  1.44668E-01
      21    -1     0     0   502   511  0.000000000E+00  0.000000000E+00  9.750168023E+02  9.750168023E+02  0.000000000E+00  0.00000E+00  9.000E+00
      21    -1     0     0   501   502  0.000000000E+00  0.000000000E+00 -1.747091850E+02  1.747091850E+02  0.000000000E+00  0.00000E+00  9.000E+00
      25     1     1     2     0     0  1.192095678E+02  2.353860326E+02  1.805703056E+02  3.432901698E+02  1.250000000E+02  0.00000E+00  9.000E+00
      25     1     1     2     0     0 -1.280407022E+02 -1.961105048E+02  9.775609174E+01  2.829045863E+02  1.250000000E+02  0.00000E+00  9.000E+00
      21     1     1     2   501   511  8.831134385E+00 -3.927552777E+01  5.219812199E+02  5.235312311E+02  0.000000000E+00  0.00000E+00  9.000E+00
#rwgt            1           1   3.6515276447064135E-002          10      369931           0
</event>
<event>
      5   9999  3.79277E-02  1.10164E+02 -1.00000E+00  1.21966E-01
       2    -1     0     0   502     0  0.000000000E+00  0.000000000E+00  1.469307767E+03  1.469307767E+03  0.000000000E+00  0.00000E+00  9.000E+00
      21    -1     0     0   501   502  0.000000000E+00  0.000000000E+00 -5.943671467E+02  5.943671467E+02  0.000000000E+00  0.00000E+00  9.000E+00
      25     1     1     2     0     0 -1.451325213E+02 -2.659045435E+02 -4.456894970E+02  5.532023162E+02  1.250000000E+02  0.00000E+00  9.000E+00
      25     1     1     2     0     0  2.239830973E+02  1.889720100E+02  1.827843387E+02  3.673063611E+02  1.250000000E+02  0.00000E+00  9.000E+00
       2     1     1     2   501     0 -7.885057607E+01  7.693253347E+01  1.137845779E+03  1.143166237E+03  1.525878906E-05  0.00000E+00  9.000E+00
#rwgt            1           1   3.1946005628152148E-002          10      370487           0
</event>
<event>
      5   9999  3.79277E-02  1.89936E+01 -1.00000E+00  1.68241E-01
      21    -1     0     0   502   501  0.000000000E+00  0.000000000E+00  1.161083521E+03  1.161083521E+03  0.000000000E+00  0.00000E+00  9.000E+00
      21    -1     0     0   511   502  0.000000000E+00  0.000000000E+00 -1.097735560E+02  1.097735560E+02  0.000000000E+00  0.00000E+00  9.000E+00
      25     1     1     2     0     0 -3.070791076E+02  2.863876817E+00  5.182058590E+02  6.151976044E+02  1.250000000E+02  0.00000E+00  9.000E+00
      25     1     1     2     0     0  3.257329916E+02  7.124948922E-01  5.325462242E+02  6.366576556E+02  1.250000000E+02  0.00000E+00  9.000E+00
      21     1     1     2   511   501 -1.865388404E+01 -3.576371709E+00  5.578818020E-01  1.900181719E+01  1.969829808E-07  0.00000E+00  9.000E+00
#rwgt            1           1   1.5536132546909717E-002          10      370651           0
</event>
<event>
      5   9999 -3.79277E-02  4.20676E+01 -1.00000E+00  1.43496E-01
      21    -1     0     0   502   501  0.000000000E+00  0.000000000E+00  4.807761809E+02  4.807761809E+02  0.000000000E+00  0.00000E+00  9.000E+00
      21    -1     0     0   501   512  0.000000000E+00  0.000000000E+00 -2.295151910E+02  2.295151910E+02  0.000000000E+00  0.00000E+00  9.000E+00
      25     1     1     2     0     0 -2.451805409E+02  1.472940059E+02  1.220186114E+02  3.351455853E+02  1.250000000E+02  0.00000E+00  9.000E+00
      25     1     1     2     0     0  2.560444153E+02 -1.066534161E+02  1.347100892E+02  3.327243633E+02  1.250000000E+02  0.00000E+00  9.000E+00
      21     1     1     2   502   512 -1.086387437E+01 -4.064058972E+01 -5.467710672E+00  4.242142335E+01  9.272306672E-07  0.00000E+00  9.000E+00
#rwgt            1           1 -0.50354787339134521               10      370895           0
</event>
<event>
      5   9999  3.79277E-02  4.21832E+01 -1.00000E+00  1.43423E-01
      21    -1     0     0   502   501  0.000000000E+00  0.000000000E+00  1.266229957E+02  1.266229957E+02  0.000000000E+00  0.00000E+00  9.000E+00
      21    -1     0     0   511   502  0.000000000E+00  0.000000000E+00 -6.028517487E+02  6.028517487E+02  0.000000000E+00  0.00000E+00  9.000E+00
      25     1     1     2     0     0 -8.326853056E+01 -1.278087312E+02  1.099443056E+01  1.975211316E+02  1.250000000E+02  0.00000E+00  9.000E+00
      25     1     1     2     0     0  5.103333103E+01  1.005999763E+02 -4.211796479E+02  4.535879759E+02  1.250000000E+02  0.00000E+00  9.000E+00
      21     1     1     2   511   501  3.223519953E+01  2.720875490E+01 -6.604353565E+01  7.836563681E+01  9.536743164E-07  0.00000E+00  9.000E+00
#rwgt            1           1   4.0718580018619582E-002          10      370995           0
</event>
<event>
      5   9999  3.79277E-02  3.89505E+01 -1.00000E+00  1.45560E-01
      21    -1     0     0   502   501  0.000000000E+00  0.000000000E+00  2.189529894E+02  2.189529894E+02  0.000000000E+00  0.00000E+00  9.000E+00
      21    -1     0     0   512   502  0.000000000E+00  0.000000000E+00 -4.236438956E+02  4.236438956E+02  0.000000000E+00  0.00000E+00  9.000E+00
      25     1     1     2     0     0  6.528701573E+01  7.461064896E+01 -1.501459474E+02  2.190843419E+02  1.250000000E+02  0.00000E+00  9.000E+00
      25     1     1     2     0     0 -1.042131858E+02 -7.323504654E+01  1.389246263E+02  2.261610310E+02  1.250000000E+02  0.00000E+00  9.000E+00
      21     1     1     2   512   501  3.892617004E+01 -1.375602421E+00 -1.934695851E+02  1.973515122E+02  2.697398305E-06  0.00000E+00  9.000E+00
#rwgt            1           1   3.4910467346035291E-002          10      371195           0
</event>
<event>
      5   9999  3.79277E-02  5.55972E+01 -1.00000E+00  1.36496E-01
      21    -1     0     0   511   501  0.000000000E+00  0.000000000E+00  2.644665118E+02  2.644665118E+02  0.000000000E+00  0.00000E+00  9.000E+00
      21    -1     0     0   501   502  0.000000000E+00  0.000000000E+00 -8.398578957E+02  8.398578957E+02  0.000000000E+00  0.00000E+00  9.000E+00
      25     1     1     2     0     0  1.298784589E+02  2.304100254E+02 -4.194325090E+02  5.113764010E+02  1.250000000E+02  0.00000E+00  9.000E+00
      25     1     1     2     0     0 -7.513220024E+01 -2.207197645E+02 -3.226433127E+02  4.172358675E+02  1.250000000E+02  0.00000E+00  9.000E+00
      21     1     1     2   511   502 -5.474625868E+01 -9.690260938E+00  1.666844378E+02  1.757121390E+02  3.303624740E-06  0.00000E+00  9.000E+00
#rwgt            1           1   6.9771359175685332E-002          10      371325           0
</event>
<event>
      5   9999  3.79277E-02  7.92396E+01 -1.00000E+00  1.28551E-01
      21    -1     0     0   512   501  0.000000000E+00  0.000000000E+00  1.418743040E+03  1.418743040E+03  0.000000000E+00  0.00000E+00  9.000E+00
      21    -1     0     0   501   502  0.000000000E+00  0.000000000E+00 -9.158719426E+01  9.158719426E+01  0.000000000E+00  0.00000E+00  9.000E+00
      25     1     1     2     0     0  1.770845625E+02  9.432534135E+01  1.108147567E+02  2.610768519E+02  1.250000000E+02  0.00000E+00  9.000E+00
      25     1     1     2     0     0 -1.113353780E+02 -5.009903180E+01  5.233757872E+02  5.517723208E+02  1.250000000E+02  0.00000E+00  9.000E+00
      21     1     1     2   512   502 -6.574918444E+01 -4.422630955E+01  6.929653023E+02  6.974810620E+02  0.000000000E+00  0.00000E+00  9.000E+00
#rwgt            1           1   4.0500603384065109E-002          10      371464           0
</event>
<event>
      5   9999  3.79277E-02  2.80449E+01 -1.00000E+00  1.55101E-01
       1    -1     0     0   502     0  0.000000000E+00  0.000000000E+00  2.520473074E+03  2.520473074E+03  0.000000000E+00  0.00000E+00  9.000E+00
      21    -1     0     0   501   502  0.000000000E+00  0.000000000E+00 -1.622525748E+02  1.622525748E+02  0.000000000E+00  0.00000E+00  9.000E+00
      25     1     1     2     0     0 -2.762295542E+01  9.040174292E+01  1.669748091E+02  2.290001958E+02  1.250000000E+02  0.00000E+00  9.000E+00
      25     1     1     2     0     0  1.615044513E+01 -1.159926895E+02 -7.522586893E+01  1.870803898E+02  1.250000000E+02  0.00000E+00  9.000E+00
       1     1     1     2   501     0  1.147251029E+01  2.559094653E+01  2.266471559E+03  2.266645063E+03  3.051757812E-05  0.00000E+00  9.000E+00
#rwgt            1           1   4.9882915195897187E-002          10      371542           0
</event>
<event>
      5   9999  3.79277E-02  5.02587E+00 -1.00000E+00  2.38126E-01
      21    -1     0     0   502   511  0.000000000E+00  0.000000000E+00  2.286079087E+02  2.286079087E+02  0.000000000E+00  0.00000E+00  9.000E+00
      21    -1     0     0   501   502  0.000000000E+00  0.000000000E+00 -1.318340203E+02  1.318340203E+02  0.000000000E+00  0.00000E+00  9.000E+00
      25     1     1     2     0     0  3.049997493E+01 -1.248051764E+01  1.584370112E+02  2.044830025E+02  1.250000000E+02  0.00000E+00  9.000E+00
      25     1     1     2     0     0 -2.548889098E+01  1.209529827E+01 -7.015485990E+01  1.460913556E+02  1.250000000E+02  0.00000E+00  9.000E+00
      21     1     1     2   501   511 -5.011083945E+00  3.852193646E-01  8.491737186E+00  9.867570963E+00  1.685873940E-07  0.00000E+00  9.000E+00
#rwgt            1           1   5.2195354986424150E-002          10      371629           0
</event>
<event>
      5   9999  3.79277E-02  1.00687E+02 -1.00000E+00  1.23694E-01
      21    -1     0     0   502   501  0.000000000E+00  0.000000000E+00  4.218573509E+02  4.218573509E+02  0.000000000E+00  0.00000E+00  9.000E+00
      21    -1     0     0   501   512  0.000000000E+00  0.000000000E+00 -1.890215978E+02  1.890215978E+02  0.000000000E+00  0.00000E+00  9.000E+00
      25     1     1     2     0     0 -2.863593880E+01  9.695637540E+01  2.286961458E+01  1.623840355E+02  1.250000000E+02  0.00000E+00  9.000E+00
      25     1     1     2     0     0  1.229559131E+02 -1.321925153E+02  2.564328704E+02  3.376030727E+02  1.250000000E+02  0.00000E+00  9.000E+00
      21     1     1     2   502   512 -9.431997434E+01  3.523613993E+01 -4.646673179E+01  1.108918405E+02  1.651812370E-06  0.00000E+00  9.000E+00
#rwgt            1           1   3.5022088020942838E-002          10      372151           0
</event>
<event>
      5   9999  3.79277E-02  2.74084E+01 -1.00000E+00  1.55816E-01
       1    -1     0     0   502     0  0.000000000E+00  0.000000000E+00  5.594860966E+02  5.594860966E+02  0.000000000E+00  0.00000E+00  9.000E+00
      21    -1     0     0   501   502  0.000000000E+00  0.000000000E+00 -2.349849990E+02  2.349849990E+02  0.000000000E+00  0.00000E+00  9.000E+00
      25     1     1     2     0     0  1.315976880E+02  1.360229333E+02  6.144447726E+01  2.349906671E+02  1.250000000E+02  0.00000E+00  9.000E+00
      25     1     1     2     0     0 -1.497321824E+02 -1.154714804E+02 -6.062900704E+01  2.346364544E+02  1.250000000E+02  0.00000E+00  9.000E+00
       1     1     1     2   501     0  1.813449444E+01 -2.055145288E+01  3.236856274E+02  3.248439740E+02  6.607249480E-06  0.00000E+00  9.000E+00
#rwgt            1           1   3.4525896736895989E-002          10      372274           0
</event>
<event>
      5   9999  3.79277E-02  1.64569E+01 -1.00000E+00  1.73673E-01
      21    -1     0     0   502   501  0.000000000E+00  0.000000000E+00  7.571572446E+02  7.571572446E+02  0.000000000E+00  0.00000E+00  9.000E+00
      21    -1     0     0   501   511  0.000000000E+00  0.000000000E+00 -5.002863503E+01  5.002863503E+01  0.000000000E+00  0.00000E+00  9.000E+00
      25     1     1     2     0     0  3.057686707E+01 -1.205704579E+02  3.617315539E+02  4.024262631E+02  1.250000000E+02  0.00000E+00  9.000E+00
      25     1     1     2     0     0 -1.704957209E+01  1.299428584E+02  3.433338496E+02  3.881738871E+02  1.250000000E+02  0.00000E+00  9.000E+00
      21     1     1     2   502   511 -1.352729499E+01 -9.372400483E+00  2.063206038E+00  1.658572940E+01  2.698715072E-07  0.00000E+00  9.000E+00
#rwgt            1           1   3.2041622106793607E-002          10      372486           0
</event>
<event>
      5   9999  3.79277E-02  1.47130E+02 -1.00000E+00  1.16727E-01
      21    -1     0     0   502   501  0.000000000E+00  0.000000000E+00  3.299187997E+02  3.299187997E+02  0.000000000E+00  0.00000E+00  9.000E+00
       1    -1     0     0   501     0  0.000000000E+00  0.000000000E+00 -1.015053177E+03  1.015053177E+03  0.000000000E+00  0.00000E+00  9.000E+00
      25     1     1     2     0     0 -2.650943662E+02 -1.399683155E+02  2.709319947E+01  3.259220670E+02  1.250000000E+02  0.00000E+00  9.000E+00
      25     1     1     2     0     0  2.047407356E+02  5.787298007E+00  4.800804233E+01  2.447080582E+02  1.250000000E+02  0.00000E+00  9.000E+00
       1     1     1     2   502     0  6.035363054E+01  1.341810175E+02 -7.602356194E+02  7.743418517E+02  1.078959322E-05  0.00000E+00  9.000E+00
#rwgt            1           1   4.0415760273925995E-002          10      372818           0
</event>
<event>
      5   9999  3.79277E-02  2.22346E+01 -1.00000E+00  1.62661E-01
      21    -1     0     0   502   511  0.000000000E+00  0.000000000E+00  1.250633611E+03  1.250633611E+03  0.000000000E+00  0.00000E+00  9.000E+00
      21    -1     0     0   501   502  0.000000000E+00  0.000000000E+00 -1.862394550E+02  1.862394550E+02  0.000000000E+00  0.00000E+00  9.000E+00
      25     1     1     2     0     0 -3.610787094E+01  2.476064971E+02  3.298237258E+02  4.324597621E+02  1.250000000E+02  0.00000E+00  9.000E+00
      25     1     1     2     0     0  2.152993357E+01 -2.308177295E+02 -6.066294819E+00  2.634429013E+02  1.250000000E+02  0.00000E+00  9.000E+00
      21     1     1     2   501   511  1.457793737E+01 -1.678876756E+01  7.406367252E+02  7.409704027E+02  0.000000000E+00  0.00000E+00  9.000E+00
#rwgt            1           1   3.7341432344274950E-002          10      372863           0
</event>
<event>
      5   9999  3.79277E-02  2.46328E+01 -1.00000E+00  1.59234E-01
      21    -1     0     0   502   501  0.000000000E+00  0.000000000E+00  3.065686433E+01  3.065686433E+01  0.000000000E+00  0.00000E+00  9.000E+00
      21    -1     0     0   512   502  0.000000000E+00  0.000000000E+00 -1.285190131E+03  1.285190131E+03  0.000000000E+00  0.00000E+00  9.000E+00
      25     1     1     2     0     0  1.142121491E+02 -7.194543807E+01 -4.775159376E+02  5.117294517E+02  1.250000000E+02  0.00000E+00  9.000E+00
      25     1     1     2     0     0 -1.233411593E+02  4.906673384E+01 -6.891427060E+02  7.128557044E+02  1.250000000E+02  0.00000E+00  9.000E+00
      21     1     1     2   512   501  9.129010183E+00  2.287870423E+01 -8.787462258E+01  9.126183883E+01  1.348699152E-06  0.00000E+00  9.000E+00
#rwgt            1           1   4.9245226170157946E-002          10      373167           0
</event>
<event>
      5   9999  3.79277E-02  4.85154E+01 -1.00000E+00  1.39827E-01
      21    -1     0     0   502   511  0.000000000E+00  0.000000000E+00  1.323546918E+02  1.323546918E+02  0.000000000E+00  0.00000E+00  9.000E+00
      21    -1     0     0   501   502  0.000000000E+00  0.000000000E+00 -3.463360578E+02  3.463360578E+02  0.000000000E+00  0.00000E+00  9.000E+00
      25     1     1     2     0     0 -1.346607469E+02 -4.112008991E+01 -1.223196640E+02  2.245250070E+02  1.250000000E+02  0.00000E+00  9.000E+00
      25     1     1     2     0     0  1.127921988E+02  8.442726499E+01 -7.703865440E+01  2.034944654E+02  1.250000000E+02  0.00000E+00  9.000E+00
      21     1     1     2   501   511  2.186854812E+01 -4.330717507E+01 -1.462304756E+01  5.067127717E+01  6.743495762E-07  0.00000E+00  9.000E+00
#rwgt            1           1   3.3623347930627309E-002          10      373611           0
</event>
<event>
      5   9999  3.79277E-02  1.43422E+02 -1.00000E+00  1.17171E-01
      21    -1     0     0   502   501  0.000000000E+00  0.000000000E+00  3.931740638E+02  3.931740638E+02  0.000000000E+00  0.00000E+00  9.000E+00
      21    -1     0     0   501   512  0.000000000E+00  0.000000000E+00 -2.954724527E+02  2.954724527E+02  0.000000000E+00  0.00000E+00  9.000E+00
      25     1     1     2     0     0 -2.704829777E+02 -9.003406735E+01  6.418165199E+01  3.178229994E+02  1.250000000E+02  0.00000E+00  9.000E+00
      25     1     1     2     0     0  1.836259759E+02 -2.409609666E+01  4.116751515E+01  2.271978988E+02  1.250000000E+02  0.00000E+00  9.000E+00
      21     1     1     2   502   512  8.685700176E+01  1.141301640E+02 -7.647556026E+00  1.436256182E+02  1.985827833E-06  0.00000E+00  9.000E+00
#rwgt            2          11   2.6208303963924083E-003          10      373757           0
</event>
<event>
      5   9999  3.79277E-02  2.21291E+02 -1.00000E+00  1.10072E-01
      21    -1     0     0   502   501  0.000000000E+00  0.000000000E+00  6.989242664E+02  6.989242664E+02  0.000000000E+00  0.00000E+00  9.000E+00
      21    -1     0     0   511   502  0.000000000E+00  0.000000000E+00 -3.386051557E+02  3.386051557E+02  0.000000000E+00  0.00000E+00  9.000E+00
      25     1     1     2     0     0  1.973032271E+02  9.659737862E+01 -5.258385728E+01  2.581659912E+02  1.250000000E+02  0.00000E+00  9.000E+00
      25     1     1     2     0     0 -3.787829782E+01  5.687331896E+01  5.159504357E+02  5.352561928E+02  1.250000000E+02  0.00000E+00  9.000E+00
      21     1     1     2   511   501 -1.594249293E+02 -1.534706976E+02 -1.030474677E+02  2.441072381E+02  6.180515955E-06  0.00000E+00  9.000E+00
#rwgt            2          11   1.8055478936584988E-003          10      373852           0
</event>
<event>
      5   9999  3.79277E-02  7.14310E+01 -1.00000E+00  1.30777E-01
      21    -1     0     0   502   501  0.000000000E+00  0.000000000E+00  1.448874168E+02  1.448874168E+02  0.000000000E+00  0.00000E+00  9.000E+00
      21    -1     0     0   512   502  0.000000000E+00  0.000000000E+00 -2.302668945E+03  2.302668945E+03  0.000000000E+00  0.00000E+00  9.000E+00
      25     1     1     2     0     0  4.048425602E+01 -6.521480886E+01  5.465673326E+01  1.565385089E+02  1.250000000E+02  0.00000E+00  9.000E+00
      25     1     1     2     0     0 -4.092629577E+01  1.366444456E+02 -1.939693532E+02  2.712854146E+02  1.250000000E+02  0.00000E+00  9.000E+00
      21     1     1     2   512   501  4.420397506E-01 -7.142963671E+01 -2.018468909E+03  2.019732438E+03  0.000000000E+00  0.00000E+00  9.000E+00
#rwgt            1           1   4.0316483849468079E-002          10      373932           0
</event>
<event>
      5   9999  3.79277E-02  3.51481E+01 -1.00000E+00  1.48411E-01
      21    -1     0     0   502   501  0.000000000E+00  0.000000000E+00  1.571102169E+03  1.571102169E+03  0.000000000E+00  0.00000E+00  9.000E+00
      21    -1     0     0   501   511  0.000000000E+00  0.000000000E+00 -5.135747599E+01  5.135747599E+01  0.000000000E+00  0.00000E+00  9.000E+00
      25     1     1     2     0     0  1.538833699E+02  1.899859671E+02  6.465917679E+02  7.024817959E+02  1.250000000E+02  0.00000E+00  9.000E+00
      25     1     1     2     0     0 -1.257153541E+02 -1.689633422E+02  8.234901221E+02  8.591355786E+02  1.250000000E+02  0.00000E+00  9.000E+00
      21     1     1     2   502   511 -2.816801573E+01 -2.102262496E+01  4.966280276E+01  6.084227024E+01  9.536743164E-07  0.00000E+00  9.000E+00
#rwgt            1           1  0.27211881466506127               10      374030           0
</event>
<event>
      5   9999  3.79277E-02  2.08156E+01 -1.00000E+00  1.64949E-01
      21    -1     0     0   502   501  0.000000000E+00  0.000000000E+00  8.737550959E+02  8.737550959E+02  0.000000000E+00  0.00000E+00  9.000E+00
      21    -1     0     0   512   502  0.000000000E+00  0.000000000E+00 -7.437549028E+01  7.437549028E+01  0.000000000E+00  0.00000E+00  9.000E+00
      25     1     1     2     0     0 -7.938766989E+01  6.981336635E+01  7.129043337E+01  1.785598895E+02  1.250000000E+02  0.00000E+00  9.000E+00
      25     1     1     2     0     0  9.100158141E+01 -5.253893229E+01  7.305788298E+02  7.486067417E+02  1.250000000E+02  0.00000E+00  9.000E+00
      21     1     1     2   512   501 -1.161391152E+01 -1.727443405E+01 -2.489657537E+00  2.096395495E+01  2.308477966E-07  0.00000E+00  9.000E+00
#rwgt            1           1   2.8719552413197784E-002          10      374145           0
</event>
<event>
      5   9999  3.79277E-02  4.08048E+01 -1.00000E+00  1.44306E-01
      21    -1     0     0   511   501  0.000000000E+00  0.000000000E+00  3.366610424E+02  3.366610424E+02  0.000000000E+00  0.00000E+00  9.000E+00
      21    -1     0     0   501   502  0.000000000E+00  0.000000000E+00 -2.564226763E+02  2.564226763E+02  0.000000000E+00  0.00000E+00  9.000E+00
      25     1     1     2     0     0 -1.089547435E+02  2.793204380E+01 -1.973206263E+02  2.592523187E+02  1.250000000E+02  0.00000E+00  9.000E+00
      25     1     1     2     0     0  6.824107661E+01 -2.520654597E+01  2.131754935E+02  2.576062994E+02  1.250000000E+02  0.00000E+00  9.000E+00
      21     1     1     2   511   502  4.071366692E+01 -2.725497832E+00  6.438349894E+01  7.622510051E+01  9.536743164E-07  0.00000E+00  9.000E+00
#rwgt            1           1   3.0471657832587616E-002          10      374317           0
</event>
<event>
      5   9999  3.79277E-02  2.04727E+01 -1.00000E+00  1.65536E-01
      21    -1     0     0   502   512  0.000000000E+00  0.000000000E+00  9.768183911E+02  9.768183911E+02  0.000000000E+00  0.00000E+00  9.000E+00
      21    -1     0     0   501   502  0.000000000E+00  0.000000000E+00 -1.635526014E+02  1.635526014E+02  0.000000000E+00  0.00000E+00  9.000E+00
      25     1     1     2     0     0  1.735876507E+02 -2.659940950E+02  1.396035012E+02  3.687813290E+02  1.250000000E+02  0.00000E+00  9.000E+00
      25     1     1     2     0     0 -1.939513207E+02  2.681041931E+02  6.520763640E+02  7.418393071E+02  1.250000000E+02  0.00000E+00  9.000E+00
      21     1     1     2   501   512  2.036366999E+01 -2.110098036E+00  2.158592448E+01  2.975035638E+01  5.840038640E-07  0.00000E+00  9.000E+00
#rwgt            1           1   5.0079293888247590E-002          10      374503           0
</event>
<event>
      5   9999  3.79277E-02  3.63657E+01 -1.00000E+00  1.47453E-01
      21    -1     0     0   502   501  0.000000000E+00  0.000000000E+00  4.027840234E+02  4.027840234E+02  0.000000000E+00  0.00000E+00  9.000E+00
      21    -1     0     0   501   511  0.000000000E+00  0.000000000E+00 -1.193400998E+02  1.193400998E+02  0.000000000E+00  0.00000E+00  9.000E+00
      25     1     1     2     0     0  5.282234639E+01  1.958488502E+01  3.039932346E+02  3.334826152E+02  1.250000000E+02  0.00000E+00  9.000E+00
      25     1     1     2     0     0 -5.362776793E+01  1.677193047E+01  1.490072150E+01  1.378559634E+02  1.250000000E+02  0.00000E+00  9.000E+00
      21     1     1     2   502   511  8.054215401E-01 -3.635681549E+01 -3.545003243E+01  5.078554456E+01  0.000000000E+00  0.00000E+00  9.000E+00
#rwgt            1           1   2.6466543045091082E-002          10      374753           0
</event>
<event>
      5   9999  3.79277E-02  8.46696E+00 -1.00000E+00  2.04501E-01
      21    -1     0     0   512   501  0.000000000E+00  0.000000000E+00  4.767668222E+02  4.767668222E+02  0.000000000E+00  0.00000E+00  9.000E+00
      21    -1     0     0   501   502  0.000000000E+00  0.000000000E+00 -1.639794616E+02  1.639794616E+02  0.000000000E+00  0.00000E+00  9.000E+00
      25     1     1     2     0     0  1.794361896E+02  1.464194828E+02  7.507799891E+01  2.736744727E+02  1.250000000E+02  0.00000E+00  9.000E+00
      25     1     1     2     0     0 -1.757001507E+02 -1.540176023E+02  2.100304376E+02  3.381268246E+02  1.250000000E+02  0.00000E+00  9.000E+00
      21     1     1     2   512   502 -3.736038899E+00  7.598119496E+00  2.767892404E+01  2.894498649E+01  3.371747881E-07  0.00000E+00  9.000E+00
#rwgt            1           1   4.9049149024001190E-002          10      374932           0
</event>
<event>
      5   9999  3.79277E-02  1.47312E+02 -1.00000E+00  1.16706E-01
      21    -1     0     0   502   501  0.000000000E+00  0.000000000E+00  3.240956436E+02  3.240956436E+02  0.000000000E+00  0.00000E+00  9.000E+00
      21    -1     0     0   501   511  0.000000000E+00  0.000000000E+00 -2.648089929E+02  2.648089929E+02  0.000000000E+00  0.00000E+00  9.000E+00
      25     1     1     2     0     0 -2.003961387E+02 -7.238051752E+00  8.146470605E+01  2.499449942E+02  1.250000000E+02  0.00000E+00  9.000E+00
      25     1     1     2     0     0  8.819594798E+01 -8.821804030E+01  3.661072300E+01  1.803504724E+02  1.250000000E+02  0.00000E+00  9.000E+00
      21     1     1     2   502   511  1.122001907E+02  9.545609205E+01 -5.878877830E+01  1.586091699E+02  1.348699152E-06  0.00000E+00  9.000E+00
#rwgt            2          11   2.3886167163343318E-003          10      375212           0
</event>
<event>
      5   9999  3.79277E-02  2.05266E+01 -1.00000E+00  1.65443E-01
      21    -1     0     0   502   501  0.000000000E+00  0.000000000E+00  1.770493691E+02  1.770493691E+02  0.000000000E+00  0.00000E+00  9.000E+00
      21    -1     0     0   512   502  0.000000000E+00  0.000000000E+00 -6.323924764E+02  6.323924764E+02  0.000000000E+00  0.00000E+00  9.000E+00
      25     1     1     2     0     0  1.024605409E+02  1.346685571E+02 -4.914603328E+01  2.160419295E+02  1.250000000E+02  0.00000E+00  9.000E+00
      25     1     1     2     0     0 -8.760174831E+01 -1.205066601E+02 -7.964876270E+00  1.946390523E+02  1.250000000E+02  0.00000E+00  9.000E+00
      21     1     1     2   512   501 -1.485879257E+01 -1.416189705E+01 -3.982321977E+02  3.987608636E+02  5.394796609E-06  0.00000E+00  9.000E+00
#rwgt            1           1   4.4375948812152198E-002          10      375232           0
</event>
<event>
      5   9999  3.79277E-02  8.53121E+00 -1.00000E+00  2.04086E-01
      21    -1     0     0   502   511  0.000000000E+00  0.000000000E+00  4.450072443E+02  4.450072443E+02  0.000000000E+00  0.00000E+00  9.000E+00
      21    -1     0     0   501   502  0.000000000E+00  0.000000000E+00 -1.035968522E+02  1.035968522E+02  0.000000000E+00  0.00000E+00  9.000E+00
      25     1     1     2     0     0  2.583152127E+01  1.072151333E+02  3.315710945E+02  3.711155386E+02  1.250000000E+02  0.00000E+00  9.000E+00
      25     1     1     2     0     0 -2.197361957E+01 -9.960605306E+01 -3.823503577E+00  1.613809931E+02  1.250000000E+02  0.00000E+00  9.000E+00
      21     1     1     2   501   511 -3.857901705E+00 -7.609080233E+00  1.366280113E+01  1.610756475E+01  2.384185791E-07  0.00000E+00  9.000E+00
#rwgt            1           1   5.2244700477148652E-002          10      375427           0
</event>
<event>
      5   9999  3.79277E-02  2.21083E+01 -1.00000E+00  1.62856E-01
      21    -1     0     0   512   501  0.000000000E+00  0.000000000E+00  2.425659027E+02  2.425659027E+02  0.000000000E+00  0.00000E+00  9.000E+00
      21    -1     0     0   501   502  0.000000000E+00  0.000000000E+00 -7.274842050E+02  7.274842050E+02  0.000000000E+00  0.00000E+00  9.000E+00
      25     1     1     2     0     0  1.813824469E+02  1.309463955E+02 -6.141621408E+02  6.654822956E+02  1.250000000E+02  0.00000E+00  9.000E+00
      25     1     1     2     0     0 -1.908111063E+02 -1.109495021E+02  1.179687039E+02  2.797503984E+02  1.250000000E+02  0.00000E+00  9.000E+00
      21     1     1     2   512   502  9.428659372E+00 -1.999689341E+01  1.127513463E+01  2.481741374E+01  3.953724850E-07  0.00000E+00  9.000E+00
#rwgt            1           1   4.5219008340481530E-002          10      375763           0
</event>
<event>
      5   9999  3.79277E-02  3.93755E+01 -1.00000E+00  1.45265E-01
      21    -1     0     0   511   501  0.000000000E+00  0.000000000E+00  7.225479378E+01  7.225479378E+01  0.000000000E+00  0.00000E+00  9.000E+00
      21    -1     0     0   501   502  0.000000000E+00  0.000000000E+00 -1.672220206E+03  1.672220206E+03  0.000000000E+00  0.00000E+00  9.000E+00
      25     1     1     2     0     0 -1.496210874E+02 -2.852819886E+01 -7.200466421E+02  7.465202574E+02  1.250000000E+02  0.00000E+00  9.000E+00
      25     1     1     2     0     0  1.103485949E+02  3.137480831E+01 -9.236529930E+02  9.391065128E+02  1.250000000E+02  0.00000E+00  9.000E+00
      21     1     1     2   511   502  3.927249249E+01 -2.846609449E+00  4.373422296E+01  5.884822945E+01  1.784161275E-06  0.00000E+00  9.000E+00
#rwgt            1           1   4.6475634482367773E-002          10      376104           0
</event>
<event>
      5   9999  3.79277E-02  4.21202E+01 -1.00000E+00  1.43463E-01
      21    -1     0     0   502   501  0.000000000E+00  0.000000000E+00  2.571187307E+02  2.571187307E+02  0.000000000E+00  0.00000E+00  9.000E+00
      21    -1     0     0   512   502  0.000000000E+00  0.000000000E+00 -1.769926357E+02  1.769926357E+02  0.000000000E+00  0.00000E+00  9.000E+00
      25     1     1     2     0     0 -3.532792122E+00  1.225042141E+02 -5.165011041E+01  1.825171142E+02  1.250000000E+02  0.00000E+00  9.000E+00
      25     1     1     2     0     0 -4.105477031E-01 -8.056905018E+01  1.447402266E+02  2.075241518E+02  1.250000000E+02  0.00000E+00  9.000E+00
      21     1     1     2   512   501  3.943339825E+00 -4.193516389E+01 -1.296402118E+01  4.407010035E+01  1.039242493E-06  0.00000E+00  9.000E+00
#rwgt            1           1   3.4362500642598076E-002          10      376243           0
</event>
<event>
      5   9999  3.79277E-02  1.21575E+01 -1.00000E+00  1.86435E-01
      21    -1     0     0   502   501  0.000000000E+00  0.000000000E+00  9.573735965E+01  9.573735965E+01  0.000000000E+00  0.00000E+00  9.000E+00
      21    -1     0     0   501   511  0.000000000E+00  0.000000000E+00 -3.508521133E+02  3.508521133E+02  0.000000000E+00  0.00000E+00  9.000E+00
      25     1     1     2     0     0  8.883797634E+01  7.568022855E+01 -6.494948008E+01  1.829292705E+02  1.250000000E+02  0.00000E+00  9.000E+00
      25     1     1     2     0     0 -7.969903351E+01 -8.369794712E+01 -1.806017124E+02  2.481919838E+02  1.250000000E+02  0.00000E+00  9.000E+00
      21     1     1     2   502   511 -9.138942835E+00  8.017718573E+00 -9.563561167E+00  1.546821869E+01  2.064765462E-07  0.00000E+00  9.000E+00
#rwgt            1           1   3.6288855125495158E-002          10      376340           0
</event>
<event>
      5   9999  3.79277E-02  3.47627E+01 -1.00000E+00  1.48724E-01
      21    -1     0     0   512   501  0.000000000E+00  0.000000000E+00  3.505825285E+02  3.505825285E+02  0.000000000E+00  0.00000E+00  9.000E+00
      21    -1     0     0   501   502  0.000000000E+00  0.000000000E+00 -1.305711316E+02  1.305711316E+02  0.000000000E+00  0.00000E+00  9.000E+00
      25     1     1     2     0     0 -3.790751251E+01  5.303147395E+01 -5.288423520E+01  1.505691172E+02  1.250000000E+02  0.00000E+00  9.000E+00
      25     1     1     2     0     0  7.007688182E+01 -3.985662893E+01  1.947429954E+02  2.450492899E+02  1.250000000E+02  0.00000E+00  9.000E+00
      21     1     1     2   512   502 -3.216936931E+01 -1.317484503E+01  7.815263666E+01  8.553525285E+01  0.000000000E+00  0.00000E+00  9.000E+00
#rwgt            1           1   2.5499023858793626E-002          10      376607           0
</event>
<event>
      5   9999  3.79277E-02  1.26815E+01 -1.00000E+00  1.84540E-01
      21    -1     0     0   502   501  0.000000000E+00  0.000000000E+00  8.639773020E+02  8.639773020E+02  0.000000000E+00  0.00000E+00  9.000E+00
      21    -1     0     0   511   502  0.000000000E+00  0.000000000E+00 -3.161590061E+01  3.161590061E+01  0.000000000E+00  0.00000E+00  9.000E+00
      25     1     1     2     0     0  2.118412217E+01  7.662504679E+01  5.860861508E+02  6.045181064E+02  1.250000000E+02  0.00000E+00  9.000E+00
      25     1     1     2     0     0 -2.357406296E+01 -6.417075265E+01  2.259086857E+02  2.670830511E+02  1.250000000E+02  0.00000E+00  9.000E+00
      21     1     1     2   511   501  2.389940788E+00 -1.245429414E+01  2.036656493E+01  2.399204507E+01  4.129530925E-07  0.00000E+00  9.000E+00
#rwgt            1           1   5.5796114777332664E-002          10      376776           0
</event>
<event>
      5   9999  3.79277E-02  4.53616E+01 -1.00000E+00  1.41532E-01
      21    -1     0     0   502   501  0.000000000E+00  0.000000000E+00  8.205855809E+02  8.205855809E+02  0.000000000E+00  0.00000E+00  9.000E+00
      21    -1     0     0   501   512  0.000000000E+00  0.000000000E+00 -1.493275234E+02  1.493275234E+02  0.000000000E+00  0.00000E+00  9.000E+00
      25     1     1     2     0     0 -1.301398025E+02  1.824001563E+02  4.044269558E+02  4.789492121E+02  1.250000000E+02  0.00000E+00  9.000E+00
      25     1     1     2     0     0  1.475155026E+02 -1.404983184E+02  3.335147326E+02  4.103141209E+02  1.250000000E+02  0.00000E+00  9.000E+00
      21     1     1     2   502   512 -1.737570011E+01 -4.190183784E+01 -6.668363096E+01  8.064977127E+01  1.651812370E-06  0.00000E+00  9.000E+00
#rwgt            1           1   4.4432700001224179E-002          10      376983           0
</event>
<event>
      5   9999  3.79277E-02  3.77530E+01 -1.00000E+00  1.46415E-01
      21    -1     0     0   502   511  0.000000000E+00  0.000000000E+00  2.184658505E+02  2.184658505E+02  0.000000000E+00  0.00000E+00  9.000E+00
      21    -1     0     0   501   502  0.000000000E+00  0.000000000E+00 -3.268970279E+02  3.268970279E+02  0.000000000E+00  0.00000E+00  9.000E+00
      25     1     1     2     0     0  1.948140150E+02  2.938453449E+01 -4.346950454E+01  2.373405763E+02  1.250000000E+02  0.00000E+00  9.000E+00
      25     1     1     2     0     0 -2.194974898E+02 -8.186133662E-01 -8.339880764E+01  2.660078556E+02  1.250000000E+02  0.00000E+00  9.000E+00
      21     1     1     2   501   511  2.468347473E+01 -2.856592113E+01  1.843713476E+01  4.201444648E+01  9.233911863E-07  0.00000E+00  9.000E+00
#rwgt            1           1   4.1777484317597813E-002          10      377147           0
</event>
<event>
      5   9999 -3.79277E-02  1.17843E+02 -1.00000E+00  1.20704E-01
      21    -1     0     0   512   501  0.000000000E+00  0.000000000E+00  1.398978250E+03  1.398978250E+03  0.000000000E+00  0.00000E+00  9.000E+00
      21    -1     0     0   501   502  0.000000000E+00  0.000000000E+00 -1.011741887E+02  1.011741887E+02  0.000000000E+00  0.00000E+00  9.000E+00
      25     1     1     2     0     0  4.388064090E+01  2.064486981E+02  1.883511764E+02  3.092696901E+02  1.250000000E+02  0.00000E+00  9.000E+00
      25     1     1     2     0     0 -9.891058910E+01 -1.022434837E+02  2.061610342E+02  2.799364332E+02  1.250000000E+02  0.00000E+00  9.000E+00
      21     1     1     2   512   502  5.502994820E+01 -1.042052144E+02  9.032918511E+02  9.109463157E+02  1.525878906E-05  0.00000E+00  9.000E+00
#rwgt            1           1  -5.9443936730282490E-002          10      377329           0
</event>
<event>
      5   9999  3.79277E-02  2.09155E+01 -1.00000E+00  1.64781E-01
       1    -1     0     0   502     0  0.000000000E+00  0.000000000E+00  4.897696320E+02  4.897696320E+02  0.000000000E+00  0.00000E+00  9.000E+00
      21    -1     0     0   501   502  0.000000000E+00  0.000000000E+00 -4.978231114E+02  4.978231114E+02  0.000000000E+00  0.00000E+00  9.000E+00
      25     1     1     2     0     0  4.999268075E+01  2.565007774E+00 -1.220201716E+02  1.817134273E+02  1.250000000E+02  0.00000E+00  9.000E+00
      25     1     1     2     0     0 -5.360258619E+01 -2.316661604E+01 -3.319461354E+02  3.594762386E+02  1.250000000E+02  0.00000E+00  9.000E+00
       1     1     1     2   501     0  3.609905443E+00  2.060160826E+01  4.459128277E+02  4.464030774E+02  7.629394531E-06  0.00000E+00  9.000E+00
#rwgt            1           1   7.7683769937484146E-002          10      377404           0
</event>
<event>
      5   9999  3.79277E-02  3.79820E+01 -1.00000E+00  1.46248E-01
      21    -1     0     0   511   501  0.000000000E+00  0.000000000E+00  4.311597551E+02  4.311597551E+02  0.000000000E+00  0.00000E+00  9.000E+00
      21    -1     0     0   501   502  0.000000000E+00  0.000000000E+00 -2.338663538E+02  2.338663538E+02  0.000000000E+00  0.00000E+00  9.000E+00
      25     1     1     2     0     0  4.506300848E+01  2.578046755E+02  1.615442386E+02  3.319871481E+02  1.250000000E+02  0.00000E+00  9.000E+00
      25     1     1     2     0     0 -2.427456131E+01 -2.260167497E+02 -2.581657746E+01  2.606996761E+02  1.250000000E+02  0.00000E+00  9.000E+00
      21     1     1     2   511   502 -2.078844717E+01 -3.178792583E+01  6.156574012E+01  7.233928477E+01  1.348699152E-06  0.00000E+00  9.000E+00
#rwgt            1           1   3.2935874011839950E-002          10      377672           0
</event>
<event>
      5   9999  3.79277E-02  3.02946E+01 -1.00000E+00  1.52746E-01
      21    -1     0     0   512   501  0.000000000E+00  0.000000000E+00  8.315314106E+01  8.315314106E+01  0.000000000E+00  0.00000E+00  9.000E+00
      21    -1     0     0   501   502  0.000000000E+00  0.000000000E+00 -5.308920217E+02  5.308920217E+02  0.000000000E+00  0.00000E+00  9.000E+00
      25     1     1     2     0     0  9.185190536E+01  4.154965342E+01 -4.981577227E+01  1.681361275E+02  1.250000000E+02  0.00000E+00  9.000E+00
      25     1     1     2     0     0 -6.889582829E+01 -6.131785560E+01 -3.804361586E+02  4.109296598E+02  1.250000000E+02  0.00000E+00  9.000E+00
      21     1     1     2   512   502 -2.295607707E+01  1.976820218E+01 -1.748694985E+01  3.497937545E+01  4.129530925E-07  0.00000E+00  9.000E+00
#rwgt            1           1   3.8861905983647874E-002          10      377817           0
</event>
<event>
      5   9999  3.79277E-02  1.10381E+02 -1.00000E+00  1.21929E-01
      21    -1     0     0   502   501  0.000000000E+00  0.000000000E+00  3.641665470E+01  3.641665470E+01  0.000000000E+00  0.00000E+00  9.000E+00
      21    -1     0     0   501   511  0.000000000E+00  0.000000000E+00 -2.299721923E+03  2.299721923E+03  0.000000000E+00  0.00000E+00  9.000E+00
      25     1     1     2     0     0 -4.064269850E+01  1.557470114E+02 -3.457571127E+02  4.013501482E+02  1.250000000E+02  0.00000E+00  9.000E+00
      25     1     1     2     0     0 -3.062206080E+01 -7.145367403E+01 -1.125949827E+03  1.135531308E+03  1.250000000E+02  0.00000E+00  9.000E+00
      21     1     1     2   502   511  7.126475930E+01 -8.429333736E+01 -7.915983284E+02  7.992571214E+02  1.078959322E-05  0.00000E+00  9.000E+00
#rwgt            1           1   6.5723791554035960E-002          10      377971           0
</event>
<event>
      5   9999  3.79277E-02  1.01966E+01 -1.00000E+00  1.94785E-01
      21    -1     0     0   512   501  0.000000000E+00  0.000000000E+00  1.062537736E+02  1.062537736E+02  0.000000000E+00  0.00000E+00  9.000E+00
      21    -1     0     0   501   502  0.000000000E+00  0.000000000E+00 -3.892957306E+02  3.892957306E+02  0.000000000E+00  0.00000E+00  9.000E+00
      25     1     1     2     0     0 -1.068528554E+02  1.011779780E+02 -1.081581802E+02  2.213090778E+02  1.250000000E+02  0.00000E+00  9.000E+00
      25     1     1     2     0     0  1.137960560E+02 -1.086454268E+02 -1.681957515E+02  2.620461447E+02  1.250000000E+02  0.00000E+00  9.000E+00
      21     1     1     2   512   502 -6.943200553E+00  7.467448753E+00 -6.688025281E+00  1.219428173E+01  1.192092896E-07  0.00000E+00  9.000E+00
#rwgt            1           1   2.0153890400483081E-002          10      378034           0
</event>
<event>
      5   9999  3.79277E-02  1.88934E+02 -1.00000E+00  1.12555E-01
      21    -1     0     0   502   501  0.000000000E+00  0.000000000E+00  1.121772943E+03  1.121772943E+03  0.000000000E+00  0.00000E+00  9.000E+00
      21    -1     0     0   501   511  0.000000000E+00  0.000000000E+00 -2.861464703E+02  2.861464703E+02  0.000000000E+00  0.00000E+00  9.000E+00
      25     1     1     2     0     0 -5.108419715E+01  5.954508619E+01  1.153717254E+01  1.480314792E+02  1.250000000E+02  0.00000E+00  9.000E+00
      25     1     1     2     0     0  6.014888780E+01 -2.482613561E+02  9.765468640E+02  1.017113743E+03  1.250000000E+02  0.00000E+00  9.000E+00
      21     1     1     2   502   511 -9.064690654E+00  1.887162699E+02 -1.524575635E+02  2.427741910E+02  0.000000000E+00  0.00000E+00  9.000E+00
#rwgt            2          11   2.7470176638134391E-003          10      378311           0
</event>
<event>
      5   9999  3.79277E-02  6.25997E+01 -1.00000E+00  1.33726E-01
       1    -1     0     0   502     0  0.000000000E+00  0.000000000E+00  1.245322423E+03  1.245322423E+03  0.000000000E+00  0.00000E+00  9.000E+00
      21    -1     0     0   501   502  0.000000000E+00  0.000000000E+00 -1.257541290E+02  1.257541290E+02  0.000000000E+00  0.00000E+00  9.000E+00
      25     1     1     2     0     0 -1.084100939E+02 -2.854763273E+02  4.886159131E+02  5.895930736E+02  1.250000000E+02  0.00000E+00  9.000E+00
      25     1     1     2     0     0  5.024812637E+01  2.623267649E+02  2.255210240E+02  3.712478122E+02  1.250000000E+02  0.00000E+00  9.000E+00
       1     1     1     2   501     0  5.816196752E+01  2.314956239E+01  4.054313564E+02  4.102356658E+02  5.394796609E-06  0.00000E+00  9.000E+00
#rwgt            1           1   2.2086268458165515E-002          10      378346           0
</event>
<event>
      5   9999  3.79277E-02  1.86005E+01 -1.00000E+00  1.69011E-01
      21    -1     0     0   511   501  0.000000000E+00  0.000000000E+00  1.712007459E+02  1.712007459E+02  0.000000000E+00  0.00000E+00  9.000E+00
      21    -1     0     0   501   502  0.000000000E+00  0.000000000E+00 -1.127601434E+03  1.127601434E+03  0.000000000E+00  0.00000E+00  9.000E+00
      25     1     1     2     0     0 -2.760665011E+02  6.324987106E+01 -8.657815921E+02  9.194650751E+02  1.250000000E+02  0.00000E+00  9.000E+00
      25     1     1     2     0     0  2.940959753E+02 -6.782321306E+01 -1.170535802E+02  3.470143679E+02  1.250000000E+02  0.00000E+00  9.000E+00
      21     1     1     2   511   502 -1.802947421E+01  4.573341998E+00  2.643448386E+01  3.232273711E+01  0.000000000E+00  0.00000E+00  9.000E+00
#rwgt            1           1   4.2973445522757614E-002          10      378402           0
</event>
<event>
      5   9999  3.79277E-02  2.21864E+01 -1.00000E+00  1.62735E-01
      21    -1     0     0   502   512  0.000000000E+00  0.000000000E+00  1.880417828E+02  1.880417828E+02  0.000000000E+00  0.00000E+00  9.000E+00
      21    -1     0     0   501   502  0.000000000E+00  0.000000000E+00 -4.014822548E+02  4.014822548E+02  0.000000000E+00  0.00000E+00  9.000E+00
      25     1     1     2     0     0 -9.065140916E+01 -3.881867977E+01 -3.074597720E+02  3.462384717E+02  1.250000000E+02  0.00000E+00  9.000E+00
      25     1     1     2     0     0  8.974329545E+01  1.665082716E+01  8.582870300E+00  1.550154018E+02  1.250000000E+02  0.00000E+00  9.000E+00
      21     1     1     2   501   512  9.081137071E-01  2.216785261E+01  8.543642972E+01  8.827016417E+01  1.651812370E-06  0.00000E+00  9.000E+00
#rwgt            1           1   3.6535435243204926E-002          10      378638           0
</event>
<event>
      5   9999  3.79277E-02  5.16148E+01 -1.00000E+00  1.38292E-01
      -5    -1     0     0     0   501  0.000000000E+00  0.000000000E+00  6.900788041E+02  6.900788041E+02  0.000000000E+00  0.00000E+00  9.000E+00
      21    -1     0     0   501   502  0.000000000E+00  0.000000000E+00 -1.598063228E+02  1.598063228E+02  0.000000000E+00  0.00000E+00  9.000E+00
      25     1     1     2     0     0 -1.283927815E+02 -1.566909709E+02  3.288136476E+01  2.402976297E+02  1.250000000E+02  0.00000E+00  9.000E+00
      25     1     1     2     0     0  8.800104164E+01  1.888250523E+02  2.210320695E+02  3.284497823E+02  1.250000000E+02  0.00000E+00  9.000E+00
      -5     1     1     2     0   502  4.039173987E+01 -3.213408137E+01  2.763590471E+02  2.811377149E+02  3.814697266E-06  0.00000E+00  9.000E+00
#rwgt            1           1   3.7333566560574009E-002          10      378832           0
</event>
<event>
      5   9999  3.79277E-02  2.30439E+01 -1.00000E+00  1.61448E-01
      21    -1     0     0   502   511  0.000000000E+00  0.000000000E+00  1.106189223E+02  1.106189223E+02  0.000000000E+00  0.00000E+00  9.000E+00
      21    -1     0     0   501   502  0.000000000E+00  0.000000000E+00 -5.362298124E+02  5.362298124E+02  0.000000000E+00  0.00000E+00  9.000E+00
      25     1     1     2     0     0  2.862795824E+01  9.449607547E+01 -4.302346661E+02  4.587765646E+02  1.250000000E+02  0.00000E+00  9.000E+00
      25     1     1     2     0     0 -5.949099906E+00 -9.041050365E+01 -1.842503122E+01  1.554796859E+02  1.250000000E+02  0.00000E+00  9.000E+00
      21     1     1     2   501   511 -2.267885834E+01 -4.085571819E+00  2.304880720E+01  3.259248419E+01  3.371747881E-07  0.00000E+00  9.000E+00
#rwgt            1           1   4.6580642805800834E-002          10      378909           0
</event>
<event>
      5   9999  3.79277E-02  9.99145E+00 -1.00000E+00  1.95800E-01
      21    -1     0     0   512   501  0.000000000E+00  0.000000000E+00  1.013560703E+02  1.013560703E+02  0.000000000E+00  0.00000E+00  9.000E+00
      21    -1     0     0   501   502  0.000000000E+00  0.000000000E+00 -2.257119656E+02  2.257119656E+02  0.000000000E+00  0.00000E+00  9.000E+00
      25     1     1     2     0     0  6.935221726E+01  2.276368900E+01 -3.714298013E+01  1.494406790E+02  1.250000000E+02  0.00000E+00  9.000E+00
      25     1     1     2     0     0 -6.795024556E+01 -1.287108386E+01 -8.769283420E+01  1.676243832E+02  1.250000000E+02  0.00000E+00  9.000E+00
      21     1     1     2   512   502 -1.401971703E+00 -9.892605139E+00  4.799190739E-01  1.000297373E+01  9.799708752E-08  0.00000E+00  9.000E+00
#rwgt            1           1   6.7491339614392520E-002          10      379142           0
</event>
<event>
      5   9999  3.79277E-02  8.30708E+01 -1.00000E+00  1.27563E-01
      21    -1     0     0   502   501  0.000000000E+00  0.000000000E+00  1.686841555E+03  1.686841555E+03  0.000000000E+00  0.00000E+00  9.000E+00
      21    -1     0     0   511   502  0.000000000E+00  0.000000000E+00 -6.054918795E+01  6.054918795E+01  0.000000000E+00  0.00000E+00  9.000E+00
      25     1     1     2     0     0 -3.183126296E+01  1.186502755E+02  1.449673394E+03  1.460229114E+03  1.250000000E+02  0.00000E+00  9.000E+00
      25     1     1     2     0     0 -5.362615645E+00 -4.437129425E+01  6.441391985E+01  1.475524397E+02  1.250000000E+02  0.00000E+00  9.000E+00
      21     1     1     2   511   501  3.719387860E+01 -7.427898128E+01  1.122050535E+02  1.396091891E+02  0.000000000E+00  0.00000E+00  9.000E+00
#rwgt            1           1   5.9070899994986811E-002          10      379342           0
</event>
<event>
      5   9999  3.79277E-02  8.65201E+00 -1.00000E+00  2.03319E-01
      21    -1     0     0   512   501  0.000000000E+00  0.000000000E+00  1.349459892E+03  1.349459892E+03  0.000000000E+00  0.00000E+00  9.000E+00
      21    -1     0     0   501   502  0.000000000E+00  0.000000000E+00 -5.041415238E+02  5.041415238E+02  0.000000000E+00  0.00000E+00  9.000E+00
      25     1     1     2     0     0 -4.451270607E+01 -2.188404639E+02 -3.364834287E+02  4.227512595E+02  1.250000000E+02  0.00000E+00  9.000E+00
      25     1     1     2     0     0  5.065308796E+01  2.249357847E+02  1.360897728E+01  2.626252974E+02  1.250000000E+02  0.00000E+00  9.000E+00
      21     1     1     2   512   502 -6.140381891E+00 -6.095320834E+00  1.168192820E+03  1.168224859E+03  1.525878906E-05  0.00000E+00  9.000E+00
#rwgt            1           1   2.8302228583314236E-002          10      379471           0
</event>
<event>
      5   9999  3.79277E-02  2.00789E+01 -1.00000E+00  1.66228E-01
      21    -1     0     0   502   501  0.000000000E+00  0.000000000E+00  9.970954514E+01  9.970954514E+01  0.000000000E+00  0.00000E+00  9.000E+00
      21    -1     0     0   511   502  0.000000000E+00  0.000000000E+00 -5.679056903E+02  5.679056903E+02  0.000000000E+00  0.00000E+00  9.000E+00
      25     1     1     2     0     0 -2.132067806E+01  1.800534131E+02 -1.143803413E+02  2.481565340E+02  1.250000000E+02  0.00000E+00  9.000E+00
      25     1     1     2     0     0  1.339071197E+01 -1.616067683E+02 -3.138118854E+02  3.746984896E+02  1.250000000E+02  0.00000E+00  9.000E+00
      21     1     1     2   511   501  7.929966091E+00 -1.844664480E+01 -4.000391849E+01  4.476021181E+01  0.000000000E+00  0.00000E+00  9.000E+00
#rwgt            1           1   2.9733028026152849E-002          10      379832           0
</event>
<event>
      5   9999  3.79277E-02  1.64614E+01 -1.00000E+00  1.73662E-01
      21    -1     0     0   502   501  0.000000000E+00  0.000000000E+00  1.375584727E+01  1.375584727E+01  0.000000000E+00  0.00000E+00  9.000E+00
      21    -1     0     0   512   502  0.000000000E+00  0.000000000E+00 -2.758690810E+03  2.758690810E+03  0.000000000E+00  0.00000E+00  9.000E+00
      25     1     1     2     0     0  3.064050278E+01  3.447418523E+01 -3.870449985E+02  4.093362197E+02  1.250000000E+02  0.00000E+00  9.000E+00
      25     1     1     2     0     0 -4.640239438E+01 -3.922190083E+01 -2.193370412E+03  2.197769393E+03  1.250000000E+02  0.00000E+00  9.000E+00
      21     1     1     2   512   501  1.576189160E+01  4.747715599E+00 -1.645195523E+02  1.653410449E+02  1.907348633E-06  0.00000E+00  9.000E+00
#rwgt            1           1   2.4262457295022084E-002          10      380031           0
</event>
<event>
      5   9999  3.79277E-02  3.69127E+01 -1.00000E+00  1.47037E-01
      21    -1     0     0   502   501  0.000000000E+00  0.000000000E+00  3.105125849E+02  3.105125849E+02  0.000000000E+00  0.00000E+00  9.000E+00
      -3    -1     0     0     0   502  0.000000000E+00  0.000000000E+00 -3.383481672E+02  3.383481672E+02  0.000000000E+00  0.00000E+00  9.000E+00
      25     1     1     2     0     0 -1.444665728E+02  1.322563563E+02  2.041478799E+02  3.092954757E+02  1.250000000E+02  0.00000E+00  9.000E+00
      25     1     1     2     0     0  1.220059161E+02 -1.029636210E+02 -1.586022872E+02  2.574230687E+02  1.250000000E+02  0.00000E+00  9.000E+00
      -3     1     1     2     0   501  2.246065671E+01 -2.929273530E+01 -7.338117493E+01  8.214220763E+01  0.000000000E+00  0.00000E+00  9.000E+00
#rwgt            1           1   3.2073646344332220E-002          10      380364           0
</event>
<event>
      5   9999  3.79277E-02  8.66711E+00 -1.00000E+00  2.03224E-01
      21    -1     0     0   511   501  0.000000000E+00  0.000000000E+00  2.034829764E+03  2.034829764E+03  0.000000000E+00  0.00000E+00  9.000E+00
      21    -1     0     0   501   502  0.000000000E+00  0.000000000E+00 -2.679629193E+01  2.679629193E+01  0.000000000E+00  0.00000E+00  9.000E+00
      25     1     1     2     0     0 -1.675897880E+02 -6.534164893E+01  1.230867692E+03  1.250206440E+03  1.250000000E+02  0.00000E+00  9.000E+00
      25     1     1     2     0     0  1.589809288E+02  6.433846561E+01  6.459872151E+02  6.799550397E+02  1.250000000E+02  0.00000E+00  9.000E+00
      21     1     1     2   511   502  8.608859258E+00  1.003183324E+00  1.311785652E+02  1.314645762E+02  1.907348633E-06  0.00000E+00  9.000E+00
#rwgt            1           1  0.13430176893654991               10      380445           0
</event>
<event>
      5   9999  3.79277E-02  3.12521E+01 -1.00000E+00  1.51817E-01
      21    -1     0     0   502   501  0.000000000E+00  0.000000000E+00  2.804190473E+02  2.804190473E+02  0.000000000E+00  0.00000E+00  9.000E+00
      21    -1     0     0   501   512  0.000000000E+00  0.000000000E+00 -2.168064410E+02  2.168064410E+02  0.000000000E+00  0.00000E+00  9.000E+00
      25     1     1     2     0     0 -7.017971347E+01  4.533580385E+01  1.774196450E+02  2.325580738E+02  1.250000000E+02  0.00000E+00  9.000E+00
      25     1     1     2     0     0  1.013980297E+02 -4.388202107E+01 -2.272201962E+01  1.683700756E+02  1.250000000E+02  0.00000E+00  9.000E+00
      21     1     1     2   502   512 -3.121831622E+01 -1.453782778E+00 -9.108501903E+01  9.629733871E+01  1.348699152E-06  0.00000E+00  9.000E+00
#rwgt            1           1   4.1515419385987823E-002          10      380807           0
</event>
<event>
      5   9999  3.79277E-02  1.19543E+01 -1.00000E+00  1.87202E-01
       1    -1     0     0   502     0  0.000000000E+00  0.000000000E+00  1.404222035E+03  1.404222035E+03  0.000000000E+00  0.00000E+00  9.000E+00
      21    -1     0     0   501   502  0.000000000E+00  0.000000000E+00 -4.049050357E+01  4.049050357E+01  0.000000000E+00  0.00000E+00  9.000E+00
      25     1     1     2     0     0 -1.212361273E+02  9.692278550E+01  3.154804166E+02  3.731556220E+02  1.250000000E+02  0.00000E+00  9.000E+00
      25     1     1     2     0     0  1.329149264E+02 -9.947439459E+01  9.428777366E+02  9.655076173E+02  1.250000000E+02  0.00000E+00  9.000E+00
       1     1     1     2   501     0 -1.167879910E+01  2.551609099E+00  1.053733786E+02  1.060492998E+02  0.000000000E+00  0.00000E+00  9.000E+00
#rwgt            1           1   2.8621812809009016E-002          10      380978           0
</event>
<event>
      5   9999  3.79277E-02  1.01091E+02 -1.00000E+00  1.23616E-01
      21    -1     0     0   502   501  0.000000000E+00  0.000000000E+00  2.559691004E+02  2.559691004E+02  0.000000000E+00  0.00000E+00  9.000E+00
       2    -1     0     0   501     0  0.000000000E+00  0.000000000E+00 -2.973291462E+02  2.973291462E+02  0.000000000E+00  0.00000E+00  9.000E+00
      25     1     1     2     0     0 -8.501190017E+01  9.094572750E+01 -8.308213325E+01  1.950020241E+02  1.250000000E+02  0.00000E+00  9.000E+00
      25     1     1     2     0     0  8.120268096E+01  1.007359140E+01  1.489241869E+02  2.109473064E+02  1.250000000E+02  0.00000E+00  9.000E+00
       2     1     1     2   502     0  3.809219206E+00 -1.010193189E+02 -1.072020995E+02  1.473489161E+02  0.000000000E+00  0.00000E+00  9.000E+00
#rwgt            1           1   3.9306163208097100E-002          10      381246           0
</event>
<event>
      5   9999  3.79277E-02  2.90435E+01 -1.00000E+00  1.54024E-01
      21    -1     0     0   502   501  0.000000000E+00  0.000000000E+00  5.033240102E+02  5.033240102E+02  0.000000000E+00  0.00000E+00  9.000E+00
      21    -1     0     0   501   511  0.000000000E+00  0.000000000E+00 -9.113588432E+01  9.113588432E+01  0.000000000E+00  0.00000E+00  9.000E+00
      25     1     1     2     0     0  1.380485382E+02  5.178297576E+01  2.621628712E+02  3.257195827E+02  1.250000000E+02  0.00000E+00  9.000E+00
      25     1     1     2     0     0 -1.355348145E+02 -2.284843335E+01  1.514008089E+02  2.396642272E+02  1.250000000E+02  0.00000E+00  9.000E+00
      21     1     1     2   502   511 -2.513723700E+00 -2.893454242E+01 -1.375554205E+00  2.907608469E+01  3.427267075E-07  0.00000E+00  9.000E+00
#rwgt            1           1  0.15763530287458702               10      381319           0
</event>
<event>
      5   9999  3.79277E-02  5.26113E+01 -1.00000E+00  1.37826E-01
      21    -1     0     0   502   501  0.000000000E+00  0.000000000E+00  1.259934261E+02  1.259934261E+02  0.000000000E+00  0.00000E+00  9.000E+00
       2    -1     0     0   501     0  0.000000000E+00  0.000000000E+00 -3.348824360E+02  3.348824360E+02  0.000000000E+00  0.00000E+00  9.000E+00
      25     1     1     2     0     0 -2.406854481E+01  5.188073492E+01  2.914256047E+01  1.405175944E+02  1.250000000E+02  0.00000E+00  9.000E+00
      25     1     1     2     0     0  7.081241852E+01 -2.773614200E+01 -2.210233181E+02  2.650660282E+02  1.250000000E+02  0.00000E+00  9.000E+00
       2     1     1     2   502     0 -4.674387372E+01 -2.414459291E+01 -1.700825236E+01  5.529223947E+01  7.907449699E-07  0.00000E+00  9.000E+00
#rwgt            1           1   2.2696976452725410E-002          10      381476           0
</event>
<event>
      5   9999 -3.79277E-02  1.24810E+01 -1.00000E+00  1.85251E-01
      21    -1     0     0   502   511  0.000000000E+00  0.000000000E+00  6.325928323E+02  6.325928323E+02  0.000000000E+00  0.00000E+00  9.000E+00
      21    -1     0     0   501   502  0.000000000E+00  0.000000000E+00 -1.321039791E+02  1.321039791E+02  0.000000000E+00  0.00000E+00  9.000E+00
      25     1     1     2     0     0 -2.304899224E+02  6.879966246E+01  3.761299253E+02  4.636353293E+02  1.250000000E+02  0.00000E+00  9.000E+00
      25     1     1     2     0     0  2.196319893E+02 -6.264488497E+01  1.117804342E+02  2.833415921E+02  1.250000000E+02  0.00000E+00  9.000E+00
      21     1     1     2   501   511  1.085793304E+01 -6.154777491E+00  1.257849365E+01  1.771988991E+01  2.384185791E-07  0.00000E+00  9.000E+00
#rwgt            1           1  -2.4399893977235031E-002          10      381550           0
</event>
<event>
      5   9999  3.79277E-02  5.28080E+01 -1.00000E+00  1.37735E-01
      21    -1     0     0   502   501  0.000000000E+00  0.000000000E+00  5.615588570E+01  5.615588570E+01  0.000000000E+00  0.00000E+00  9.000E+00
       2    -1     0     0   501     0  0.000000000E+00  0.000000000E+00 -1.295096825E+03  1.295096825E+03  0.000000000E+00  0.00000E+00  9.000E+00
      25     1     1     2     0     0  1.331219959E+02 -1.429388294E+02 -4.934121337E+02  5.451912586E+02  1.250000000E+02  0.00000E+00  9.000E+00
      25     1     1     2     0     0 -1.031889030E+02  1.864440005E+02 -5.395503443E+02  5.934213420E+02  1.250000000E+02  0.00000E+00  9.000E+00
       2     1     1     2   502     0 -2.993309286E+01 -4.350517108E+01 -2.059784612E+02  2.126401101E+02  2.697398305E-06  0.00000E+00  9.000E+00
#rwgt            1           1   3.8423547970196793E-002          10      381799           0
</event>
<event>
      5   9999  3.79277E-02  2.31955E+01 -1.00000E+00  1.61227E-01
      21    -1     0     0   502   501  0.000000000E+00  0.000000000E+00  2.402793935E+02  2.402793935E+02  0.000000000E+00  0.00000E+00  9.000E+00
      21    -1     0     0   501   511  0.000000000E+00  0.000000000E+00 -5.416480495E+02  5.416480495E+02  0.000000000E+00  0.00000E+00  9.000E+00
      25     1     1     2     0     0 -1.757575389E+02 -7.684608027E+01 -1.041772678E+02  2.515431090E+02  1.250000000E+02  0.00000E+00  9.000E+00
      25     1     1     2     0     0  1.884475634E+02  5.742977466E+01  8.419670799E+01  2.480418287E+02  1.250000000E+02  0.00000E+00  9.000E+00
      21     1     1     2   502   511 -1.269002442E+01  1.941630560E+01 -2.813880962E+02  2.823425053E+02  0.000000000E+00  0.00000E+00  9.000E+00
#rwgt            1           1   2.1542615309505589E-002          10      381955           0
</event>
<event>
      5   9999  3.79277E-02  2.62888E+01 -1.00000E+00  1.57133E-01
      21    -1     0     0   502   501  0.000000000E+00  0.000000000E+00  6.461570233E+01  6.461570233E+01  0.000000000E+00  0.00000E+00  9.000E+00
      21    -1     0     0   501   512  0.000000000E+00  0.000000000E+00 -2.796927039E+03  2.796927039E+03  0.000000000E+00  0.00000E+00  9.000E+00
      25     1     1     2     0     0  3.464579184E+00 -1.012139044E+02 -7.320696125E+01  1.767498711E+02  1.250000000E+02  0.00000E+00  9.000E+00
      25     1     1     2     0     0 -3.802182513E+00  7.492731778E+01 -4.033925229E+02  4.289278343E+02  1.250000000E+02  0.00000E+00  9.000E+00
      21     1     1     2   502   512  3.376033289E-01  2.628658663E+01 -2.255711852E+03  2.255865036E+03  4.315837288E-05  0.00000E+00  9.000E+00
#rwgt            1           1   3.6261391083133199E-002          10      382102           0
</event>
<event>
      5   9999  3.79277E-02  5.77617E+01 -1.00000E+00  1.35592E-01
      21    -1     0     0   502   501  0.000000000E+00  0.000000000E+00  8.299196213E+01  8.299196213E+01  0.000000000E+00  0.00000E+00  9.000E+00
      21    -1     0     0   511   502  0.000000000E+00  0.000000000E+00 -1.103283760E+03  1.103283760E+03  0.000000000E+00  0.00000E+00  9.000E+00
      25     1     1     2     0     0 -1.253698925E+02 -7.720779890E+01 -6.286404601E+02  6.576416063E+02  1.250000000E+02  0.00000E+00  9.000E+00
      25     1     1     2     0     0  1.811893543E+02  6.235496875E+01 -1.351770415E+02  2.657358779E+02  1.250000000E+02  0.00000E+00  9.000E+00
      21     1     1     2   511   501 -5.581946180E+01  1.485283016E+01 -2.564742961E+02  2.628982378E+02  3.814697266E-06  0.00000E+00  9.000E+00
#rwgt            1           1   2.6961754105873894E-002          10      382219           0
</event>
<event>
      5   9999  3.79277E-02  6.07394E+00 -1.00000E+00  2.24649E-01
      21    -1     0     0   502   501  0.000000000E+00  0.000000000E+00  1.022152303E+02  1.022152303E+02  0.000000000E+00  0.00000E+00  9.000E+00
      21    -1     0     0   501   512  0.000000000E+00  0.000000000E+00 -9.246568394E+02  9.246568394E+02  0.000000000E+00  0.00000E+00  9.000E+00
      25     1     1     2     0     0  1.218290041E+02 -1.081795157E+02 -2.709798946E+02  3.400003194E+02  1.250000000E+02  0.00000E+00  9.000E+00
      25     1     1     2     0     0 -1.161930868E+02  1.059147454E+02 -8.132666991E+01  2.166974710E+02  1.250000000E+02  0.00000E+00  9.000E+00
      21     1     1     2   502   512 -5.635917359E+00  2.264770283E+00 -4.701350446E+02  4.701742793E+02  0.000000000E+00  0.00000E+00  9.000E+00
#rwgt            1           1   3.3990612263508219E-002          10      382519           0
</event>
<event>
      5   9999  3.79277E-02  6.30355E+01 -1.00000E+00  1.33568E-01
      21    -1     0     0   502   501  0.000000000E+00  0.000000000E+00  8.950362767E+01  8.950362767E+01  0.000000000E+00  0.00000E+00  9.000E+00
      21    -1     0     0   501   511  0.000000000E+00  0.000000000E+00 -9.627092511E+02  9.627092511E+02  0.000000000E+00  0.00000E+00  9.000E+00
      25     1     1     2     0     0 -1.303096652E+02 -6.318601774E+01 -4.764156011E+01  1.971491819E+02  1.250000000E+02  0.00000E+00  9.000E+00
      25     1     1     2     0     0  9.854339885E+01  8.739960076E+00 -5.744058741E+02  5.961160094E+02  1.250000000E+02  0.00000E+00  9.000E+00
      21     1     1     2   502   511  3.176626633E+01  5.444605766E+01 -2.511581892E+02  2.589476875E+02  2.697398305E-06  0.00000E+00  9.000E+00
#rwgt            2          11   1.5851128468544588E-003          10      382864           0
</event>
<event>
      5   9999  3.79277E-02  5.69651E+01 -1.00000E+00  1.35919E-01
      21    -1     0     0   502   512  0.000000000E+00  0.000000000E+00  7.545671921E+02  7.545671921E+02  0.000000000E+00  0.00000E+00  9.000E+00
      21    -1     0     0   501   502  0.000000000E+00  0.000000000E+00 -9.506230374E+01  9.506230374E+01  0.000000000E+00  0.00000E+00  9.000E+00
      25     1     1     2     0     0  5.425816042E+01 -1.508969109E+02  2.612611014E+02  3.310531510E+02  1.250000000E+02  0.00000E+00  9.000E+00
      25     1     1     2     0     0 -1.059857922E+02  1.747564440E+02  1.993015773E+02  3.116390887E+02  1.250000000E+02  0.00000E+00  9.000E+00
      21     1     1     2   501   512  5.172763181E+01 -2.385953306E+01  1.989422096E+02  2.069372562E+02  3.814697266E-06  0.00000E+00  9.000E+00
#rwgt            1           1   2.3817321271752564E-002          10      383004           0
</event>
<event>
      5   9999 -3.79277E-02  4.24520E+01 -1.00000E+00  1.43256E-01
      21    -1     0     0   502   501  0.000000000E+00  0.000000000E+00  8.646197769E+01  8.646197769E+01  0.000000000E+00  0.00000E+00  9.000E+00
       2    -1     0     0   501     0  0.000000000E+00  0.000000000E+00 -1.372079417E+03  1.372079417E+03  0.000000000E+00  0.00000E+00  9.000E+00
      25     1     1     2     0     0 -1.837738750E+02 -1.045915630E+02 -1.824990536E+02  3.060116612E+02  1.250000000E+02  0.00000E+00  9.000E+00
      25     1     1     2     0     0  1.704095474E+02  1.448850282E+02 -6.698331438E+02  7.171698026E+02  1.250000000E+02  0.00000E+00  9.000E+00
       2     1     1     2   502     0  1.336432764E+01 -4.029346523E+01 -4.332852419E+02  4.353599309E+02  0.000000000E+00  0.00000E+00  9.000E+00
#rwgt            1           1 -0.25817787723155433               10      383127           0
</event>
<event>
      5   9999  3.79277E-02  2.15485E+01 -1.00000E+00  1.63740E-01
      21    -1     0     0   502   501  0.000000000E+00  0.000000000E+00  3.398728094E+01  3.398728094E+01  0.000000000E+00  0.00000E+00  9.000E+00
      21    -1     0     0   501   511  0.000000000E+00  0.000000000E+00 -2.704108082E+03  2.704108082E+03  0.000000000E+00  0.00000E+00  9.000E+00
      25     1     1     2     0     0  1.748323553E+02 -9.244517455E+01 -5.091307522E+02  5.603138277E+02  1.250000000E+02  0.00000E+00  9.000E+00
      25     1     1     2     0     0 -1.824348796E+02  1.126080148E+02 -2.009646411E+03  2.024911540E+03  1.250000000E+02  0.00000E+00  9.000E+00
      21     1     1     2   502   511  7.602524267E+00 -2.016284020E+01 -1.513436387E+02  1.528699953E+02  2.697398305E-06  0.00000E+00  9.000E+00
#rwgt            1           1   7.3343391243415101E-002          10      383204           0
</event>
<event>
      5   9999  3.79277E-02  1.10962E+02 -1.00000E+00  1.21830E-01
       2    -1     0     0   502     0  0.000000000E+00  0.000000000E+00  1.870001303E+03  1.870001303E+03  0.000000000E+00  0.00000E+00  9.000E+00
      21    -1     0     0   501   502  0.000000000E+00  0.000000000E+00 -3.183919106E+02  3.183919106E+02  0.000000000E+00  0.00000E+00  9.000E+00
      25     1     1     2     0     0  7.408361078E+01 -1.364903100E+02 -2.185279562E+01  2.005505691E+02  1.250000000E+02  0.00000E+00  9.000E+00
      25     1     1     2     0     0  2.583276222E+01  8.822845321E+01 -1.761328011E+02  2.347325184E+02  1.250000000E+02  0.00000E+00  9.000E+00
       2     1     1     2   501     0 -9.991637300E+01  4.826185675E+01  1.749594989E+03  1.753110126E+03  0.000000000E+00  0.00000E+00  9.000E+00
#rwgt            1           1   3.7572654779646504E-002          10      383482           0
</event>
<event>
      5   9999  3.79277E-02  7.57472E+01 -1.00000E+00  1.29508E-01
      21    -1     0     0   502   511  0.000000000E+00  0.000000000E+00  1.703278726E+02  1.703278726E+02  0.000000000E+00  0.00000E+00  9.000E+00
      21    -1     0     0   501   502  0.000000000E+00  0.000000000E+00 -8.916900306E+02  8.916900306E+02  0.000000000E+00  0.00000E+00  9.000E+00
      25     1     1     2     0     0 -1.759457402E+02  2.697274625E+02 -3.519985738E+02  4.931914471E+02  1.250000000E+02  0.00000E+00  9.000E+00
      25     1     1     2     0     0  2.367698750E+02 -2.245824874E+02 -3.400571104E+02  4.876075324E+02  1.250000000E+02  0.00000E+00  9.000E+00
      21     1     1     2   501   511 -6.082413479E+01 -4.514497517E+01 -2.930647371E+01  8.121892364E+01  1.168007728E-06  0.00000E+00  9.000E+00
#rwgt            1           1   4.0662232904248627E-002          10      383574           0
</event>
<event>
      5   9999  3.79277E-02  1.05373E+01 -1.00000E+00  1.93166E-01
      21    -1     0     0   502   501  0.000000000E+00  0.000000000E+00  8.096821500E+01  8.096821500E+01  0.000000000E+00  0.00000E+00  9.000E+00
      21    -1     0     0   501   512  0.000000000E+00  0.000000000E+00 -4.965454427E+02  4.965454427E+02  0.000000000E+00  0.00000E+00  9.000E+00
      25     1     1     2     0     0 -3.848712246E+01 -4.643152793E+01 -2.957721241E+00  1.388196438E+02  1.250000000E+02  0.00000E+00  9.000E+00
      25     1     1     2     0     0  2.989263099E+01  4.033489665E+01 -3.469132265E+02  3.721481694E+02  1.250000000E+02  0.00000E+00  9.000E+00
      21     1     1     2   502   512  8.594491470E+00  6.096631277E+00 -6.570627996E+01  6.654584452E+01  9.536743164E-07  0.00000E+00  9.000E+00
#rwgt            1           1   3.8555565107965928E-002          10      383639           0
</event>
<event>
      5   9999  3.79277E-02  3.86006E+01 -1.00000E+00  1.45806E-01
      21    -1     0     0   511   501  0.000000000E+00  0.000000000E+00  1.414834778E+03  1.414834778E+03  0.000000000E+00  0.00000E+00  9.000E+00
      21    -1     0     0   501   502  0.000000000E+00  0.000000000E+00 -3.811318269E+01  3.811318269E+01  0.000000000E+00  0.00000E+00  9.000E+00
      25     1     1     2     0     0 -7.552881470E+01  9.672081929E+01  2.798432186E+02  3.301465519E+02  1.250000000E+02  0.00000E+00  9.000E+00
      25     1     1     2     0     0  9.005429319E+01 -6.095744050E+01  5.462986397E+02  5.708702033E+02  1.250000000E+02  0.00000E+00  9.000E+00
      21     1     1     2   511   502 -1.452547850E+01 -3.576337879E+01  5.505797372E+02  5.519312057E+02  1.321449896E-05  0.00000E+00  9.000E+00
#rwgt            1           1   3.9017415866988772E-002          10      383912           0
</event>
<event>
      5   9999  3.79277E-02  1.36307E+02 -1.00000E+00  1.18065E-01
      21    -1     0     0   502   501  0.000000000E+00  0.000000000E+00  3.484759338E+02  3.484759338E+02  0.000000000E+00  0.00000E+00  9.000E+00
      21    -1     0     0   501   512  0.000000000E+00  0.000000000E+00 -8.750943389E+02  8.750943389E+02  0.000000000E+00  0.00000E+00  9.000E+00
      25     1     1     2     0     0 -4.209866825E+01 -1.405214257E+02  8.673975851E+01  2.113465274E+02  1.250000000E+02  0.00000E+00  9.000E+00
      25     1     1     2     0     0 -8.977953831E+01  1.749832893E+02  1.228990607E+02  2.634553020E+02  1.250000000E+02  0.00000E+00  9.000E+00
      21     1     1     2   502   512  1.318782066E+02 -3.446186362E+01 -7.362572243E+02  7.487684433E+02  0.000000000E+00  0.00000E+00  9.000E+00
#rwgt            2          11   4.8517695316438693E-003          10      384031           0
</event>
<event>
      5   9999  3.79277E-02  6.70938E+01 -1.00000E+00  1.32160E-01
      21    -1     0     0   502   511  0.000000000E+00  0.000000000E+00  5.771935958E+01  5.771935958E+01  0.000000000E+00  0.00000E+00  9.000E+00
      21    -1     0     0   501   502  0.000000000E+00  0.000000000E+00 -1.154939486E+03  1.154939486E+03  0.000000000E+00  0.00000E+00  9.000E+00
      25     1     1     2     0     0 -8.034001186E+01  1.222266720E+02 -8.961459066E+02  9.165677077E+02  1.250000000E+02  0.00000E+00  9.000E+00
      25     1     1     2     0     0  3.014797054E+01 -7.770325440E+01 -1.404935991E+02  2.056943054E+02  1.250000000E+02  0.00000E+00  9.000E+00
      21     1     1     2   501   511  5.019204131E+01 -4.452341765E+01 -6.058062081E+01  9.039683262E+01  1.507891493E-06  0.00000E+00  9.000E+00
#rwgt            1           1   4.0432771505030635E-002          10      384096           0
</event>
<event>
      5   9999  3.79277E-02  1.43604E+02 -1.00000E+00  1.17149E-01
      21    -1     0     0   502   512  0.000000000E+00  0.000000000E+00  1.597366881E+02  1.597366881E+02  0.000000000E+00  0.00000E+00  9.000E+00
      21    -1     0     0   501   502  0.000000000E+00  0.000000000E+00 -1.035931111E+03  1.035931111E+03  0.000000000E+00  0.00000E+00  9.000E+00
      25     1     1     2     0     0  8.034436734E+01  3.297800153E+02 -4.543163689E+02  5.807223424E+02  1.250000000E+02  0.00000E+00  9.000E+00
      25     1     1     2     0     0  5.113521965E+01 -2.720277268E+02 -2.924251420E+02  4.216056908E+02  1.250000000E+02  0.00000E+00  9.000E+00
      21     1     1     2   501   512 -1.314795870E+02 -5.775228851E+01 -1.294529115E+02  1.933397655E+02  2.697398305E-06  0.00000E+00  9.000E+00
#rwgt            1           1   2.5073529860077260E-002          10      384275           0
</event>
<event>
      5   9999  3.79277E-02  7.33903E+01 -1.00000E+00  1.30189E-01
      21    -1     0     0   502   501  0.000000000E+00  0.000000000E+00  1.236297862E+03  1.236297862E+03  0.000000000E+00  0.00000E+00  9.000E+00
      21    -1     0     0   501   511  0.000000000E+00  0.000000000E+00 -1.146706473E+02  1.146706473E+02  0.000000000E+00  0.00000E+00  9.000E+00
      25     1     1     2     0     0  1.752434260E+02  3.459129976E+01  9.738288153E+02  9.979350569E+02  1.250000000E+02  0.00000E+00  9.000E+00
      25     1     1     2     0     0 -1.211494209E+02 -8.418945997E+01  1.877118446E+02  2.694917141E+02  1.250000000E+02  0.00000E+00  9.000E+00
      21     1     1     2   502   511 -5.409400508E+01  4.959816021E+01 -3.991344533E+01  8.354173807E+01  9.536743164E-07  0.00000E+00  9.000E+00
#rwgt            2          11   1.9865371090555697E-003          10      384352           0
</event>
<event>
      5   9999  3.79277E-02  3.15423E+00 -1.00000E+00  2.90414E-01
      21    -1     0     0   512   501  0.000000000E+00  0.000000000E+00  1.621861652E+02  1.621861652E+02  0.000000000E+00  0.00000E+00  9.000E+00
      21    -1     0     0   501   502  0.000000000E+00  0.000000000E+00 -4.397587340E+02  4.397587340E+02  0.000000000E+00  0.00000E+00  9.000E+00
      25     1     1     2     0     0 -5.494542703E+01  1.206173822E+02 -3.522801884E+02  3.966029299E+02  1.250000000E+02  0.00000E+00  9.000E+00
      25     1     1     2     0     0  5.609667288E+01 -1.235540158E+02  6.577161151E+01  1.958656080E+02  1.250000000E+02  0.00000E+00  9.000E+00
      21     1     1     2   512   502 -1.151245846E+00  2.936633563E+00  8.936008044E+00  9.476361297E+00  1.192092896E-07  0.00000E+00  9.000E+00
#rwgt            1           1   4.0436705549503529E-002          10      384432           0
</event>
<event>
      5   9999  3.79277E-02  1.84731E+01 -1.00000E+00  1.69266E-01
      21    -1     0     0   511   501  0.000000000E+00  0.000000000E+00  9.909688902E+01  9.909688902E+01  0.000000000E+00  0.00000E+00  9.000E+00
      21    -1     0     0   501   502  0.000000000E+00  0.000000000E+00 -1.331249635E+03  1.331249635E+03  0.000000000E+00  0.00000E+00  9.000E+00
      25     1     1     2     0     0 -2.810798192E+02  4.904937695E+01 -8.898618534E+02  9.428100679E+02  1.250000000E+02  0.00000E+00  9.000E+00
      25     1     1     2     0     0  2.892631220E+02 -6.561106393E+01 -3.411517830E+02  4.690282555E+02  1.250000000E+02  0.00000E+00  9.000E+00
      21     1     1     2   511   502 -8.183302810E+00  1.656168698E+01 -1.139109727E+00  1.850820066E+01  4.874297152E-07  0.00000E+00  9.000E+00
#rwgt            1           1   3.1775030883965584E-002          10      384803           0
</event>
<event>
      5   9999 -3.79277E-02  2.21510E+01 -1.00000E+00  1.62790E-01
      21    -1     0     0   502   501  0.000000000E+00  0.000000000E+00  3.770610204E+02  3.770610204E+02  0.000000000E+00  0.00000E+00  9.000E+00
       2    -1     0     0   501     0  0.000000000E+00  0.000000000E+00 -3.778141478E+02  3.778141478E+02  0.000000000E+00  0.00000E+00  9.000E+00
      25     1     1     2     0     0 -1.342694073E+02 -2.279369172E+02  6.418995515E+01  2.995477630E+02  1.250000000E+02  0.00000E+00  9.000E+00
      25     1     1     2     0     0  1.191558022E+02  2.441308858E+02  7.931661108E+01  3.093769859E+02  1.250000000E+02  0.00000E+00  9.000E+00
       2     1     1     2   502     0  1.511360509E+01 -1.619396859E+01 -1.442596937E+02  1.459504193E+02  2.697398305E-06  0.00000E+00  9.000E+00
#rwgt            1           1 -0.28426841066323033               10      385010           0
</event>
<event>
      5   9999  3.79277E-02  7.99776E+01 -1.00000E+00  1.28355E-01
      21    -1     0     0   502   501  0.000000000E+00  0.000000000E+00  1.803018551E+02  1.803018551E+02  0.000000000E+00  0.00000E+00  9.000E+00
      21    -1     0     0   511   502  0.000000000E+00  0.000000000E+00 -1.722338744E+03  1.722338744E+03  0.000000000E+00  0.00000E+00  9.000E+00
      25     1     1     2     0     0  3.907240156E+01  1.362915372E+02  7.680857763E+01  2.040259623E+02  1.250000000E+02  0.00000E+00  9.000E+00
      25     1     1     2     0     0 -1.182564417E+02 -1.475303614E+02 -2.933774455E+02  3.707359155E+02  1.250000000E+02  0.00000E+00  9.000E+00
      21     1     1     2   511   501  7.918404017E+01  1.123882419E+01 -1.325468022E+03  1.327878722E+03  2.157918644E-05  0.00000E+00  9.000E+00
#rwgt            1           1   3.2332687140372518E-002          10      385212           0
</event>
<event>
      5   9999  3.79277E-02  2.90953E+01 -1.00000E+00  1.53969E-01
      21    -1     0     0   502   501  0.000000000E+00  0.000000000E+00  2.285780644E+02  2.285780644E+02  0.000000000E+00  0.00000E+00  9.000E+00
      21    -1     0     0   501   512  0.000000000E+00  0.000000000E+00 -3.124588445E+02  3.124588445E+02  0.000000000E+00  0.00000E+00  9.000E+00
      25     1     1     2     0     0  6.174582692E+01 -4.837560271E+00 -1.067976065E+02  1.756891513E+02  1.250000000E+02  0.00000E+00  9.000E+00
      25     1     1     2     0     0 -3.295620444E+01  9.043761079E+00  1.709315131E+02  2.145005436E+02  1.250000000E+02  0.00000E+00  9.000E+00
      21     1     1     2   502   512 -2.878962249E+01 -4.206200807E+00 -1.480146867E+02  1.508472140E+02  2.697398305E-06  0.00000E+00  9.000E+00
#rwgt            1           1   3.7501609406653431E-002          10      385274           0
</event>
<event>
      5   9999  3.79277E-02  1.01679E+02 -1.00000E+00  1.23504E-01
      21    -1     0     0   502   501  0.000000000E+00  0.000000000E+00  4.630707903E+02  4.630707903E+02  0.000000000E+00  0.00000E+00  9.000E+00
      21    -1     0     0   501   511  0.000000000E+00  0.000000000E+00 -2.365796310E+02  2.365796310E+02  0.000000000E+00  0.00000E+00  9.000E+00
      25     1     1     2     0     0 -5.316692265E+01 -1.442366396E+02  2.441642547E+02  3.144393632E+02  1.250000000E+02  0.00000E+00  9.000E+00
      25     1     1     2     0     0  1.180354704E+02  2.225350524E+02 -2.991955500E+01  2.827974569E+02  1.250000000E+02  0.00000E+00  9.000E+00
      21     1     1     2   502   511 -6.486854777E+01 -7.829841280E+01  1.224645971E+01  1.024136012E+02  1.479348379E-06  0.00000E+00  9.000E+00
#rwgt            1           1   6.6225669177378169E-002          10      385427           0
</event>
<event>
      5   9999  3.79277E-02  3.63070E+01 -1.00000E+00  1.47498E-01
      21    -1     0     0   502   501  0.000000000E+00  0.000000000E+00  1.135761251E+03  1.135761251E+03  0.000000000E+00  0.00000E+00  9.000E+00
      21    -1     0     0   512   502  0.000000000E+00  0.000000000E+00 -6.658608290E+01  6.658608290E+01  0.000000000E+00  0.00000E+00  9.000E+00
      25     1     1     2     0     0 -1.011949578E+01 -1.997579172E+02  3.624335555E+02  4.324219142E+02  1.250000000E+02  0.00000E+00  9.000E+00
      25     1     1     2     0     0 -3.997603415E+00  1.663078832E+02  7.033213228E+02  7.334576852E+02  1.250000000E+02  0.00000E+00  9.000E+00
      21     1     1     2   512   501  1.411709919E+01  3.345003396E+01  3.420289461E+00  3.646773425E+01  7.300048300E-08  0.00000E+00  9.000E+00
#rwgt            1           1   3.9038221508547535E-002          10      385521           0
</event>
<event>
      5   9999  3.79277E-02  5.98954E+01 -1.00000E+00  1.34744E-01
      21    -1     0     0   502   501  0.000000000E+00  0.000000000E+00  1.029879274E+03  1.029879274E+03  0.000000000E+00  0.00000E+00  9.000E+00
       1    -1     0     0   501     0  0.000000000E+00  0.000000000E+00 -1.171433489E+02  1.171433489E+02  0.000000000E+00  0.00000E+00  9.000E+00
      25     1     1     2     0     0  9.421298728E+01  1.511989746E+02  7.412958317E+02  7.725812106E+02  1.250000000E+02  0.00000E+00  9.000E+00
      25     1     1     2     0     0 -4.442436854E+01 -1.179040745E+02  2.301065933E+02  2.906009972E+02  1.250000000E+02  0.00000E+00  9.000E+00
       1     1     1     2   502     0 -4.978861874E+01 -3.329490005E+01 -5.866650006E+01  8.384041481E+01  6.743495762E-07  0.00000E+00  9.000E+00
#rwgt            1           1   4.5696084121771383E-002          10      385659           0
</event>
<event>
      5   9999  3.79277E-02  1.68704E+01 -1.00000E+00  1.72707E-01
      21    -1     0     0   502   501  0.000000000E+00  0.000000000E+00  2.257434500E+02  2.257434500E+02  0.000000000E+00  0.00000E+00  9.000E+00
      21    -1     0     0   511   502  0.000000000E+00  0.000000000E+00 -4.316665895E+02  4.316665895E+02  0.000000000E+00  0.00000E+00  9.000E+00
      25     1     1     2     0     0 -2.460965559E+02  6.321201025E+00 -5.865037875E+01  2.822558048E+02  1.250000000E+02  0.00000E+00  9.000E+00
      25     1     1     2     0     0  2.614321173E+02  7.095751509E-01 -7.278609369E+01  2.987809748E+02  1.250000000E+02  0.00000E+00  9.000E+00
      21     1     1     2   511   501 -1.533556142E+01 -7.030776176E+00 -7.448666710E+01  7.637325994E+01  0.000000000E+00  0.00000E+00  9.000E+00
#rwgt            1           1   4.2741109941618873E-002          10      385736           0
</event>
<event>
      5   9999  3.79277E-02  1.03177E+02 -1.00000E+00  1.23220E-01
       1    -1     0     0   502     0  0.000000000E+00  0.000000000E+00  3.337275779E+02  3.337275779E+02  0.000000000E+00  0.00000E+00  9.000E+00
      21    -1     0     0   501   502  0.000000000E+00  0.000000000E+00 -8.764597243E+02  8.764597243E+02  0.000000000E+00  0.00000E+00  9.000E+00
      25     1     1     2     0     0 -1.171694139E+02 -5.447068542E+01 -4.441293027E+02  4.791362694E+02  1.250000000E+02  0.00000E+00  9.000E+00
      25     1     1     2     0     0  5.019388436E+01  1.329550855E+02 -3.837098243E+02  4.278489336E+02  1.250000000E+02  0.00000E+00  9.000E+00
       1     1     1     2   501     0  6.697552957E+01 -7.848440006E+01  2.851069805E+02  3.032020992E+02  6.607249480E-06  0.00000E+00  9.000E+00
#rwgt            1           1   4.1205231229328274E-002          10      385970           0
</event>
<event>
      5   9999  3.79277E-02  6.68944E+01 -1.00000E+00  1.32227E-01
      21    -1     0     0   502   501  0.000000000E+00  0.000000000E+00  6.254376630E+01  6.254376630E+01  0.000000000E+00  0.00000E+00  9.000E+00
       2    -1     0     0   501     0  0.000000000E+00  0.000000000E+00 -2.599521679E+03  2.599521679E+03  0.000000000E+00  0.00000E+00  9.000E+00
      25     1     1     2     0     0  3.898088232E+01  8.547324887E+01 -1.676204158E+02  2.292308645E+02  1.250000000E+02  0.00000E+00  9.000E+00
      25     1     1     2     0     0 -6.924544880E+01 -2.581655240E+01 -1.375220531E+02  1.999968541E+02  1.250000000E+02  0.00000E+00  9.000E+00
       2     1     1     2   502     0  3.026456649E+01 -5.965669647E+01 -2.231835444E+03  2.232837727E+03  3.051757812E-05  0.00000E+00  9.000E+00
#rwgt            1           1   9.4988819940211494E-002          10      386084           0
</event>
<event>
      5   9999  3.79277E-02  3.65484E+01 -1.00000E+00  1.47313E-01
      21    -1     0     0   502   501  0.000000000E+00  0.000000000E+00  4.198623131E+02  4.198623131E+02  0.000000000E+00  0.00000E+00  9.000E+00
      21    -1     0     0   501   511  0.000000000E+00  0.000000000E+00 -5.399065578E+02  5.399065578E+02  0.000000000E+00  0.00000E+00  9.000E+00
      25     1     1     2     0     0  1.692879833E+02  2.470453328E+01  1.373131427E+02  2.524849191E+02  1.250000000E+02  0.00000E+00  9.000E+00
      25     1     1     2     0     0 -1.867685547E+02 -5.680147218E+01  1.642480084E+02  2.840973575E+02  1.250000000E+02  0.00000E+00  9.000E+00
      21     1     1     2   502   511  1.748057148E+01  3.209693890E+01 -4.216053957E+02  4.231865942E+02  7.629394531E-06  0.00000E+00  9.000E+00
#rwgt            1           1   6.3081534547321030E-002          10      386148           0
</event>
<event>
      5   9999  3.79277E-02  1.10531E+02 -1.00000E+00  1.21903E-01
      21    -1     0     0   502   501  0.000000000E+00  0.000000000E+00  3.953366716E+02  3.953366716E+02  0.000000000E+00  0.00000E+00  9.000E+00
      21    -1     0     0   501   512  0.000000000E+00  0.000000000E+00 -3.192724498E+02  3.192724498E+02  0.000000000E+00  0.00000E+00  9.000E+00
      25     1     1     2     0     0  6.039955155E+01 -7.639560830E+01  3.062750081E+02  3.448387672E+02  1.250000000E+02  0.00000E+00  9.000E+00
      25     1     1     2     0     0 -1.262419667E+02 -1.238466595E+01 -1.289976057E+02  2.198995143E+02  1.250000000E+02  0.00000E+00  9.000E+00
      21     1     1     2   502   512  6.584241511E+01  8.878027425E+01 -1.012131806E+02  1.498708399E+02  1.348699152E-06  0.00000E+00  9.000E+00
#rwgt            1           1   4.2286429179511469E-002          10      386541           0
</event>
<event>
      5   9999  3.79277E-02  3.26261E+01 -1.00000E+00  1.50551E-01
      21    -1     0     0   502   501  0.000000000E+00  0.000000000E+00  3.039299929E+02  3.039299929E+02  0.000000000E+00  0.00000E+00  9.000E+00
      21    -1     0     0   511   502  0.000000000E+00  0.000000000E+00 -3.600481949E+02  3.600481949E+02  0.000000000E+00  0.00000E+00  9.000E+00
      25     1     1     2     0     0 -1.360148365E+02 -8.788120524E+01 -1.128754991E+01  2.048793566E+02  1.250000000E+02  0.00000E+00  9.000E+00
      25     1     1     2     0     0  1.189509346E+02  6.007320591E+01  1.653374211E+02  2.464134285E+02  1.250000000E+02  0.00000E+00  9.000E+00
      21     1     1     2   511   501  1.706390186E+01  2.780799933E+01 -2.101680732E+02  2.126854028E+02  2.697398305E-06  0.00000E+00  9.000E+00
#rwgt            1           1   3.3166450439925284E-002          10      386594           0
</event>
<event>
      5   9999  3.79277E-02  5.85046E+01 -1.00000E+00  1.35292E-01
      21    -1     0     0   512   501  0.000000000E+00  0.000000000E+00  5.442120435E+02  5.442120435E+02  0.000000000E+00  0.00000E+00  9.000E+00
      21    -1     0     0   501   502  0.000000000E+00  0.000000000E+00 -2.264042881E+02  2.264042881E+02  0.000000000E+00  0.00000E+00  9.000E+00
      25     1     1     2     0     0 -9.402890245E+00 -3.411239735E+01  2.123371953E+02  2.489260021E+02  1.250000000E+02  0.00000E+00  9.000E+00
      25     1     1     2     0     0 -3.369421846E+01  7.367786778E+01 -1.780804215E+02  2.321666752E+02  1.250000000E+02  0.00000E+00  9.000E+00
      21     1     1     2   512   502  4.309710871E+01 -3.956547043E+01  2.835509816E+02  2.895236543E+02  0.000000000E+00  0.00000E+00  9.000E+00
#rwgt            1           1   3.4062378649787617E-002          10      386790           0
</event>
<event>
      5   9999  3.79277E-02  1.60532E+01 -1.00000E+00  1.74652E-01
       2    -1     0     0   502     0  0.000000000E+00  0.000000000E+00  2.079910916E+03  2.079910916E+03  0.000000000E+00  0.00000E+00  9.000E+00
      21    -1     0     0   501   502  0.000000000E+00  0.000000000E+00 -5.759651313E+01  5.759651313E+01  0.000000000E+00  0.00000E+00  9.000E+00
      25     1     1     2     0     0  3.322146613E+01  1.431265495E+02  1.032275714E+03  1.050146192E+03  1.250000000E+02  0.00000E+00  9.000E+00
      25     1     1     2     0     0 -1.753978249E+01 -1.396931095E+02  1.338059154E+02  2.309779899E+02  1.250000000E+02  0.00000E+00  9.000E+00
       2     1     1     2   501     0 -1.568168364E+01 -3.433439971E+00  8.562327727E+02  8.563832465E+02  1.078959322E-05  0.00000E+00  9.000E+00
#rwgt            1           1   3.6235676437975678E-002          10      386964           0
</event>
<event>
      5   9999  3.79277E-02  4.30317E+01 -1.00000E+00  1.42899E-01
      21    -1     0     0   502   501  0.000000000E+00  0.000000000E+00  1.496847577E+02  1.496847577E+02  0.000000000E+00  0.00000E+00  9.000E+00
      21    -1     0     0   511   502  0.000000000E+00  0.000000000E+00 -4.847235942E+02  4.847235942E+02  0.000000000E+00  0.00000E+00  9.000E+00
      25     1     1     2     0     0  1.028215492E+01  1.906357263E+02 -1.804229236E+02  2.909039948E+02  1.250000000E+02  0.00000E+00  9.000E+00
      25     1     1     2     0     0 -4.974363122E+01 -1.734742407E+02 -4.275655411E+01  2.236534461E+02  1.250000000E+02  0.00000E+00  9.000E+00
      21     1     1     2   511   501  3.946147630E+01 -1.716148564E+01 -1.118593589E+02  1.198509110E+02  1.348699152E-06  0.00000E+00  9.000E+00
#rwgt            1           1   3.6847218463685556E-002          10      387243           0
</event>
<event>
      5   9999  3.79277E-02  1.08478E+02 -1.00000E+00  1.22259E-01
      21    -1     0     0   512   501  0.000000000E+00  0.000000000E+00  7.951987564E+02  7.951987564E+02  0.000000000E+00  0.00000E+00  9.000E+00
      21    -1     0     0   501   502  0.000000000E+00  0.000000000E+00 -1.256064190E+02  1.256064190E+02  0.000000000E+00  0.00000E+00  9.000E+00
      25     1     1     2     0     0  1.621385872E+02 -7.387944312E+01  3.677056819E+02  4.272932975E+02  1.250000000E+02  0.00000E+00  9.000E+00
      25     1     1     2     0     0 -2.432314687E+02  1.828387384E+00  1.670714171E+02  3.204726958E+02  1.250000000E+02  0.00000E+00  9.000E+00
      21     1     1     2   512   502  8.109288147E+01  7.205105573E+01  1.348152383E+02  1.730391821E+02  1.907348633E-06  0.00000E+00  9.000E+00
#rwgt            1           1   2.7364247930423618E-002          10      387409           0
</event>
<event>
      5   9999  3.79277E-02  2.94882E+01 -1.00000E+00  1.53561E-01
      21    -1     0     0   502   511  0.000000000E+00  0.000000000E+00  6.333772648E+01  6.333772648E+01  0.000000000E+00  0.00000E+00  9.000E+00
      21    -1     0     0   501   502  0.000000000E+00  0.000000000E+00 -1.893922519E+03  1.893922519E+03  0.000000000E+00  0.00000E+00  9.000E+00
      25     1     1     2     0     0 -2.084364149E+00 -2.158285135E+02 -1.182085713E+03  1.208113374E+03  1.250000000E+02  0.00000E+00  9.000E+00
      25     1     1     2     0     0 -2.497493358E+01  2.275480175E+02 -6.657262674E+02  7.149953221E+02  1.250000000E+02  0.00000E+00  9.000E+00
      21     1     1     2   501   511  2.705929773E+01 -1.171950399E+01  1.722718734E+01  3.415154976E+01  9.536743164E-07  0.00000E+00  9.000E+00
#rwgt            1           1   2.8830398768287087E-002          10      387470           0
</event>
<event>
      5   9999  3.79277E-02  1.33651E+02 -1.00000E+00  1.18415E-01
      21    -1     0     0   502   512  0.000000000E+00  0.000000000E+00  1.706061352E+02  1.706061352E+02  0.000000000E+00  0.00000E+00  9.000E+00
      21    -1     0     0   501   502  0.000000000E+00  0.000000000E+00 -4.364061634E+02  4.364061634E+02  0.000000000E+00  0.00000E+00  9.000E+00
      25     1     1     2     0     0  1.439872671E+01  2.436642655E+01 -2.367585502E+02  2.692223192E+02  1.250000000E+02  0.00000E+00  9.000E+00
      25     1     1     2     0     0 -1.373773101E+02 -7.669976673E+01 -3.514997129E+01  2.039997550E+02  1.250000000E+02  0.00000E+00  9.000E+00
      21     1     1     2   501   512  1.229785834E+02  5.233334019E+01  6.108493241E+00  1.337902244E+02  1.756062491E-06  0.00000E+00  9.000E+00
#rwgt            1           1   2.2261792856529829E-002          10      387601           0
</event>
<event>
      5   9999  3.79277E-02  1.31585E+02 -1.00000E+00  1.18694E-01
      21    -1     0     0   502   511  0.000000000E+00  0.000000000E+00  1.917281499E+02  1.917281499E+02  0.000000000E+00  0.00000E+00  9.000E+00
      21    -1     0     0   501   502  0.000000000E+00  0.000000000E+00 -9.048125381E+02  9.048125381E+02  0.000000000E+00  0.00000E+00  9.000E+00
      25     1     1     2     0     0  2.256883426E+02  1.805617090E+02 -2.897912642E+02  4.279506228E+02  1.250000000E+02  0.00000E+00  9.000E+00
      25     1     1     2     0     0 -1.670008947E+02 -6.278901007E+01 -4.786059433E+02  5.258520777E+02  1.250000000E+02  0.00000E+00  9.000E+00
      21     1     1     2   501   511 -5.868744790E+01 -1.177726989E+02  5.531281926E+01  1.427379877E+02  2.236564522E-06  0.00000E+00  9.000E+00
#rwgt            1           1   3.0976531792371049E-002          10      387693           0
</event>
<event>
      5   9999  3.79277E-02  1.00164E+02 -1.00000E+00  1.23796E-01
       2    -1     0     0   502     0  0.000000000E+00  0.000000000E+00  3.954095520E+01  3.954095520E+01  0.000000000E+00  0.00000E+00  9.000E+00
      21    -1     0     0   501   502  0.000000000E+00  0.000000000E+00 -1.832688210E+03  1.832688210E+03  0.000000000E+00  0.00000E+00  9.000E+00
      25     1     1     2     0     0 -4.122930349E+01 -8.429125264E+01 -1.018541263E+03  1.030464058E+03  1.250000000E+02  0.00000E+00  9.000E+00
      25     1     1     2     0     0  1.163114470E+02  1.505898713E+02 -5.751974366E+02  6.186135734E+02  1.250000000E+02  0.00000E+00  9.000E+00
       2     1     1     2   501     0 -7.508214348E+01 -6.629861865E+01 -1.994085551E+02  2.231515336E+02  3.814697266E-06  0.00000E+00  9.000E+00
#rwgt            1           1   4.3751984625874332E-002          10      387800           0
</event>
<event>
      5   9999  3.79277E-02  8.25016E+01 -1.00000E+00  1.27706E-01
      21    -1     0     0   502   501  0.000000000E+00  0.000000000E+00  3.421981657E+02  3.421981657E+02  0.000000000E+00  0.00000E+00  9.000E+00
      21    -1     0     0   501   511  0.000000000E+00  0.000000000E+00 -2.676178423E+02  2.676178423E+02  0.000000000E+00  0.00000E+00  9.000E+00
      25     1     1     2     0     0  1.208995337E+02  1.235132766E+02 -4.669505219E+01  2.183521345E+02  1.250000000E+02  0.00000E+00  9.000E+00
      25     1     1     2     0     0 -2.011208552E+02 -1.427758854E+02  1.351985313E+02  3.077957029E+02  1.250000000E+02  0.00000E+00  9.000E+00
      21     1     1     2   502   511  8.022132148E+01  1.926260881E+01 -1.392315568E+01  8.366817066E+01  1.760104067E-06  0.00000E+00  9.000E+00
#rwgt            1           1   4.1482388368842694E-002          10      387846           0
</event>
<event>
      5   9999  3.79277E-02  7.09197E+01 -1.00000E+00  1.30934E-01
      21    -1     0     0   512   501  0.000000000E+00  0.000000000E+00  8.974374623E+02  8.974374623E+02  0.000000000E+00  0.00000E+00  9.000E+00
      21    -1     0     0   501   502  0.000000000E+00  0.000000000E+00 -5.127886210E+02  5.127886210E+02  0.000000000E+00  0.00000E+00  9.000E+00
      25     1     1     2     0     0  4.175726308E+02 -2.644743842E+01  1.114647416E+02  4.506836558E+02  1.250000000E+02  0.00000E+00  9.000E+00
      25     1     1     2     0     0 -3.696637270E+02 -2.584342664E+01 -2.284521386E+02  4.529177998E+02  1.250000000E+02  0.00000E+00  9.000E+00
      21     1     1     2   512   502 -4.790890378E+01  5.229086506E+01  5.016362384E+02  5.066246276E+02  7.629394531E-06  0.00000E+00  9.000E+00
#rwgt            1           1   3.6663925271478603E-002          10      387914           0
</event>
<event>
      5   9999 -3.79277E-02  4.37106E+01 -1.00000E+00  1.42491E-01
      21    -1     0     0   502   501  0.000000000E+00  0.000000000E+00  3.400810513E+02  3.400810513E+02  0.000000000E+00  0.00000E+00  9.000E+00
      21    -1     0     0   501   511  0.000000000E+00  0.000000000E+00 -5.246619760E+02  5.246619760E+02  0.000000000E+00  0.00000E+00  9.000E+00
      25     1     1     2     0     0  9.514102566E+01 -1.944896869E+02  5.673266349E+01  2.563623377E+02  1.250000000E+02  0.00000E+00  9.000E+00
      25     1     1     2     0     0 -8.384861796E+01  1.522629865E+02  1.193213234E+02  2.451064789E+02  1.250000000E+02  0.00000E+00  9.000E+00
      21     1     1     2   502   511 -1.129240770E+01  4.222670036E+01 -3.606349116E+02  3.632742107E+02  5.394796609E-06  0.00000E+00  9.000E+00
#rwgt            1           1  -4.4060896206850005E-002          10      388014           0
</event>
<event>
      5   9999 -3.79277E-02  3.20318E+01 -1.00000E+00  1.51089E-01
      21    -1     0     0   502   512  0.000000000E+00  0.000000000E+00  1.301644833E+02  1.301644833E+02  0.000000000E+00  0.00000E+00  9.000E+00
      21    -1     0     0   501   502  0.000000000E+00  0.000000000E+00 -5.619658383E+02  5.619658383E+02  0.000000000E+00  0.00000E+00  9.000E+00
      25     1     1     2     0     0  2.074226526E+02 -8.211325189E+01 -1.832756199E+02  3.146135658E+02  1.250000000E+02  0.00000E+00  9.000E+00
      25     1     1     2     0     0 -2.088024054E+02  5.011122252E+01 -2.372912279E+02  3.435719807E+02  1.250000000E+02  0.00000E+00  9.000E+00
      21     1     1     2   501   512  1.379752781E+00  3.200202938E+01 -1.123450720E+01  3.394477506E+01  6.529361695E-07  0.00000E+00  9.000E+00
#rwgt            1           1 -0.11391834230884673               10      388181           0
</event>
<event>
      5   9999 -3.79277E-02  9.29868E+01 -1.00000E+00  1.25265E-01
       2    -1     0     0   502     0  0.000000000E+00  0.000000000E+00  5.623777435E+02  5.623777435E+02  0.000000000E+00  0.00000E+00  9.000E+00
      21    -1     0     0   501   502  0.000000000E+00  0.000000000E+00 -6.632974224E+02  6.632974224E+02  0.000000000E+00  0.00000E+00  9.000E+00
      25     1     1     2     0     0  4.804770415E+01 -8.015322645E+01 -4.573503491E+02  4.832467935E+02  1.250000000E+02  0.00000E+00  9.000E+00
      25     1     1     2     0     0 -8.740801230E+01 -4.092272054E+00 -1.580068987E+02  2.196544726E+02  1.250000000E+02  0.00000E+00  9.000E+00
       2     1     1     2   501     0  3.936030815E+01  8.424549850E+01  5.144375689E+02  5.227738997E+02  7.629394531E-06  0.00000E+00  9.000E+00
#rwgt            1           1  -5.2404065397954246E-002          10      388383           0
</event>
<event>
      5   9999  3.79277E-02  4.30991E+01 -1.00000E+00  1.42858E-01
      21    -1     0     0   502   501  0.000000000E+00  0.000000000E+00  2.347043881E+03  2.347043881E+03  0.000000000E+00  0.00000E+00  9.000E+00
       4    -1     0     0   501     0  0.000000000E+00  0.000000000E+00 -3.451206413E+02  3.451206413E+02  0.000000000E+00  0.00000E+00  9.000E+00
      25     1     1     2     0     0  2.473550015E+02  3.907107839E+01  1.594211612E+03  1.618594054E+03  1.250000000E+02  0.00000E+00  9.000E+00
      25     1     1     2     0     0 -2.380786867E+02  3.017952313E+00  7.146760975E+02  7.635951110E+02  1.250000000E+02  0.00000E+00  9.000E+00
       4     1     1     2   502     0 -9.276314790E+00 -4.208903070E+01 -3.069644700E+02  3.099753577E+02  3.814697266E-06  0.00000E+00  9.000E+00
#rwgt            1           1   3.6748173609060783E-002          10      388436           0
</event>
<event>
      5   9999  3.79277E-02  7.62454E+01 -1.00000E+00  1.29368E-01
      -1    -1     0     0     0   501  0.000000000E+00  0.000000000E+00  2.950405783E+02  2.950405783E+02  0.000000000E+00  0.00000E+00  9.000E+00
      21    -1     0     0   501   502  0.000000000E+00  0.000000000E+00 -1.716549826E+02  1.716549826E+02  0.000000000E+00  0.00000E+00  9.000E+00
      25     1     1     2     0     0 -7.690232795E+01 -2.822665265E+01  4.873481008E+01  1.571966720E+02  1.250000000E+02  0.00000E+00  9.000E+00
      25     1     1     2     0     0  8.264148463E+01 -4.780241055E+01 -4.855212302E+01  1.646116463E+02  1.250000000E+02  0.00000E+00  9.000E+00
      -1     1     1     2     0   502 -5.739156680E+00  7.602906320E+01  1.232029087E+02  1.448872426E+02  3.015782986E-06  0.00000E+00  9.000E+00
#rwgt            1           1   2.1589163859392396E-002          10      388552           0
</event>
<event>
      5   9999  3.79277E-02  3.17741E+01 -1.00000E+00  1.51327E-01
      21    -1     0     0   502   501  0.000000000E+00  0.000000000E+00  1.026992880E+03  1.026992880E+03  0.000000000E+00  0.00000E+00  9.000E+00
      21    -1     0     0   511   502  0.000000000E+00  0.000000000E+00 -3.206103725E+02  3.206103725E+02  0.000000000E+00  0.00000E+00  9.000E+00
      25     1     1     2     0     0  1.470374661E+01  1.102500841E+02  7.545516424E+02  7.728806262E+02  1.250000000E+02  0.00000E+00  9.000E+00
      25     1     1     2     0     0 -3.866013737E+00 -1.401187109E+02  2.287579172E+02  2.959786883E+02  1.250000000E+02  0.00000E+00  9.000E+00
      21     1     1     2   511   501 -1.083773288E+01  2.986862688E+01 -2.769270517E+02  2.787439386E+02  5.394796609E-06  0.00000E+00  9.000E+00
#rwgt            1           1   1.0213169492109693E-002          10      388713           0
</event>
<event>
      5   9999  3.79277E-02  7.39008E+01 -1.00000E+00  1.30039E-01
      21    -1     0     0   502   501  0.000000000E+00  0.000000000E+00  7.276934188E+01  7.276934188E+01  0.000000000E+00  0.00000E+00  9.000E+00
      21    -1     0     0   501   512  0.000000000E+00  0.000000000E+00 -1.126837994E+03  1.126837994E+03  0.000000000E+00  0.00000E+00  9.000E+00
      25     1     1     2     0     0  7.312112726E+01  4.264638152E+01 -4.689715283E+01  1.580814855E+02  1.250000000E+02  0.00000E+00  9.000E+00
      25     1     1     2     0     0 -6.049177240E+01 -1.154600179E+02 -5.632329442E+02  5.914783341E+02  1.250000000E+02  0.00000E+00  9.000E+00
      21     1     1     2   502   512 -1.262935486E+01  7.281363635E+01 -4.439385549E+02  4.500475162E+02  7.629394531E-06  0.00000E+00  9.000E+00
#rwgt            1           1   4.3599714416352804E-002          10      388889           0
</event>
<event>
      5   9999  3.79277E-02  5.09688E+01 -1.00000E+00  1.38602E-01
      21    -1     0     0   502   501  0.000000000E+00  0.000000000E+00  7.819329170E+02  7.819329170E+02  0.000000000E+00  0.00000E+00  9.000E+00
      21    -1     0     0   511   502  0.000000000E+00  0.000000000E+00 -6.630885252E+02  6.630885252E+02  0.000000000E+00  0.00000E+00  9.000E+00
      25     1     1     2     0     0 -2.799039873E-01  2.703200606E+01  1.132901045E+02  1.708521451E+02  1.250000000E+02  0.00000E+00  9.000E+00
      25     1     1     2     0     0  1.468974852E+01  2.185742725E+01  6.324413709E+02  6.452136262E+02  1.250000000E+02  0.00000E+00  9.000E+00
      21     1     1     2   511   501 -1.440984454E+01 -4.888943331E+01 -6.268870836E+02  6.289556708E+02  1.078959322E-05  0.00000E+00  9.000E+00
#rwgt            1           1   4.2189717188181854E-002          10      389087           0
</event>
<event>
      5   9999  3.79277E-02  8.99417E+01 -1.00000E+00  1.25935E-01
      21    -1     0     0   502   501  0.000000000E+00  0.000000000E+00  1.921444467E+03  1.921444467E+03  0.000000000E+00  0.00000E+00  9.000E+00
      21    -1     0     0   501   512  0.000000000E+00  0.000000000E+00 -2.124960348E+02  2.124960348E+02  0.000000000E+00  0.00000E+00  9.000E+00
      25     1     1     2     0     0  5.534809248E+01  1.407975510E+02  1.765008862E+03  1.775885313E+03  1.250000000E+02  0.00000E+00  9.000E+00
      25     1     1     2     0     0 -8.158989061E+01 -5.476917183E+01  9.282303220E+01  1.841132471E+02  1.250000000E+02  0.00000E+00  9.000E+00
      21     1     1     2   502   512  2.624179813E+01 -8.602837915E+01 -1.488834618E+02  1.739419420E+02  7.387129490E-06  0.00000E+00  9.000E+00
#rwgt            1           1   1.3509801049550805E-002          10      389235           0
</event>
<event>
      5   9999  3.79277E-02  4.70112E+01 -1.00000E+00  1.40620E-01
       2    -1     0     0   502     0  0.000000000E+00  0.000000000E+00  1.554228605E+03  1.554228605E+03  0.000000000E+00  0.00000E+00  9.000E+00
      21    -1     0     0   501   502  0.000000000E+00  0.000000000E+00 -4.545911114E+01  4.545911114E+01  0.000000000E+00  0.00000E+00  9.000E+00
      25     1     1     2     0     0  1.429318164E+02 -5.937659921E+00  5.446622651E+02  5.768420433E+02  1.250000000E+02  0.00000E+00  9.000E+00
      25     1     1     2     0     0 -9.606955665E+01  9.676259155E+00  1.889854722E+02  2.462996110E+02  1.250000000E+02  0.00000E+00  9.000E+00
       2     1     1     2   501     0 -4.686225971E+01 -3.738599233E+00  7.751217565E+02  7.765460617E+02  0.000000000E+00  0.00000E+00  9.000E+00
#rwgt            1           1   4.8388631578495336E-002          10      389348           0
</event>
<event>
      5   9999 -3.79277E-02  2.20955E+01 -1.00000E+00  1.62876E-01
      21    -1     0     0   511   501  0.000000000E+00  0.000000000E+00  6.595856977E+02  6.595856977E+02  0.000000000E+00  0.00000E+00  9.000E+00
      21    -1     0     0   501   502  0.000000000E+00  0.000000000E+00 -2.221996228E+02  2.221996228E+02  0.000000000E+00  0.00000E+00  9.000E+00
      25     1     1     2     0     0  1.804703261E+02 -6.638165529E+01  4.813504235E+02  5.331972364E+02  1.250000000E+02  0.00000E+00  9.000E+00
      25     1     1     2     0     0 -2.019845925E+02  7.141627075E+01 -1.155770750E+02  2.736441477E+02  1.250000000E+02  0.00000E+00  9.000E+00
      21     1     1     2   511   502  2.151426638E+01 -5.034615460E+00  7.161272640E+01  7.494393634E+01  9.536743164E-07  0.00000E+00  9.000E+00
#rwgt            1           1  -1.3338640888393405E-002          10      389464           0
</event>
<event>
      5   9999  3.79277E-02  6.59466E+01 -1.00000E+00  1.32546E-01
      21    -1     0     0   512   501  0.000000000E+00  0.000000000E+00  2.415812099E+02  2.415812099E+02  0.000000000E+00  0.00000E+00  9.000E+00
      21    -1     0     0   501   502  0.000000000E+00  0.000000000E+00 -1.617056872E+03  1.617056872E+03  0.000000000E+00  0.00000E+00  9.000E+00
      25     1     1     2     0     0 -2.243381473E+02  3.105858953E+02 -6.814972433E+02  7.917415584E+02  1.250000000E+02  0.00000E+00  9.000E+00
      25     1     1     2     0     0  1.683624772E+02 -3.454524751E+02 -8.258683625E+02  9.194383549E+02  1.250000000E+02  0.00000E+00  9.000E+00
      21     1     1     2   512   502  5.597567013E+01  3.486657981E+01  1.318899441E+02  1.474581682E+02  5.722045898E-06  0.00000E+00  9.000E+00
#rwgt            1           1   2.9788042427699127E-002          10      389682           0
</event>
<event>
      5   9999  3.79277E-02  2.39020E+01 -1.00000E+00  1.60226E-01
      21    -1     0     0   502   501  0.000000000E+00  0.000000000E+00  2.522677847E+02  2.522677847E+02  0.000000000E+00  0.00000E+00  9.000E+00
      21    -1     0     0   501   511  0.000000000E+00  0.000000000E+00 -3.017631297E+02  3.017631297E+02  0.000000000E+00  0.00000E+00  9.000E+00
      25     1     1     2     0     0 -5.858986445E-01  1.977762278E+02 -1.026382464E+02  2.554904875E+02  1.250000000E+02  0.00000E+00  9.000E+00
      25     1     1     2     0     0  1.471164331E+01 -2.170575436E+02  7.926636252E+01  2.631322213E+02  1.250000000E+02  0.00000E+00  9.000E+00
      21     1     1     2   502   511 -1.412574467E+01  1.928131578E+01 -2.612346111E+01  3.540820556E+01  5.840038640E-07  0.00000E+00  9.000E+00
#rwgt            1           1   3.0368189265380065E-002          10      389809           0
</event>
<event>
      5   9999  3.79277E-02  1.04447E+02 -1.00000E+00  1.22984E-01
      21    -1     0     0   502   501  0.000000000E+00  0.000000000E+00  4.314944673E+02  4.314944673E+02  0.000000000E+00  0.00000E+00  9.000E+00
      21    -1     0     0   501   512  0.000000000E+00  0.000000000E+00 -1.583745396E+02  1.583745396E+02  0.000000000E+00  0.00000E+00  9.000E+00
      25     1     1     2     0     0 -7.823560141E+01  1.527838265E+02  2.480279331E+02  3.265066041E+02  1.250000000E+02  0.00000E+00  9.000E+00
      25     1     1     2     0     0  5.523825733E+01 -5.090034905E+01  5.314426547E+01  1.552141216E+02  1.250000000E+02  0.00000E+00  9.000E+00
      21     1     1     2   502   512  2.299734409E+01 -1.018834774E+02 -2.805227091E+01  1.081482811E+02  1.390207266E-06  0.00000E+00  9.000E+00
#rwgt            1           1   9.2482032331419571E-003          10      390040           0
</event>
<event>
      5   9999  3.79277E-02  6.28955E+01 -1.00000E+00  1.33619E-01
      21    -1     0     0   502   501  0.000000000E+00  0.000000000E+00  1.804206059E+02  1.804206059E+02  0.000000000E+00  0.00000E+00  9.000E+00
      21    -1     0     0   501   511  0.000000000E+00  0.000000000E+00 -5.030600945E+02  5.030600945E+02  0.000000000E+00  0.00000E+00  9.000E+00
      25     1     1     2     0     0 -9.703417304E+01  2.567386971E+01 -3.134803407E+02  3.520933148E+02  1.250000000E+02  0.00000E+00  9.000E+00
      25     1     1     2     0     0  8.583156573E+01  3.621587471E+01  1.139774553E+02  1.931178593E+02  1.250000000E+02  0.00000E+00  9.000E+00
      21     1     1     2   502   511  1.120260731E+01 -6.188974442E+01 -1.231366033E+02  1.382695264E+02  1.348699152E-06  0.00000E+00  9.000E+00
#rwgt            1           1   4.0039948957069901E-002          10      390132           0
</event>
<event>
      5   9999  3.79277E-02  6.69172E+00 -1.00000E+00  2.18356E-01
      21    -1     0     0   502   512  0.000000000E+00  0.000000000E+00  2.344308385E+01  2.344308385E+01  0.000000000E+00  0.00000E+00  9.000E+00
      21    -1     0     0   501   502  0.000000000E+00  0.000000000E+00 -1.627453830E+03  1.627453830E+03  0.000000000E+00  0.00000E+00  9.000E+00
      25     1     1     2     0     0 -1.819731522E+01 -9.935830994E+01 -3.436403576E+02  3.793638246E+02  1.250000000E+02  0.00000E+00  9.000E+00
      25     1     1     2     0     0  1.365722405E+01  9.444234272E+01 -1.243163917E+03  1.253071187E+03  1.250000000E+02  0.00000E+00  9.000E+00
      21     1     1     2   501   512  4.540091178E+00  4.915967224E+00 -1.720647172E+01  1.846190214E+01  0.000000000E+00  0.00000E+00  9.000E+00
#rwgt            1           1   3.8924960971691160E-002          10      390417           0
</event>
<event>
      5   9999  3.79277E-02  3.80668E+01 -1.00000E+00  1.46187E-01
      21    -1     0     0   502   501  0.000000000E+00  0.000000000E+00  1.462989964E+02  1.462989964E+02  0.000000000E+00  0.00000E+00  9.000E+00
      21    -1     0     0   501   511  0.000000000E+00  0.000000000E+00 -1.035414669E+03  1.035414669E+03  0.000000000E+00  0.00000E+00  9.000E+00
      25     1     1     2     0     0  9.856917166E+01 -1.313933774E+02 -1.493619968E+02  2.547824706E+02  1.250000000E+02  0.00000E+00  9.000E+00
      25     1     1     2     0     0 -6.604886251E+01  1.511799156E+02 -2.198004159E+01  2.081488442E+02  1.250000000E+02  0.00000E+00  9.000E+00
      21     1     1     2   502   511 -3.252030915E+01 -1.978653822E+01 -7.177736345E+02  7.187823509E+02  0.000000000E+00  0.00000E+00  9.000E+00
#rwgt            1           1   3.8583108940159115E-002          10      390805           0
</event>
<event>
      5   9999  3.79277E-02  2.30361E+02 -1.00000E+00  1.09458E-01
      21    -1     0     0   502   501  0.000000000E+00  0.000000000E+00  9.454967130E+02  9.454967130E+02  0.000000000E+00  0.00000E+00  9.000E+00
      21    -1     0     0   501   512  0.000000000E+00  0.000000000E+00 -5.627039001E+02  5.627039001E+02  0.000000000E+00  0.00000E+00  9.000E+00
      25     1     1     2     0     0  1.218719911E+02 -8.952270203E+01  1.360343573E+02  2.387413721E+02  1.250000000E+02  0.00000E+00  9.000E+00
      25     1     1     2     0     0 -3.193827032E+02  2.080796876E+02  6.738402369E+02  7.842117905E+02  1.250000000E+02  0.00000E+00  9.000E+00
      21     1     1     2   502   512  1.975107121E+02 -1.185569855E+02 -4.270817813E+02  4.852474504E+02  5.394796609E-06  0.00000E+00  9.000E+00
#rwgt            1           1   2.9871295297365281E-002          10      390969           0
</event>
<event>
      5   9999  3.79277E-02  1.25755E+01 -1.00000E+00  1.84914E-01
      21    -1     0     0   502   511  0.000000000E+00  0.000000000E+00  5.478767709E+01  5.478767709E+01  0.000000000E+00  0.00000E+00  9.000E+00
      21    -1     0     0   501   502  0.000000000E+00  0.000000000E+00 -1.308807169E+03  1.308807169E+03  0.000000000E+00  0.00000E+00  9.000E+00
      25     1     1     2     0     0 -1.576389186E+02 -9.567875898E+01 -3.255912953E+02  3.945112738E+02  1.250000000E+02  0.00000E+00  9.000E+00
      25     1     1     2     0     0  1.670793746E+02  1.039866990E+02 -9.276346392E+02  9.564830238E+02  1.250000000E+02  0.00000E+00  9.000E+00
      21     1     1     2   501   511 -9.440456065E+00 -8.307940070E+00 -7.935569812E-01  1.260054807E+01  4.642136244E-07  0.00000E+00  9.000E+00
#rwgt            1           1   2.5836549835481462E-002          10      391031           0
</event>
<event>
      5   9999  3.79277E-02  3.90352E+01 -1.00000E+00  1.45501E-01
      21    -1     0     0   512   501  0.000000000E+00  0.000000000E+00  6.695625568E+02  6.695625568E+02  0.000000000E+00  0.00000E+00  9.000E+00
      21    -1     0     0   501   502  0.000000000E+00  0.000000000E+00 -1.656288176E+02  1.656288176E+02  0.000000000E+00  0.00000E+00  9.000E+00
      25     1     1     2     0     0 -1.104544805E+02  2.424079482E+02  2.560453393E+02  3.900589973E+02  1.250000000E+02  0.00000E+00  9.000E+00
      25     1     1     2     0     0  1.123565477E+02 -2.813967895E+02  2.025484695E+02  3.853038145E+02  1.250000000E+02  0.00000E+00  9.000E+00
      21     1     1     2   512   502 -1.902067153E+00  3.898884133E+01  4.533993041E+01  5.982856255E+01  1.168007728E-06  0.00000E+00  9.000E+00
#rwgt            1           1   2.0542601607997223E-002          10      391415           0
</event>
<event>
      5   9999 -3.79277E-02  1.55807E+01 -1.00000E+00  1.75844E-01
      21    -1     0     0   502   501  0.000000000E+00  0.000000000E+00  1.359811388E+02  1.359811388E+02  0.000000000E+00  0.00000E+00  9.000E+00
      21    -1     0     0   511   502  0.000000000E+00  0.000000000E+00 -4.699051260E+02  4.699051260E+02  0.000000000E+00  0.00000E+00  9.000E+00
      25     1     1     2     0     0  9.129031781E+01  1.462052658E+02 -4.985994743E+01  2.186799401E+02  1.250000000E+02  0.00000E+00  9.000E+00
      25     1     1     2     0     0 -7.571295260E+01 -1.458831183E+02 -1.575415051E+02  2.597280525E+02  1.250000000E+02  0.00000E+00  9.000E+00
      21     1     1     2   511   501 -1.557736521E+01 -3.221474471E-01 -1.265225347E+02  1.274782721E+02  1.348699152E-06  0.00000E+00  9.000E+00
#rwgt            1           1  -5.0784861094774716E-002          10      391590           0
</event>
<event>
      5   9999  3.79277E-02  9.62740E+01 -1.00000E+00  1.24574E-01
      21    -1     0     0   502   512  0.000000000E+00  0.000000000E+00  2.518189895E+02  2.518189895E+02  0.000000000E+00  0.00000E+00  9.000E+00
      21    -1     0     0   501   502  0.000000000E+00  0.000000000E+00 -6.588088443E+02  6.588088443E+02  0.000000000E+00  0.00000E+00  9.000E+00
      25     1     1     2     0     0  2.699642505E+02 -8.159269827E+01 -3.434947552E+02  4.616835624E+02  1.250000000E+02  0.00000E+00  9.000E+00
      25     1     1     2     0     0 -1.869324865E+02  3.286478126E+01 -1.856204664E+02  2.934345002E+02  1.250000000E+02  0.00000E+00  9.000E+00
      21     1     1     2   501   512 -8.303176396E+01  4.872791700E+01  1.221253668E+02  1.555097712E+02  1.348699152E-06  0.00000E+00  9.000E+00
#rwgt            1           1   2.2974402163313694E-002          10      391835           0
</event>
<event>
      5   9999  3.79277E-02  4.50843E+01 -1.00000E+00  1.41689E-01
       1    -1     0     0   502     0  0.000000000E+00  0.000000000E+00  9.893847717E+02  9.893847717E+02  0.000000000E+00  0.00000E+00  9.000E+00
      21    -1     0     0   501   502  0.000000000E+00  0.000000000E+00 -1.817073607E+02  1.817073607E+02  0.000000000E+00  0.00000E+00  9.000E+00
      25     1     1     2     0     0 -9.807200546E+01  1.331166405E+02  5.033414719E+02  5.443489649E+02  1.250000000E+02  0.00000E+00  9.000E+00
      25     1     1     2     0     0  8.688884158E+01 -1.767919606E+02 -7.475058819E+01  2.449851395E+02  1.250000000E+02  0.00000E+00  9.000E+00
       1     1     1     2   501     0  1.118316388E+01  4.367532012E+01  3.790865273E+02  3.817580279E+02  0.000000000E+00  0.00000E+00  9.000E+00
#rwgt            1           1   4.0364998242436508E-002          10      391951           0
</event>
<event>
      5   9999  3.79277E-02  6.81891E+01 -1.00000E+00  1.31800E-01
      21    -1     0     0   502   501  0.000000000E+00  0.000000000E+00  1.783910106E+03  1.783910106E+03  0.000000000E+00  0.00000E+00  9.000E+00
      21    -1     0     0   511   502  0.000000000E+00  0.000000000E+00 -1.592043197E+02  1.592043197E+02  0.000000000E+00  0.00000E+00  9.000E+00
      25     1     1     2     0     0  2.118167882E+02  5.543833247E+01  7.923894029E+02  8.315321559E+02  1.250000000E+02  0.00000E+00  9.000E+00
      25     1     1     2     0     0 -1.694728358E+02 -1.088868649E+02  9.480568741E+02  9.772482939E+02  1.250000000E+02  0.00000E+00  9.000E+00
      21     1     1     2   511   501 -4.234395237E+01  5.344853240E+01 -1.157404907E+02  1.343339760E+02  3.814697266E-06  0.00000E+00  9.000E+00
#rwgt            1           1   2.2130631771221272E-002          10      392051           0
</event>
<event>
      5   9999  3.79277E-02  1.98427E+01 -1.00000E+00  1.66653E-01
      21    -1     0     0   502   512  0.000000000E+00  0.000000000E+00  6.195344338E+01  6.195344338E+01  0.000000000E+00  0.00000E+00  9.000E+00
      21    -1     0     0   501   502  0.000000000E+00  0.000000000E+00 -7.821705301E+02  7.821705301E+02  0.000000000E+00  0.00000E+00  9.000E+00
      25     1     1     2     0     0 -1.141579930E+02  7.711307395E+01 -3.661942194E+02  4.107331005E+02  1.250000000E+02  0.00000E+00  9.000E+00
      25     1     1     2     0     0  1.042882409E+02 -9.432704646E+01 -3.650554277E+02  4.106873436E+02  1.250000000E+02  0.00000E+00  9.000E+00
      21     1     1     2   501   512  9.869752163E+00  1.721397251E+01  1.103256038E+01  2.270352937E+01  2.064765462E-07  0.00000E+00  9.000E+00
#rwgt            2          11   7.5511708105169240E-004          10      392226           0
</event>
<event>
      5   9999  3.79277E-02  9.14231E+00 -1.00000E+00  2.00369E-01
      21    -1     0     0   502   501  0.000000000E+00  0.000000000E+00  9.305095292E+01  9.305095292E+01  0.000000000E+00  0.00000E+00  9.000E+00
      21    -1     0     0   511   502  0.000000000E+00  0.000000000E+00 -7.113203196E+02  7.113203196E+02  0.000000000E+00  0.00000E+00  9.000E+00
      25     1     1     2     0     0  9.527234836E+01 -7.905093377E+01 -1.751810154E+01  1.767986266E+02  1.250000000E+02  0.00000E+00  9.000E+00
      25     1     1     2     0     0 -8.619423180E+01  7.796941994E+01 -5.846592330E+02  6.090649348E+02  1.250000000E+02  0.00000E+00  9.000E+00
      21     1     1     2   511   501 -9.078116551E+00  1.081513839E+00 -1.609203210E+01  1.850771108E+01  2.384185791E-07  0.00000E+00  9.000E+00
#rwgt            1           1   4.3133117639609614E-002          10      392351           0
</event>
<event>
      5   9999  3.79277E-02  6.17111E+01 -1.00000E+00  1.34054E-01
      21    -1     0     0   502   512  0.000000000E+00  0.000000000E+00  7.681571451E+02  7.681571451E+02  0.000000000E+00  0.00000E+00  9.000E+00
      21    -1     0     0   501   502  0.000000000E+00  0.000000000E+00 -1.491804214E+02  1.491804214E+02  0.000000000E+00  0.00000E+00  9.000E+00
      25     1     1     2     0     0 -2.741212709E+02  5.761861732E+01  4.471460969E+02  5.422425732E+02  1.250000000E+02  0.00000E+00  9.000E+00
      25     1     1     2     0     0  2.182499831E+02 -8.382279655E+01  1.078691699E+02  2.862168307E+02  1.250000000E+02  0.00000E+00  9.000E+00
      21     1     1     2   501   512  5.587128781E+01  2.620417923E+01  6.396145686E+01  8.887816253E+01  1.651812370E-06  0.00000E+00  9.000E+00
#rwgt            1           1   3.7543960844350667E-002          10      392690           0
</event>
<event>
      5   9999  3.79277E-02  9.58134E+01 -1.00000E+00  1.24669E-01
      21    -1     0     0   511   501  0.000000000E+00  0.000000000E+00  1.696804173E+02  1.696804173E+02  0.000000000E+00  0.00000E+00  9.000E+00
      21    -1     0     0   501   502  0.000000000E+00  0.000000000E+00 -6.671856999E+02  6.671856999E+02  0.000000000E+00  0.00000E+00  9.000E+00
      25     1     1     2     0     0  3.747035416E+01  1.465839600E+02 -4.164261486E+02  4.603548871E+02  1.250000000E+02  0.00000E+00  9.000E+00
      25     1     1     2     0     0 -7.054326490E+01 -5.665956633E+01 -1.811521292E+02  2.379658644E+02  1.250000000E+02  0.00000E+00  9.000E+00
      21     1     1     2   511   502  3.307291075E+01 -8.992439366E+01  1.000729953E+02  1.385453658E+02  1.348699152E-06  0.00000E+00  9.000E+00
#rwgt            1           1   2.5527269502513349E-002          10      392804           0
</event>
<event>
      5   9999  3.79277E-02  1.16885E+02 -1.00000E+00  1.20855E-01
      21    -1     0     0   502   501  0.000000000E+00  0.000000000E+00  6.742499164E+02  6.742499164E+02  0.000000000E+00  0.00000E+00  9.000E+00
      21    -1     0     0   512   502  0.000000000E+00  0.000000000E+00 -6.132832566E+02  6.132832566E+02  0.000000000E+00  0.00000E+00  9.000E+00
      25     1     1     2     0     0  1.465225379E+02  4.092393637E+01 -1.526479971E+02  2.491385834E+02  1.250000000E+02  0.00000E+00  9.000E+00
      25     1     1     2     0     0 -9.435950637E+01  6.367643610E+01  6.059106055E+02  6.290556945E+02  1.250000000E+02  0.00000E+00  9.000E+00
      21     1     1     2   512   501 -5.216303157E+01 -1.046003725E+02 -3.922959486E+02  4.093388951E+02  0.000000000E+00  0.00000E+00  9.000E+00
#rwgt            1           1   4.0719394780093399E-002          10      393007           0
</event>
<event>
      5   9999  3.79277E-02  1.46389E+01 -1.00000E+00  1.78386E-01
      21    -1     0     0   502   501  0.000000000E+00  0.000000000E+00  1.978959356E+02  1.978959356E+02  0.000000000E+00  0.00000E+00  9.000E+00
      21    -1     0     0   501   511  0.000000000E+00  0.000000000E+00 -4.604135349E+02  4.604135349E+02  0.000000000E+00  0.00000E+00  9.000E+00
      25     1     1     2     0     0  2.040422299E+02  8.518749148E+01  4.465122828E+01  2.578931416E+02  1.250000000E+02  0.00000E+00  9.000E+00
      25     1     1     2     0     0 -1.930075285E+02 -7.556811443E+01 -2.859816202E+02  3.746637601E+02  1.250000000E+02  0.00000E+00  9.000E+00
      21     1     1     2   502   511 -1.103470140E+01 -9.619377046E+00 -2.118720729E+01  2.575256885E+01  3.371747881E-07  0.00000E+00  9.000E+00
#rwgt            1           1   3.2071061679025292E-002          10      393263           0
</event>
<event>
      5   9999  3.79277E-02  4.12868E+01 -1.00000E+00  1.43992E-01
      21    -1     0     0   502   501  0.000000000E+00  0.000000000E+00  5.063851419E+01  5.063851419E+01  0.000000000E+00  0.00000E+00  9.000E+00
       2    -1     0     0   501     0  0.000000000E+00  0.000000000E+00 -2.451202357E+03  2.451202357E+03  0.000000000E+00  0.00000E+00  9.000E+00
      25     1     1     2     0     0 -1.562034129E+02  7.458534549E+01 -3.084515056E+02  3.751397223E+02  1.250000000E+02  0.00000E+00  9.000E+00
      25     1     1     2     0     0  1.865370217E+02 -1.025937921E+02 -8.823861937E+02  9.162706704E+02  1.250000000E+02  0.00000E+00  9.000E+00
       2     1     1     2   502     0 -3.033360888E+01  2.800844657E+01 -1.209726144E+03  1.210430479E+03  1.525878906E-05  0.00000E+00  9.000E+00
#rwgt            1           1   8.2765681065214369E-002          10      393533           0
</event>
<event>
      5   9999  3.79277E-02  4.58873E+01 -1.00000E+00  1.41236E-01
      -1    -1     0     0     0   501  0.000000000E+00  0.000000000E+00  7.217091423E+02  7.217091423E+02  0.000000000E+00  0.00000E+00  9.000E+00
      21    -1     0     0   501   502  0.000000000E+00  0.000000000E+00 -5.073568766E+02  5.073568766E+02  0.000000000E+00  0.00000E+00  9.000E+00
      25     1     1     2     0     0  7.720931079E+01  5.344853745E+01 -9.578078864E+01  1.833493477E+02  1.250000000E+02  0.00000E+00  9.000E+00
      25     1     1     2     0     0 -1.209277480E+02 -3.950791773E+01 -3.453205300E+02  3.886588018E+02  1.250000000E+02  0.00000E+00  9.000E+00
      -1     1     1     2     0   502  4.371843724E+01 -1.394061973E+01  6.554535843E+02  6.570578694E+02  0.000000000E+00  0.00000E+00  9.000E+00
#rwgt            1           1   4.7046259752147976E-002          10      393650           0
</event>
<event>
      5   9999  3.79277E-02  2.52715E+01 -1.00000E+00  1.58400E-01
      21    -1     0     0   511   501  0.000000000E+00  0.000000000E+00  5.252339062E+02  5.252339062E+02  0.000000000E+00  0.00000E+00  9.000E+00
      21    -1     0     0   501   502  0.000000000E+00  0.000000000E+00 -9.964775942E+01  9.964775942E+01  0.000000000E+00  0.00000E+00  9.000E+00
      25     1     1     2     0     0 -5.679047960E+01  8.590582760E+01  6.281897417E+01  1.737129624E+02  1.250000000E+02  0.00000E+00  9.000E+00
      25     1     1     2     0     0  8.159950806E+01 -9.071860037E+01  1.318060711E+02  2.188291218E+02  1.250000000E+02  0.00000E+00  9.000E+00
      21     1     1     2   511   502 -2.480902846E+01  4.812772774E+00  2.309611016E+02  2.323395815E+02  0.000000000E+00  0.00000E+00  9.000E+00
#rwgt            1           1  0.10700649661574572               10      393723           0
</event>
<event>
      5   9999  3.79277E-02  3.82831E+01 -1.00000E+00  1.46032E-01
      21    -1     0     0   512   501  0.000000000E+00  0.000000000E+00  8.477680001E+01  8.477680001E+01  0.000000000E+00  0.00000E+00  9.000E+00
      21    -1     0     0   501   502  0.000000000E+00  0.000000000E+00 -8.306694324E+02  8.306694324E+02  0.000000000E+00  0.00000E+00  9.000E+00
      25     1     1     2     0     0  1.382108180E+02 -1.187793425E+02 -3.907477561E+02  4.489093130E+02  1.250000000E+02  0.00000E+00  9.000E+00
      25     1     1     2     0     0 -1.003565111E+02  1.130656770E+02 -3.751505823E+02  4.233417485E+02  1.250000000E+02  0.00000E+00  9.000E+00
      21     1     1     2   512   502 -3.785430686E+01  5.713665541E+00  2.000570595E+01  4.319517094E+01  8.259061849E-07  0.00000E+00  9.000E+00
#rwgt            1           1   1.9854955770953409E-002          10      393918           0
</event>
<event>
      5   9999  3.79277E-02  1.36703E+01 -1.00000E+00  1.81268E-01
      21    -1     0     0   511   501  0.000000000E+00  0.000000000E+00  8.694143450E+01  8.694143450E+01  0.000000000E+00  0.00000E+00  9.000E+00
      21    -1     0     0   501   502  0.000000000E+00  0.000000000E+00 -1.014063466E+03  1.014063466E+03  0.000000000E+00  0.00000E+00  9.000E+00
      25     1     1     2     0     0  3.026978023E+01 -2.535059720E+02 -3.766865294E+02  4.719102445E+02  1.250000000E+02  0.00000E+00  9.000E+00
      25     1     1     2     0     0 -1.903139909E+01  2.612889694E+02 -5.332368001E+02  6.071248674E+02  1.250000000E+02  0.00000E+00  9.000E+00
      21     1     1     2   511   502 -1.123838114E+01 -7.782997404E+00 -1.719870189E+01  2.196978848E+01  2.384185791E-07  0.00000E+00  9.000E+00
#rwgt            1           1   3.4889822631870578E-002          10      394018           0
</event>
<event>
      5   9999 -3.79277E-02  1.86002E+01 -1.00000E+00  1.69012E-01
      21    -1     0     0   512   501  0.000000000E+00  0.000000000E+00  3.939685948E+02  3.939685948E+02  0.000000000E+00  0.00000E+00  9.000E+00
      21    -1     0     0   501   502  0.000000000E+00  0.000000000E+00 -3.626052782E+03  3.626052782E+03  0.000000000E+00  0.00000E+00  9.000E+00
      25     1     1     2     0     0  2.357733118E+02 -1.351873698E+01 -2.450650421E+03  2.465174293E+03  1.250000000E+02  0.00000E+00  9.000E+00
      25     1     1     2     0     0 -2.241680277E+02 -1.016842168E+00 -1.153806734E+03  1.182009864E+03  1.250000000E+02  0.00000E+00  9.000E+00
      21     1     1     2   512   502 -1.160528409E+01  1.453557915E+01  3.723729674E+02  3.728372199E+02  1.078959322E-05  0.00000E+00  9.000E+00
#rwgt            1           1  -8.6639071040856969E-002          10      394244           0
</event>
<event>
      5   9999  3.79277E-02  8.95150E+01 -1.00000E+00  1.26031E-01
      21    -1     0     0   511   501  0.000000000E+00  0.000000000E+00  1.227306732E+03  1.227306732E+03  0.000000000E+00  0.00000E+00  9.000E+00
      21    -1     0     0   501   502  0.000000000E+00  0.000000000E+00 -5.803220601E+01  5.803220601E+01  0.000000000E+00  0.00000E+00  9.000E+00
      25     1     1     2     0     0 -1.930507152E+02 -9.934832424E+01  6.855732566E+02  7.299139390E+02  1.250000000E+02  0.00000E+00  9.000E+00
      25     1     1     2     0     0  1.209080362E+02  4.635426038E+01  2.790941399E+02  3.320933748E+02  1.250000000E+02  0.00000E+00  9.000E+00
      21     1     1     2   511   502  7.214267897E+01  5.299406387E+01  2.046071298E+02  2.233316245E+02  2.697398305E-06  0.00000E+00  9.000E+00
#rwgt            1           1   4.8029398448527577E-002          10      394451           0
</event>
<event>
      5   9999  3.79277E-02  4.84941E+01 -1.00000E+00  1.39838E-01
      21    -1     0     0   512   501  0.000000000E+00  0.000000000E+00  3.796238040E+02  3.796238040E+02  0.000000000E+00  0.00000E+00  9.000E+00
      21    -1     0     0   501   502  0.000000000E+00  0.000000000E+00 -1.816338790E+02  1.816338790E+02  0.000000000E+00  0.00000E+00  9.000E+00
      25     1     1     2     0     0  6.893068931E+01  1.715315149E+02 -2.881797808E+01  2.250110584E+02  1.250000000E+02  0.00000E+00  9.000E+00
      25     1     1     2     0     0 -4.951936964E+01 -1.270918931E+02  1.244255931E+02  2.229601881E+02  1.250000000E+02  0.00000E+00  9.000E+00
      21     1     1     2   512   502 -1.941131967E+01 -4.443962186E+01  1.023823099E+02  1.132864365E+02  1.348699152E-06  0.00000E+00  9.000E+00
#rwgt            1           1   4.0293811437789664E-002          10      394783           0
</event>
<event>
      5   9999  3.79277E-02  1.10734E+01 -1.00000E+00  1.90774E-01
       1    -1     0     0   502     0  0.000000000E+00  0.000000000E+00  4.527385893E+02  4.527385893E+02  0.000000000E+00  0.00000E+00  9.000E+00
      21    -1     0     0   501   502  0.000000000E+00  0.000000000E+00 -8.720552839E+01  8.720552839E+01  0.000000000E+00  0.00000E+00  9.000E+00
      25     1     1     2     0     0 -6.700697809E+01  2.970081759E+01  3.018382091E+02  3.348184257E+02  1.250000000E+02  0.00000E+00  9.000E+00
      25     1     1     2     0     0  5.660342446E+01 -3.349369403E+01  7.857025709E-01  1.412493983E+02  1.250000000E+02  0.00000E+00  9.000E+00
       1     1     1     2   501     0  1.040355363E+01  3.792876437E+00  6.290914923E+01  6.387629369E+01  6.743495762E-07  0.00000E+00  9.000E+00
#rwgt            1           1   5.0587076869928839E-002          10      394874           0
</event>
<event>
      5   9999 -3.79277E-02  1.81707E+01 -1.00000E+00  1.69881E-01
      21    -1     0     0   511   501  0.000000000E+00  0.000000000E+00  3.063239345E+02  3.063239345E+02  0.000000000E+00  0.00000E+00  9.000E+00
      21    -1     0     0   501   502  0.000000000E+00  0.000000000E+00 -5.570090603E+02  5.570090603E+02  0.000000000E+00  0.00000E+00  9.000E+00
      25     1     1     2     0     0 -1.083664889E+02  8.301692180E+01 -2.995129186E+02  3.520910304E+02  1.250000000E+02  0.00000E+00  9.000E+00
      25     1     1     2     0     0  1.255692088E+02 -7.716528149E+01 -1.904195591E+02  2.713055756E+02  1.250000000E+02  0.00000E+00  9.000E+00
      21     1     1     2   511   502 -1.720271983E+01 -5.851640316E+00  2.392473519E+02  2.399363888E+02  3.814697266E-06  0.00000E+00  9.000E+00
#rwgt            1           1 -0.32766320045104042               10      395144           0
</event>
<event>
      5   9999  3.79277E-02  6.46921E+01 -1.00000E+00  1.32979E-01
      21    -1     0     0   502   512  0.000000000E+00  0.000000000E+00  1.588933372E+02  1.588933372E+02  0.000000000E+00  0.00000E+00  9.000E+00
      21    -1     0     0   501   502  0.000000000E+00  0.000000000E+00 -5.294683935E+02  5.294683935E+02  0.000000000E+00  0.00000E+00  9.000E+00
      25     1     1     2     0     0  2.008095474E+02  1.758407140E+01 -1.438045226E+02  2.773777472E+02  1.250000000E+02  0.00000E+00  9.000E+00
      25     1     1     2     0     0 -2.356736760E+02 -7.207772736E+01 -1.992576601E+02  3.406844514E+02  1.250000000E+02  0.00000E+00  9.000E+00
      21     1     1     2   501   512  3.486412854E+01  5.449365596E+01 -2.751287365E+01  7.029953211E+01  1.305872339E-06  0.00000E+00  9.000E+00
#rwgt            1           1   3.0460381530658564E-002          10      395328           0
</event>
<event>
      5   9999  3.79277E-02  7.91251E+00 -1.00000E+00  2.08297E-01
      21    -1     0     0   511   501  0.000000000E+00  0.000000000E+00  1.982924174E+02  1.982924174E+02  0.000000000E+00  0.00000E+00  9.000E+00
      21    -1     0     0   501   502  0.000000000E+00  0.000000000E+00 -1.002643917E+03  1.002643917E+03  0.000000000E+00  0.00000E+00  9.000E+00
      25     1     1     2     0     0  5.318788225E+01  4.044760971E+01 -2.437617041E+01  1.438198791E+02  1.250000000E+02  0.00000E+00  9.000E+00
      25     1     1     2     0     0 -4.734137799E+01 -4.577923277E+01 -9.129946055E+02  9.238620535E+02  1.250000000E+02  0.00000E+00  9.000E+00
      21     1     1     2   511   502 -5.846504265E+00  5.331623067E+00  1.330192761E+02  1.332544020E+02  1.907348633E-06  0.00000E+00  9.000E+00
#rwgt            1           1   4.9658216614848157E-002          10      395422           0
</event>
<event>
      5   9999  3.79277E-02  1.02038E+02 -1.00000E+00  1.23435E-01
      21    -1     0     0   502   501  0.000000000E+00  0.000000000E+00  2.713444977E+02  2.713444977E+02  0.000000000E+00  0.00000E+00  9.000E+00
      21    -1     0     0   512   502  0.000000000E+00  0.000000000E+00 -4.736273517E+02  4.736273517E+02  0.000000000E+00  0.00000E+00  9.000E+00
      25     1     1     2     0     0 -8.578832965E+01  1.432841306E+02 -5.244869153E+01  2.150949670E+02  1.250000000E+02  0.00000E+00  9.000E+00
      25     1     1     2     0     0  6.469344188E+01 -4.345032578E+01  1.517576453E+02  2.114912649E+02  1.250000000E+02  0.00000E+00  9.000E+00
      21     1     1     2   512   501  2.109488777E+01 -9.983380484E+01 -3.015918078E+02  3.183856175E+02  3.814697266E-06  0.00000E+00  9.000E+00
#rwgt            1           1   3.7820557669600838E-002          10      395870           0
</event>
<event>
      5   9999  3.79277E-02  7.05181E+01 -1.00000E+00  1.31059E-01
      -3    -1     0     0     0   501  0.000000000E+00  0.000000000E+00  1.492049948E+03  1.492049948E+03  0.000000000E+00  0.00000E+00  9.000E+00
      21    -1     0     0   501   502  0.000000000E+00  0.000000000E+00 -1.956995034E+03  1.956995034E+03  0.000000000E+00  0.00000E+00  9.000E+00
      25     1     1     2     0     0  1.663935475E+02 -1.584294705E+02 -1.242504678E+03  1.269736030E+03  1.250000000E+02  0.00000E+00  9.000E+00
      25     1     1     2     0     0 -1.670974208E+02  8.791487997E+01 -6.817111468E+02  7.183353408E+02  1.250000000E+02  0.00000E+00  9.000E+00
      -3     1     1     2     0   502  7.038733206E-01  7.051459053E+01  1.459270739E+03  1.460973611E+03  0.000000000E+00  0.00000E+00  9.000E+00
#rwgt            1           1   2.1804407681742497E-002          10      395926           0
</event>
<event>
      5   9999  3.79277E-02  1.79872E+02 -1.00000E+00  1.13351E-01
      21    -1     0     0   502   501  0.000000000E+00  0.000000000E+00  8.665813761E+01  8.665813761E+01  0.000000000E+00  0.00000E+00  9.000E+00
      21    -1     0     0   511   502  0.000000000E+00  0.000000000E+00 -1.855390150E+03  1.855390150E+03  0.000000000E+00  0.00000E+00  9.000E+00
      25     1     1     2     0     0 -1.192118517E+02  1.746947465E+02 -1.959023116E+02  3.142171792E+02  1.250000000E+02  0.00000E+00  9.000E+00
      25     1     1     2     0     0 -5.944559894E+01 -1.955623148E+02 -9.167755709E+02  9.475657474E+02  1.250000000E+02  0.00000E+00  9.000E+00
      21     1     1     2   511   501  1.786574506E+02  2.086756834E+01 -6.560541294E+02  6.802653606E+02  0.000000000E+00  0.00000E+00  9.000E+00
#rwgt            2          11   1.3517786559907896E-003          10      396056           0
</event>
<event>
      5   9999  3.79277E-02  6.92364E+01 -1.00000E+00  1.31462E-01
       2    -1     0     0   502     0  0.000000000E+00  0.000000000E+00  2.448458580E+02  2.448458580E+02  0.000000000E+00  0.00000E+00  9.000E+00
      21    -1     0     0   501   502  0.000000000E+00  0.000000000E+00 -8.462135897E+02  8.462135897E+02  0.000000000E+00  0.00000E+00  9.000E+00
      25     1     1     2     0     0 -7.759737341E+01  1.405429508E+02 -3.299218904E+02  3.876172431E+02  1.250000000E+02  0.00000E+00  9.000E+00
      25     1     1     2     0     0  9.861092399E+00 -1.548775767E+02 -4.606843524E+02  5.019356307E+02  1.250000000E+02  0.00000E+00  9.000E+00
       2     1     1     2   501     0  6.773628102E+01  1.433462587E+01  1.892385111E+02  2.015065739E+02  0.000000000E+00  0.00000E+00  9.000E+00
#rwgt            1           1   3.6440996814964453E-002          10      396091           0
</event>
<event>
      5   9999  4.83346E-02  7.99750E+01 -1.00000E+00  1.28356E-01
       2    -1     0     0   502     0  0.000000000E+00  0.000000000E+00  1.244193529E+03  1.244193529E+03  0.000000000E+00  0.00000E+00  9.000E+00
      21    -1     0     0   501   502  0.000000000E+00  0.000000000E+00 -5.690677126E+01  5.690677126E+01  0.000000000E+00  0.00000E+00  9.000E+00
      25     1     1     2     0     0  7.569766630E+01  1.003920764E+02  3.563919800E+02  3.980564647E+02  1.250000000E+02  0.00000E+00  9.000E+00
      25     1     1     2     0     0 -1.554124648E+02 -9.394590514E+01  3.369403670E+02  4.026570230E+02  1.250000000E+02  0.00000E+00  9.000E+00
       2     1     1     2   501     0  7.971479851E+01 -6.446171224E+00  4.939544110E+02  5.003868127E+02  5.394796609E-06  0.00000E+00  9.000E+00
#rwgt            1           1  0.40072676903638077               10      396306           0
</event>
<event>
      5   9999  3.79277E-02  7.72292E+01 -1.00000E+00  1.29095E-01
       2    -1     0     0   502     0  0.000000000E+00  0.000000000E+00  7.831389267E+02  7.831389267E+02  0.000000000E+00  0.00000E+00  9.000E+00
      21    -1     0     0   501   502  0.000000000E+00  0.000000000E+00 -1.238421825E+02  1.238421825E+02  0.000000000E+00  0.00000E+00  9.000E+00
      25     1     1     2     0     0 -1.261143045E+02 -1.706417552E+01  2.634271592E+02  3.181428486E+02  1.250000000E+02  0.00000E+00  9.000E+00
      25     1     1     2     0     0  4.983841318E+01  4.967218459E+00 -4.444215343E+01  1.418049565E+02  1.250000000E+02  0.00000E+00  9.000E+00
       2     1     1     2   501     0  7.627589128E+01  1.209695706E+01  4.403117384E+02  4.470333041E+02  5.394796609E-06  0.00000E+00  9.000E+00
#rwgt            1           1   3.4902954152768152E-002          10      396522           0
</event>
<event>
      5   9999  3.79277E-02  1.74702E+01 -1.00000E+00  1.71365E-01
      21    -1     0     0   502   511  0.000000000E+00  0.000000000E+00  3.835049493E+02  3.835049493E+02  0.000000000E+00  0.00000E+00  9.000E+00
      21    -1     0     0   501   502  0.000000000E+00  0.000000000E+00 -2.942045931E+02  2.942045931E+02  0.000000000E+00  0.00000E+00  9.000E+00
      25     1     1     2     0     0 -7.465502419E+01  2.160179075E+02  1.685106987E+02  3.102546769E+02  1.250000000E+02  0.00000E+00  9.000E+00
      25     1     1     2     0     0  9.182928858E+01 -2.128160804E+02 -1.441457527E+02  3.002104268E+02  1.250000000E+02  0.00000E+00  9.000E+00
      21     1     1     2   501   511 -1.717426438E+01 -3.201827016E+00  6.493541009E+01  6.724443871E+01  9.536743164E-07  0.00000E+00  9.000E+00
#rwgt            1           1   2.9632446703046572E-002          10      396590           0
</event>
<event>
      5   9999  3.79277E-02  6.13107E+01 -1.00000E+00  1.34204E-01
       2    -1     0     0   502     0  0.000000000E+00  0.000000000E+00  9.083189194E+02  9.083189194E+02  0.000000000E+00  0.00000E+00  9.000E+00
      21    -1     0     0   501   502  0.000000000E+00  0.000000000E+00 -1.279520638E+02  1.279520638E+02  0.000000000E+00  0.00000E+00  9.000E+00
      25     1     1     2     0     0  9.051835823E+01 -9.322892769E+01  6.325499719E+02  6.577459032E+02  1.250000000E+02  0.00000E+00  9.000E+00
      25     1     1     2     0     0 -1.333293128E+02  4.934009722E+01 -2.887897906E+01  1.914945072E+02  1.250000000E+02  0.00000E+00  9.000E+00
       2     1     1     2   501     0  4.281095462E+01  4.388883047E+01  1.766958627E+02  1.870305728E+02  3.303624740E-06  0.00000E+00  9.000E+00
#rwgt            2          18   1.4038151251575908E-004          10      396773           0
</event>
<event>
      5   9999  3.79277E-02  2.14071E+01 -1.00000E+00  1.63969E-01
      21    -1     0     0   502   501  0.000000000E+00  0.000000000E+00  8.459657453E+02  8.459657453E+02  0.000000000E+00  0.00000E+00  9.000E+00
      21    -1     0     0   501   511  0.000000000E+00  0.000000000E+00 -9.169249277E+01  9.169249277E+01  0.000000000E+00  0.00000E+00  9.000E+00
      25     1     1     2     0     0 -1.513727759E+02  1.083813033E+02  3.887805207E+02  4.488156832E+02  1.250000000E+02  0.00000E+00  9.000E+00
      25     1     1     2     0     0  1.510000616E+02 -8.697741258E+01  3.967246068E+02  4.509783836E+02  1.250000000E+02  0.00000E+00  9.000E+00
      21     1     1     2   502   511  3.727143464E-01 -2.140389072E+01 -3.123187494E+01  3.786417127E+01  1.011524364E-06  0.00000E+00  9.000E+00
#rwgt            1           1   3.5888912231256197E-002          10      396852           0
</event>
<event>
      5   9999  3.79277E-02  4.04598E+01 -1.00000E+00  1.44533E-01
      21    -1     0     0   502   501  0.000000000E+00  0.000000000E+00  2.696104652E+02  2.696104652E+02  0.000000000E+00  0.00000E+00  9.000E+00
      21    -1     0     0   501   512  0.000000000E+00  0.000000000E+00 -4.277553235E+02  4.277553235E+02  0.000000000E+00  0.00000E+00  9.000E+00
      25     1     1     2     0     0 -7.463625578E+01 -2.101106519E+02 -1.632445310E+02  3.032999071E+02  1.250000000E+02  0.00000E+00  9.000E+00
      25     1     1     2     0     0  1.094250483E+02  1.894529807E+02  1.149833401E+02  2.769701096E+02  1.250000000E+02  0.00000E+00  9.000E+00
      21     1     1     2   502   512 -3.478879250E+01  2.065767116E+01 -1.098836674E+02  1.170957721E+02  1.348699152E-06  0.00000E+00  9.000E+00
#rwgt            1           1   8.3067902817034939E-002          10      397033           0
</event>
<event>
      5   9999  3.79277E-02  2.28208E+01 -1.00000E+00  1.61776E-01
      21    -1     0     0   502   511  0.000000000E+00  0.000000000E+00  3.931299148E+02  3.931299148E+02  0.000000000E+00  0.00000E+00  9.000E+00
      21    -1     0     0   501   502  0.000000000E+00  0.000000000E+00 -9.605959856E+01  9.605959856E+01  0.000000000E+00  0.00000E+00  9.000E+00
      25     1     1     2     0     0  5.699717050E+01  4.861097656E+00 -1.467451391E+01  1.382485048E+02  1.250000000E+02  0.00000E+00  9.000E+00
      25     1     1     2     0     0 -3.646298126E+01  5.095656914E+00  2.138741350E+02  2.504449247E+02  1.250000000E+02  0.00000E+00  9.000E+00
      21     1     1     2   501   511 -2.053418924E+01 -9.956754570E+00  9.787069515E+01  1.004960838E+02  1.907348633E-06  0.00000E+00  9.000E+00
#rwgt            1           1   3.4908595679844223E-002          10      397161           0
</event>
<event>
      5   9999  3.79277E-02  1.63295E+02 -1.00000E+00  1.14950E-01
      21    -1     0     0   502   512  0.000000000E+00  0.000000000E+00  1.195267032E+02  1.195267032E+02  0.000000000E+00  0.00000E+00  9.000E+00
      21    -1     0     0   501   502  0.000000000E+00  0.000000000E+00 -7.921491408E+02  7.921491408E+02  0.000000000E+00  0.00000E+00  9.000E+00
      25     1     1     2     0     0  1.934078349E+01  1.980675106E+02 -1.216267083E+02  2.646183305E+02  1.250000000E+02  0.00000E+00  9.000E+00
      25     1     1     2     0     0 -3.499753416E+01 -3.552480280E+01 -4.092955121E+02  4.308534034E+02  1.250000000E+02  0.00000E+00  9.000E+00
      21     1     1     2   501   512  1.565675068E+01 -1.625427078E+02 -1.417002171E+02  2.162041101E+02  1.907348633E-06  0.00000E+00  9.000E+00
#rwgt            1           1   3.8504203392360527E-002          10      397367           0
</event>
<event>
      5   9999  3.79277E-02  1.42364E+02 -1.00000E+00  1.17300E-01
      21    -1     0     0   502   501  0.000000000E+00  0.000000000E+00  1.064811011E+02  1.064811011E+02  0.000000000E+00  0.00000E+00  9.000E+00
       1    -1     0     0   501     0  0.000000000E+00  0.000000000E+00 -1.127353187E+03  1.127353187E+03  0.000000000E+00  0.00000E+00  9.000E+00
      25     1     1     2     0     0  3.356196492E+01 -1.274575974E+02 -3.037378408E+01  1.841722330E+02  1.250000000E+02  0.00000E+00  9.000E+00
      25     1     1     2     0     0  7.357963779E+00 -8.898419248E+00 -8.105286461E+02  8.201920554E+02  1.250000000E+02  0.00000E+00  9.000E+00
       1     1     1     2   502     0 -4.091992870E+01  1.363560167E+02 -1.799696556E+02  2.294699997E+02  2.697398305E-06  0.00000E+00  9.000E+00
#rwgt            1           1   4.6605308625799112E-002          10      397399           0
</event>
<event>
      5   9999  3.79277E-02  1.52673E+02 -1.00000E+00  1.16090E-01
      21    -1     0     0   502   501  0.000000000E+00  0.000000000E+00  4.886022817E+02  4.886022817E+02  0.000000000E+00  0.00000E+00  9.000E+00
      21    -1     0     0   501   511  0.000000000E+00  0.000000000E+00 -3.627944139E+02  3.627944139E+02  0.000000000E+00  0.00000E+00  9.000E+00
      25     1     1     2     0     0  9.347110320E-01 -7.424217027E+01  3.556650342E+02  3.842335098E+02  1.250000000E+02  0.00000E+00  9.000E+00
      25     1     1     2     0     0 -1.394703433E+02  1.384052123E+02 -6.353059115E+01  2.413899655E+02  1.250000000E+02  0.00000E+00  9.000E+00
      21     1     1     2   502   511  1.385356322E+02 -6.416304205E+01 -1.663265752E+02  2.257732203E+02  2.697398305E-06  0.00000E+00  9.000E+00
#rwgt            1           1   3.7313845855314935E-002          10      397504           0
</event>
<event>
      5   9999  3.79277E-02  8.84753E+01 -1.00000E+00  1.26268E-01
      21    -1     0     0   502   501  0.000000000E+00  0.000000000E+00  6.341215818E+02  6.341215818E+02  0.000000000E+00  0.00000E+00  9.000E+00
      -1    -1     0     0     0   502  0.000000000E+00  0.000000000E+00 -2.081174148E+02  2.081174148E+02  0.000000000E+00  0.00000E+00  9.000E+00
      25     1     1     2     0     0  2.393874911E+01  9.957496152E+01  5.021667438E+02  5.275269426E+02  1.250000000E+02  0.00000E+00  9.000E+00
      25     1     1     2     0     0 -1.021114823E+02 -1.410105342E+02 -7.215459388E+01  2.261459948E+02  1.250000000E+02  0.00000E+00  9.000E+00
      -1     1     1     2     0   501  7.817273316E+01  4.143557269E+01 -4.007982971E+00  8.856605908E+01  1.000932194E-06  0.00000E+00  9.000E+00
#rwgt            1           1   3.9585837963101819E-002          10      397620           0
</event>
<event>
      5   9999  3.79277E-02  8.14232E+01 -1.00000E+00  1.27980E-01
      21    -1     0     0   511   501  0.000000000E+00  0.000000000E+00  1.534505585E+03  1.534505585E+03  0.000000000E+00  0.00000E+00  9.000E+00
      21    -1     0     0   501   502  0.000000000E+00  0.000000000E+00 -6.116015499E+01  6.116015499E+01  0.000000000E+00  0.00000E+00  9.000E+00
      25     1     1     2     0     0  1.068452391E+02  2.214355755E+01  5.943077398E+02  6.170356001E+02  1.250000000E+02  0.00000E+00  9.000E+00
      25     1     1     2     0     0 -1.741604579E+02  2.366479737E+01  1.981230831E+02  2.928645485E+02  1.250000000E+02  0.00000E+00  9.000E+00
      21     1     1     2   511   502  6.731521880E+01 -4.580835492E+01  6.809146075E+02  6.857655917E+02  7.629394531E-06  0.00000E+00  9.000E+00
#rwgt            1           1   4.6101910279112188E-002          10      397709           0
</event>
<event>
      5   9999  3.79277E-02  2.33122E+01 -1.00000E+00  1.61059E-01
      21    -1     0     0   502   501  0.000000000E+00  0.000000000E+00  1.429391926E+02  1.429391926E+02  0.000000000E+00  0.00000E+00  9.000E+00
      21    -1     0     0   501   512  0.000000000E+00  0.000000000E+00 -2.680963842E+02  2.680963842E+02  0.000000000E+00  0.00000E+00  9.000E+00
      25     1     1     2     0     0 -1.325981362E+02  6.511893012E+00 -7.108637243E+01  1.957113763E+02  1.250000000E+02  0.00000E+00  9.000E+00
      25     1     1     2     0     0  1.174210236E+02 -2.420693069E+01 -2.043931330E+01  1.744030900E+02  1.250000000E+02  0.00000E+00  9.000E+00
      21     1     1     2   502   512  1.517711255E+01  1.769503768E+01 -3.363150578E+01  4.092111051E+01  4.768371582E-07  0.00000E+00  9.000E+00
#rwgt            1           1   3.3594696312150681E-002          10      397929           0
</event>
<event>
      5   9999  3.79277E-02  1.95922E+02 -1.00000E+00  1.11975E-01
      21    -1     0     0   511   501  0.000000000E+00  0.000000000E+00  3.057870269E+02  3.057870269E+02  0.000000000E+00  0.00000E+00  9.000E+00
      21    -1     0     0   501   502  0.000000000E+00  0.000000000E+00 -6.797463112E+02  6.797463112E+02  0.000000000E+00  0.00000E+00  9.000E+00
      25     1     1     2     0     0 -1.383672339E+02  1.905772505E+02 -4.892872752E+02  5.572182853E+02  1.250000000E+02  0.00000E+00  9.000E+00
      25     1     1     2     0     0  6.008196441E+00 -4.612435245E+01 -7.680315589E+01  1.539067220E+02  1.250000000E+02  0.00000E+00  9.000E+00
      21     1     1     2   511   502  1.323590375E+02 -1.444528980E+02  1.921311467E+02  2.744083309E+02  0.000000000E+00  0.00000E+00  9.000E+00
#rwgt            1           1   4.9753454059065415E-002          10      398079           0
</event>
<event>
      5   9999  3.79277E-02  3.27259E+01 -1.00000E+00  1.50462E-01
      21    -1     0     0   502   512  0.000000000E+00  0.000000000E+00  2.098198080E+02  2.098198080E+02  0.000000000E+00  0.00000E+00  9.000E+00
      21    -1     0     0   501   502  0.000000000E+00  0.000000000E+00 -4.128853304E+02  4.128853304E+02  0.000000000E+00  0.00000E+00  9.000E+00
      25     1     1     2     0     0  4.859523363E+01  1.588188115E+02 -3.854114957E+01  2.114127050E+02  1.250000000E+02  0.00000E+00  9.000E+00
      25     1     1     2     0     0 -1.869350717E+01 -1.455194336E+02 -2.523666953E+02  3.175520456E+02  1.250000000E+02  0.00000E+00  9.000E+00
      21     1     1     2   501   512 -2.990172646E+01 -1.329937784E+01  8.784232246E+01  9.374038783E+01  9.536743164E-07  0.00000E+00  9.000E+00
#rwgt            1           1   3.5128159449511830E-002          10      398199           0
</event>
<event>
      5   9999  3.79277E-02  9.23743E+01 -1.00000E+00  1.25397E-01
      21    -1     0     0   502   511  0.000000000E+00  0.000000000E+00  3.819479128E+02  3.819479128E+02  0.000000000E+00  0.00000E+00  9.000E+00
      21    -1     0     0   501   502  0.000000000E+00  0.000000000E+00 -2.330755292E+02  2.330755292E+02  0.000000000E+00  0.00000E+00  9.000E+00
      25     1     1     2     0     0 -1.489257618E+02  4.288799535E+01  6.933355888E+01  2.108326470E+02  1.250000000E+02  0.00000E+00  9.000E+00
      25     1     1     2     0     0  2.273553481E+02  5.915883996E+00 -2.960568084E+01  2.612028873E+02  1.250000000E+02  0.00000E+00  9.000E+00
      21     1     1     2   501   511 -7.842958634E+01 -4.880387935E+01  1.091445056E+02  1.429879077E+02  2.336015456E-06  0.00000E+00  9.000E+00
#rwgt            1           1   4.0390362001603834E-002          10      398342           0
</event>
<event>
      5   9999  3.79277E-02  4.75065E+01 -1.00000E+00  1.40355E-01
      21    -1     0     0   502   501  0.000000000E+00  0.000000000E+00  1.314748938E+02  1.314748938E+02  0.000000000E+00  0.00000E+00  9.000E+00
      21    -1     0     0   512   502  0.000000000E+00  0.000000000E+00 -4.985242281E+02  4.985242281E+02  0.000000000E+00  0.00000E+00  9.000E+00
      25     1     1     2     0     0  1.680356060E+02 -6.922818118E+01 -7.946273210E+01  2.344521950E+02  1.250000000E+02  0.00000E+00  9.000E+00
      25     1     1     2     0     0 -1.223681059E+02  5.613807199E+01 -1.154549380E+02  2.169799050E+02  1.250000000E+02  0.00000E+00  9.000E+00
      21     1     1     2   512   501 -4.566750006E+01  1.309010919E+01 -1.721316642E+02  1.785670220E+02  1.907348633E-06  0.00000E+00  9.000E+00
#rwgt            1           1   2.7817605787509414E-002          10      398388           0
</event>
<event>
      5   9999  3.79277E-02  9.54255E+01 -1.00000E+00  1.24750E-01
      21    -1     0     0   502   501  0.000000000E+00  0.000000000E+00  3.365117528E+01  3.365117528E+01  0.000000000E+00  0.00000E+00  9.000E+00
      21    -1     0     0   501   511  0.000000000E+00  0.000000000E+00 -3.244953207E+03  3.244953207E+03  0.000000000E+00  0.00000E+00  9.000E+00
      25     1     1     2     0     0 -3.600604628E+01  2.196533355E+02 -1.005661448E+03  1.037556731E+03  1.250000000E+02  0.00000E+00  9.000E+00
      25     1     1     2     0     0 -4.648249047E+01 -2.676290580E+02 -1.560791522E+03  1.589176236E+03  1.250000000E+02  0.00000E+00  9.000E+00
      21     1     1     2   502   511  8.248853675E+01  4.797572252E+01 -6.448490619E+02  6.518714147E+02  1.078959322E-05  0.00000E+00  9.000E+00
#rwgt            1           1   7.1992893447436590E-002          10      398563           0
</event>
<event>
      5   9999  3.79277E-02  9.93133E+00 -1.00000E+00  1.96104E-01
      21    -1     0     0   502   501  0.000000000E+00  0.000000000E+00  2.602645369E+02  2.602645369E+02  0.000000000E+00  0.00000E+00  9.000E+00
      21    -1     0     0   501   512  0.000000000E+00  0.000000000E+00 -1.670959989E+02  1.670959989E+02  0.000000000E+00  0.00000E+00  9.000E+00
      25     1     1     2     0     0  5.248349575E+01 -9.236563748E+00  1.746992103E+02  2.213247512E+02  1.250000000E+02  0.00000E+00  9.000E+00
      25     1     1     2     0     0 -5.242155955E+01 -6.945768038E-01 -1.231046414E+01  1.361067591E+02  1.250000000E+02  0.00000E+00  9.000E+00
      21     1     1     2   502   512 -6.193620385E-02  9.931140552E+00 -6.922020816E+01  6.992902549E+01  1.348699152E-06  0.00000E+00  9.000E+00
#rwgt            1           1   5.9332836538792004E-002          10      398646           0
</event>
<event>
      5   9999  3.79277E-02  6.48833E+01 -1.00000E+00  1.32912E-01
      21    -1     0     0   502   501  0.000000000E+00  0.000000000E+00  1.354962248E+03  1.354962248E+03  0.000000000E+00  0.00000E+00  9.000E+00
      21    -1     0     0   511   502  0.000000000E+00  0.000000000E+00 -9.009151302E+01  9.009151302E+01  0.000000000E+00  0.00000E+00  9.000E+00
      25     1     1     2     0     0  8.116485329E+01  1.124018098E+02  6.799789360E+02  7.051370460E+02  1.250000000E+02  0.00000E+00  9.000E+00
      25     1     1     2     0     0 -4.942910478E+01 -1.689940986E+02  6.266142866E+02  6.627765128E+02  1.250000000E+02  0.00000E+00  9.000E+00
      21     1     1     2   511   501 -3.173574851E+01  5.659228876E+01 -4.172248737E+01  7.714020244E+01  4.768371582E-07  0.00000E+00  9.000E+00
#rwgt            1           1   8.9105648505613977E-002          10      398993           0
</event>
<event>
      5   9999  3.79277E-02  4.53401E+01 -1.00000E+00  1.41544E-01
      21    -1     0     0   512   501  0.000000000E+00  0.000000000E+00  9.001087492E+01  9.001087492E+01  0.000000000E+00  0.00000E+00  9.000E+00
      21    -1     0     0   501   502  0.000000000E+00  0.000000000E+00 -2.946556804E+02  2.946556804E+02  0.000000000E+00  0.00000E+00  9.000E+00
      25     1     1     2     0     0 -2.580965696E+01  3.689691645E+00 -1.624117515E+02  2.065970214E+02  1.250000000E+02  0.00000E+00  9.000E+00
      25     1     1     2     0     0 -1.895708726E+01 -1.087755336E+01 -3.834352487E+01  1.325628840E+02  1.250000000E+02  0.00000E+00  9.000E+00
      21     1     1     2   512   502  4.476674421E+01  7.187861710E+00 -3.889529026E+00  4.550664984E+01  1.032382731E-07  0.00000E+00  9.000E+00
#rwgt            2          11   4.0770029471503139E-004          10      399332           0
</event>
<event>
      5   9999  3.79277E-02  2.42366E+01 -1.00000E+00  1.59766E-01
      21    -1     0     0   502   501  0.000000000E+00  0.000000000E+00  3.947924331E+02  3.947924331E+02  0.000000000E+00  0.00000E+00  9.000E+00
      21    -1     0     0   501   511  0.000000000E+00  0.000000000E+00 -9.387298993E+02  9.387298993E+02  0.000000000E+00  0.00000E+00  9.000E+00
      25     1     1     2     0     0 -9.603545052E+01  1.056834484E+02  1.193825469E+01  1.901560437E+02  1.250000000E+02  0.00000E+00  9.000E+00
      25     1     1     2     0     0  1.189666095E+02 -1.135303311E+02  2.572292955E+02  3.299001375E+02  1.250000000E+02  0.00000E+00  9.000E+00
      21     1     1     2   502   511 -2.293115894E+01  7.846882709E+00 -8.131050164E+02  8.134661513E+02  0.000000000E+00  0.00000E+00  9.000E+00
#rwgt            2          11   2.5893734263014285E-003          10      399382           0
</event>
<event>
      5   9999  3.79277E-02  7.97773E+01 -1.00000E+00  1.28408E-01
      21    -1     0     0   502   501  0.000000000E+00  0.000000000E+00  2.028308844E+02  2.028308844E+02  0.000000000E+00  0.00000E+00  9.000E+00
      -1    -1     0     0     0   502  0.000000000E+00  0.000000000E+00 -6.781869476E+02  6.781869476E+02  0.000000000E+00  0.00000E+00  9.000E+00
      25     1     1     2     0     0 -8.589167172E+01  2.095408780E+02  2.380196404E+01  2.597619917E+02  1.250000000E+02  0.00000E+00  9.000E+00
      25     1     1     2     0     0  1.556662777E+01 -2.472078951E+02 -3.103682142E+02  4.163021639E+02  1.250000000E+02  0.00000E+00  9.000E+00
      -1     1     1     2     0   501  7.032504395E+01  3.766701711E+01 -1.887898130E+02  2.049536764E+02  3.814697266E-06  0.00000E+00  9.000E+00
#rwgt            1           1   3.7045286554970129E-002          10      399402           0
</event>
<event>
      5   9999  3.79277E-02  1.38515E+01 -1.00000E+00  1.80706E-01
      21    -1     0     0   502   511  0.000000000E+00  0.000000000E+00  8.050033780E+01  8.050033780E+01  0.000000000E+00  0.00000E+00  9.000E+00
      21    -1     0     0   501   502  0.000000000E+00  0.000000000E+00 -3.549052493E+02  3.549052493E+02  0.000000000E+00  0.00000E+00  9.000E+00
      25     1     1     2     0     0 -9.148047234E+00 -6.928612198E+01 -1.661740321E+02  2.193696934E+02  1.250000000E+02  0.00000E+00  9.000E+00
      25     1     1     2     0     0  2.017967067E+01  7.766278123E+01 -1.251058669E+02  1.942040284E+02  1.250000000E+02  0.00000E+00  9.000E+00
      21     1     1     2   501   511 -1.103162343E+01 -8.376659255E+00  1.687498753E+01  2.183186524E+01  5.840038640E-07  0.00000E+00  9.000E+00
#rwgt            1           1   7.7431374966940067E-002          10      399477           0
</event>
<event>
      5   9999  3.79277E-02  5.89894E+01 -1.00000E+00  1.35099E-01
      21    -1     0     0   512   501  0.000000000E+00  0.000000000E+00  1.416421715E+03  1.416421715E+03  0.000000000E+00  0.00000E+00  9.000E+00
      21    -1     0     0   501   502  0.000000000E+00  0.000000000E+00 -9.065934823E+01  9.065934823E+01  0.000000000E+00  0.00000E+00  9.000E+00
      25     1     1     2     0     0 -4.405044252E+01 -1.899383546E+00  2.704362421E+02  3.011723928E+02  1.250000000E+02  0.00000E+00  9.000E+00
      25     1     1     2     0     0  2.001932582E+01  5.577193317E+01 -1.023864262E+01  1.387123345E+02  1.250000000E+02  0.00000E+00  9.000E+00
      21     1     1     2   512   502  2.403111670E+01 -5.387254962E+01  1.065564768E+03  1.067196336E+03  1.525878906E-05  0.00000E+00  9.000E+00
#rwgt            1           1   4.4335534919523641E-002          10      399660           0
</event>
<event>
      5   9999  3.79277E-02  4.25624E+00 -1.00000E+00  2.57274E-01
      21    -1     0     0   502   501  0.000000000E+00  0.000000000E+00  1.398523497E+02  1.398523497E+02  0.000000000E+00  0.00000E+00  9.000E+00
      21    -1     0     0   511   502  0.000000000E+00  0.000000000E+00 -6.079580419E+02  6.079580419E+02  0.000000000E+00  0.00000E+00  9.000E+00
      25     1     1     2     0     0  1.687772922E+01 -2.460933622E+02 -2.097467492E+02  3.470814017E+02  1.250000000E+02  0.00000E+00  9.000E+00
      25     1     1     2     0     0 -2.112240616E+01  2.464068945E+02 -1.988550713E+02  3.410730905E+02  1.250000000E+02  0.00000E+00  9.000E+00
      21     1     1     2   511   501  4.244676942E+00 -3.135323387E-01 -5.950387168E+01  5.965589937E+01  1.168007728E-06  0.00000E+00  9.000E+00
#rwgt            1           1   4.1084730202605224E-002          10      399787           0
</event>
<event>
      5   9999  3.79277E-02  1.53908E+02 -1.00000E+00  1.15953E-01
      21    -1     0     0   502   501  0.000000000E+00  0.000000000E+00  5.972110699E+02  5.972110699E+02  0.000000000E+00  0.00000E+00  9.000E+00
      21    -1     0     0   501   512  0.000000000E+00  0.000000000E+00 -2.134163555E+02  2.134163555E+02  0.000000000E+00  0.00000E+00  9.000E+00
      25     1     1     2     0     0 -8.932893696E+01 -6.566161502E+01  2.946099310E+01  1.696586478E+02  1.250000000E+02  0.00000E+00  9.000E+00
      25     1     1     2     0     0  2.158810295E+02  1.532524493E+02  3.853639152E+02  4.839641302E+02  1.250000000E+02  0.00000E+00  9.000E+00
      21     1     1     2   502   512 -1.265520925E+02 -8.759083427E+01 -3.103019391E+01  1.570046474E+02  1.966049969E-06  0.00000E+00  9.000E+00
#rwgt            1           1   3.3042623252417934E-002          10      400272           0
</event>
<event>
      5   9999  3.79277E-02  2.20257E+01 -1.00000E+00  1.62985E-01
      21    -1     0     0   502   501  0.000000000E+00  0.000000000E+00  5.148350712E+02  5.148350712E+02  0.000000000E+00  0.00000E+00  9.000E+00
      21    -1     0     0   511   502  0.000000000E+00  0.000000000E+00 -9.623790929E+02  9.623790929E+02  0.000000000E+00  0.00000E+00  9.000E+00
      25     1     1     2     0     0 -4.948063193E+01 -2.297418842E+02  2.293822065E+02  3.513842098E+02  1.250000000E+02  0.00000E+00  9.000E+00
      25     1     1     2     0     0  7.023890889E+01  2.371056130E+02  1.387297664E+02  3.098766273E+02  1.250000000E+02  0.00000E+00  9.000E+00
      21     1     1     2   511   501 -2.075827697E+01 -7.363728894E+00 -8.156559945E+02  8.159533271E+02  0.000000000E+00  0.00000E+00  9.000E+00
#rwgt            1           1  0.13570684067649683               10      400330           0
</event>
<event>
      5   9999  3.79277E-02  6.58754E+01 -1.00000E+00  1.32570E-01
      21    -1     0     0   502   512  0.000000000E+00  0.000000000E+00  2.836441717E+03  2.836441717E+03  0.000000000E+00  0.00000E+00  9.000E+00
      21    -1     0     0   501   502  0.000000000E+00  0.000000000E+00 -4.179037054E+01  4.179037054E+01  0.000000000E+00  0.00000E+00  9.000E+00
      25     1     1     2     0     0 -4.973188115E+01 -5.727998898E+00  3.366193133E+02  3.625515578E+02  1.250000000E+02  0.00000E+00  9.000E+00
      25     1     1     2     0     0  1.009338996E+02  4.717587683E+01  2.189996071E+02  2.756792400E+02  1.250000000E+02  0.00000E+00  9.000E+00
      21     1     1     2   501   512 -5.120201844E+01 -4.144787793E+01  2.239032426E+03  2.240001289E+03  4.315837288E-05  0.00000E+00  9.000E+00
#rwgt            1           1  0.15306887234270977               10      400511           0
</event>
<event>
      5   9999  3.79277E-02  8.28845E+01 -1.00000E+00  1.27609E-01
      21    -1     0     0   502   511  0.000000000E+00  0.000000000E+00  1.442692610E+03  1.442692610E+03  0.000000000E+00  0.00000E+00  9.000E+00
      21    -1     0     0   501   502  0.000000000E+00  0.000000000E+00 -2.402667232E+02  2.402667232E+02  0.000000000E+00  0.00000E+00  9.000E+00
      25     1     1     2     0     0  2.556902823E+02 -1.623660251E+01 -1.036490274E+02  3.033302962E+02  1.250000000E+02  0.00000E+00  9.000E+00
      25     1     1     2     0     0 -3.385190358E+02  1.319704905E+01  1.086215981E+03  1.144665653E+03  1.250000000E+02  0.00000E+00  9.000E+00
      21     1     1     2   501   511  8.282875352E+01  3.039553457E+00  2.198589328E+02  2.349633836E+02  2.697398305E-06  0.00000E+00  9.000E+00
#rwgt            1           1   6.7144015970175080E-002          10      400574           0
</event>
<event>
      5   9999  3.79277E-02  9.32181E+01 -1.00000E+00  1.25215E-01
      21    -1     0     0   502   501  0.000000000E+00  0.000000000E+00  3.306036181E+02  3.306036181E+02  0.000000000E+00  0.00000E+00  9.000E+00
      21    -1     0     0   512   502  0.000000000E+00  0.000000000E+00 -2.842262755E+02  2.842262755E+02  0.000000000E+00  0.00000E+00  9.000E+00
      25     1     1     2     0     0  7.885866604E+01 -2.735485806E+01 -1.917359591E+01  1.515242695E+02  1.250000000E+02  0.00000E+00  9.000E+00
      25     1     1     2     0     0 -1.149385530E+02  1.133074987E+02  2.090465424E+02  2.921898649E+02  1.250000000E+02  0.00000E+00  9.000E+00
      21     1     1     2   512   501  3.607988696E+01 -8.595264065E+01 -1.434956040E+02  1.711157592E+02  2.697398305E-06  0.00000E+00  9.000E+00
#rwgt            1           1   4.5904157061087678E-002          10      400692           0
</event>
<event>
      5   9999  3.79277E-02  4.87216E+01 -1.00000E+00  1.39720E-01
      21    -1     0     0   502   501  0.000000000E+00  0.000000000E+00  1.708263996E+02  1.708263996E+02  0.000000000E+00  0.00000E+00  9.000E+00
      21    -1     0     0   511   502  0.000000000E+00  0.000000000E+00 -6.232877378E+02  6.232877378E+02  0.000000000E+00  0.00000E+00  9.000E+00
      25     1     1     2     0     0  1.564088287E+02 -1.024015069E+02  1.674695428E+01  2.255110880E+02  1.250000000E+02  0.00000E+00  9.000E+00
      25     1     1     2     0     0 -1.488505558E+02  1.505332447E+02 -2.772253259E+02  3.705342454E+02  1.250000000E+02  0.00000E+00  9.000E+00
      21     1     1     2   511   501 -7.558272930E+00 -4.813173775E+01 -1.919829666E+02  1.980688040E+02  2.697398305E-06  0.00000E+00  9.000E+00
#rwgt            1           1   4.0367341668922349E-002          10      400732           0
</event>
<event>
      5   9999  3.79277E-02  3.84660E+01 -1.00000E+00  1.45901E-01
      21    -1     0     0   512   501  0.000000000E+00  0.000000000E+00  2.402781861E+02  2.402781861E+02  0.000000000E+00  0.00000E+00  9.000E+00
      21    -1     0     0   501   502  0.000000000E+00  0.000000000E+00 -2.628794180E+02  2.628794180E+02  0.000000000E+00  0.00000E+00  9.000E+00
      25     1     1     2     0     0  9.308389746E+00  3.002495820E+00 -2.140257854E+02  2.480477734E+02  1.250000000E+02  0.00000E+00  9.000E+00
      25     1     1     2     0     0  1.367548959E+01  2.784185142E+01  1.328202105E+02  1.850091782E+02  1.250000000E+02  0.00000E+00  9.000E+00
      21     1     1     2   512   502 -2.298387934E+01 -3.084434724E+01  5.860434294E+01  7.010065247E+01  9.536743164E-07  0.00000E+00  9.000E+00
#rwgt            1           1   2.6555834294481578E-002          10      400824           0
</event>
<event>
      5   9999  3.79277E-02  2.70933E+01 -1.00000E+00  1.56179E-01
      21    -1     0     0   511   501  0.000000000E+00  0.000000000E+00  4.501169776E+02  4.501169776E+02  0.000000000E+00  0.00000E+00  9.000E+00
      21    -1     0     0   501   502  0.000000000E+00  0.000000000E+00 -8.444296147E+01  8.444296147E+01  0.000000000E+00  0.00000E+00  9.000E+00
      25     1     1     2     0     0 -7.296157299E+01 -1.141294587E+02  1.809271241E+02  2.582799813E+02  1.250000000E+02  0.00000E+00  9.000E+00
      25     1     1     2     0     0  7.117535786E+01  8.709511327E+01  1.214505021E+02  2.074288186E+02  1.250000000E+02  0.00000E+00  9.000E+00
      21     1     1     2   511   502  1.786215133E+00  2.703434543E+01  6.329638991E+01  6.885113922E+01  0.000000000E+00  0.00000E+00  9.000E+00
#rwgt            1           1   4.1924646577555562E-002          10      401156           0
</event>
<event>
      5   9999  3.79277E-02  7.52278E+00 -1.00000E+00  2.11225E-01
      21    -1     0     0   502   501  0.000000000E+00  0.000000000E+00  1.277683689E+02  1.277683689E+02  0.000000000E+00  0.00000E+00  9.000E+00
      21    -1     0     0   512   502  0.000000000E+00  0.000000000E+00 -4.786360548E+02  4.786360548E+02  0.000000000E+00  0.00000E+00  9.000E+00
      25     1     1     2     0     0 -1.296869011E+02  1.344935918E+02 -8.883717987E+01  2.417111150E+02  1.250000000E+02  0.00000E+00  9.000E+00
      25     1     1     2     0     0  1.291594348E+02 -1.269893264E+02 -1.855908615E+02  2.878843804E+02  1.250000000E+02  0.00000E+00  9.000E+00
      21     1     1     2   512   501  5.274663864E-01 -7.504265473E+00 -7.643964453E+01  7.680892837E+01  9.536743164E-07  0.00000E+00  9.000E+00
#rwgt            1           1   4.0048218159885685E-002          10      401342           0
</event>
<event>
      5   9999  3.79277E-02  3.15117E+02 -1.00000E+00  1.04903E-01
      21    -1     0     0   502   501  0.000000000E+00  0.000000000E+00  6.894599115E+02  6.894599115E+02  0.000000000E+00  0.00000E+00  9.000E+00
      21    -1     0     0   511   502  0.000000000E+00  0.000000000E+00 -1.927808180E+03  1.927808180E+03  0.000000000E+00  0.00000E+00  9.000E+00
      25     1     1     2     0     0 -4.066522322E+01  2.566805568E+02  9.041223533E+01  3.022216752E+02  1.250000000E+02  0.00000E+00  9.000E+00
      25     1     1     2     0     0 -2.744378322E+02 -2.537601345E+02  3.977899835E+02  5.599751785E+02  1.250000000E+02  0.00000E+00  9.000E+00
      21     1     1     2   511   501  3.151030554E+02 -2.920422314E+00 -1.726550487E+03  1.755071238E+03  0.000000000E+00  0.00000E+00  9.000E+00
#rwgt            1           1   3.4234228694984818E-002          10      401708           0
</event>
<event>
      5   9999  3.79277E-02  7.06429E+00 -1.00000E+00  2.14994E-01
      21    -1     0     0   502   501  0.000000000E+00  0.000000000E+00  1.453572219E+02  1.453572219E+02  0.000000000E+00  0.00000E+00  9.000E+00
      21    -1     0     0   512   502  0.000000000E+00  0.000000000E+00 -3.052382792E+02  3.052382792E+02  0.000000000E+00  0.00000E+00  9.000E+00
      25     1     1     2     0     0  1.079731627E+01  3.453061685E+01  8.516113259E+01  1.555196581E+02  1.250000000E+02  0.00000E+00  9.000E+00
      25     1     1     2     0     0 -1.166203737E+01 -4.154178480E+01 -1.507932494E+02  2.005625266E+02  1.250000000E+02  0.00000E+00  9.000E+00
      21     1     1     2   512   501  8.647210936E-01  7.011167952E+00 -9.424894044E+01  9.451331648E+01  0.000000000E+00  0.00000E+00  9.000E+00
#rwgt            1           1   4.5606520781673952E-002          10      401772           0
</event>
<event>
      5   9999  3.79277E-02  1.09614E+02 -1.00000E+00  1.22061E-01
      21    -1     0     0   502   501  0.000000000E+00  0.000000000E+00  9.239569693E+02  9.239569693E+02  0.000000000E+00  0.00000E+00  9.000E+00
       1    -1     0     0   501     0  0.000000000E+00  0.000000000E+00 -1.599287332E+03  1.599287332E+03  0.000000000E+00  0.00000E+00  9.000E+00
      25     1     1     2     0     0  7.438854868E+00 -3.864424246E+01  7.997187372E+02  8.103849533E+02  1.250000000E+02  0.00000E+00  9.000E+00
      25     1     1     2     0     0  1.019688748E+02  3.191738959E+01  5.914413760E+01  1.747552580E+02  1.250000000E+02  0.00000E+00  9.000E+00
       1     1     1     2   502     0 -1.094077297E+02  6.726852872E+00 -1.534193237E+03  1.538104090E+03  0.000000000E+00  0.00000E+00  9.000E+00
#rwgt            1           1   3.0049741820580501E-002          10      402151           0
</event>
<event>
      5   9999  3.79277E-02  2.33939E+01 -1.00000E+00  1.60942E-01
       2    -1     0     0   502     0  0.000000000E+00  0.000000000E+00  1.750086882E+03  1.750086882E+03  0.000000000E+00  0.00000E+00  9.000E+00
      21    -1     0     0   501   502  0.000000000E+00  0.000000000E+00 -1.720843646E+02  1.720843646E+02  0.000000000E+00  0.00000E+00  9.000E+00
      25     1     1     2     0     0  2.825599565E+01  4.043534895E+01  7.282124657E+01  1.528442105E+02  1.250000000E+02  0.00000E+00  9.000E+00
      25     1     1     2     0     0 -1.828259933E+01 -6.159674382E+01 -9.457201482E+01  1.694027104E+02  1.250000000E+02  0.00000E+00  9.000E+00
       2     1     1     2   501     0 -9.973396323E+00  2.116139487E+01  1.599753286E+03  1.599924326E+03  0.000000000E+00  0.00000E+00  9.000E+00
#rwgt            1           1   5.6040333542097975E-002          10      402395           0
</event>
<event>
      5   9999  3.79277E-02  4.09155E+01 -1.00000E+00  1.44233E-01
      21    -1     0     0   511   501  0.000000000E+00  0.000000000E+00  3.482277477E+02  3.482277477E+02  0.000000000E+00  0.00000E+00  9.000E+00
      21    -1     0     0   501   502  0.000000000E+00  0.000000000E+00 -7.452030141E+02  7.452030141E+02  0.000000000E+00  0.00000E+00  9.000E+00
      25     1     1     2     0     0  5.779338817E+00  3.116990218E+02 -8.375312277E+01  3.461636413E+02  1.250000000E+02  0.00000E+00  9.000E+00
      25     1     1     2     0     0 -3.639311507E+01 -2.845536401E+02 -4.814099786E+02  5.741740158E+02  1.250000000E+02  0.00000E+00  9.000E+00
      21     1     1     2   511   502  3.061377625E+01 -2.714538173E+01  1.681878350E+02  1.730931047E+02  1.907348633E-06  0.00000E+00  9.000E+00
#rwgt            1           1   3.8065691475054377E-002          10      402595           0
</event>
<event>
      5   9999  3.79277E-02  3.76222E+02 -1.00000E+00  1.02493E-01
      21    -1     0     0   502   512  0.000000000E+00  0.000000000E+00  5.482918742E+02  5.482918742E+02  0.000000000E+00  0.00000E+00  9.000E+00
      21    -1     0     0   501   502  0.000000000E+00  0.000000000E+00 -3.873503434E+02  3.873503434E+02  0.000000000E+00  0.00000E+00  9.000E+00
      25     1     1     2     0     0  2.939692861E+02  9.206513960E+01 -5.639433215E+01  3.371931965E+02  1.250000000E+02  0.00000E+00  9.000E+00
      25     1     1     2     0     0  8.218240579E+01 -9.934666522E+01  4.805989912E+01  1.858990630E+02  1.250000000E+02  0.00000E+00  9.000E+00
      21     1     1     2   501   512 -3.761516919E+02  7.281525624E+00  1.692759638E+02  4.125499580E+02  5.046370146E-06  0.00000E+00  9.000E+00
#rwgt            1           1   3.5165019680441306E-002          10      402892           0
</event>
<event>
      5   9999  3.79277E-02  5.22510E+01 -1.00000E+00  1.37993E-01
      21    -1     0     0   502   501  0.000000000E+00  0.000000000E+00  3.757366943E+01  3.757366943E+01  0.000000000E+00  0.00000E+00  9.000E+00
      21    -1     0     0   501   511  0.000000000E+00  0.000000000E+00 -1.767565051E+03  1.767565051E+03  0.000000000E+00  0.00000E+00  9.000E+00
      25     1     1     2     0     0 -2.035607487E+02 -6.534788311E+01 -9.689684354E+02  1.000116070E+03  1.250000000E+02  0.00000E+00  9.000E+00
      25     1     1     2     0     0  1.513672515E+02  6.289738270E+01 -5.426197461E+02  5.804561262E+02  1.250000000E+02  0.00000E+00  9.000E+00
      21     1     1     2   502   511  5.219349724E+01  2.450500409E+00 -2.184031999E+02  2.245665243E+02  2.697398305E-06  0.00000E+00  9.000E+00
#rwgt            1           1   5.3099350989555205E-002          10      403027           0
</event>
<event>
      5   9999  3.79277E-02  8.68580E+01 -1.00000E+00  1.26644E-01
      21    -1     0     0   502   501  0.000000000E+00  0.000000000E+00  8.431594062E+01  8.431594062E+01  0.000000000E+00  0.00000E+00  9.000E+00
      21    -1     0     0   501   512  0.000000000E+00  0.000000000E+00 -6.000400520E+02  6.000400520E+02  0.000000000E+00  0.00000E+00  9.000E+00
      25     1     1     2     0     0  1.020087489E+02 -5.328030997E+01 -7.544403845E+01  1.859069101E+02  1.250000000E+02  0.00000E+00  9.000E+00
      25     1     1     2     0     0 -1.708181980E+01  7.149366165E+01 -2.445292237E+02  2.842932877E+02  1.250000000E+02  0.00000E+00  9.000E+00
      21     1     1     2   502   512 -8.492692907E+01 -1.821335168E+01 -1.957508492E+02  2.141557948E+02  2.697398305E-06  0.00000E+00  9.000E+00
#rwgt            1           1   4.7444448797014219E-002          10      403212           0
</event>
<event>
      5   9999  3.79277E-02  1.62892E+01 -1.00000E+00  1.74075E-01
      21    -1     0     0   502   501  0.000000000E+00  0.000000000E+00  1.732197455E+02  1.732197455E+02  0.000000000E+00  0.00000E+00  9.000E+00
      21    -1     0     0   511   502  0.000000000E+00  0.000000000E+00 -1.775052805E+02  1.775052805E+02  0.000000000E+00  0.00000E+00  9.000E+00
      25     1     1     2     0     0  2.590242068E+01  2.292576152E+01 -9.548585209E+01  1.610561203E+02  1.250000000E+02  0.00000E+00  9.000E+00
      25     1     1     2     0     0 -2.783774405E+01 -6.751914813E+00  1.069696453E+02  1.669971058E+02  1.250000000E+02  0.00000E+00  9.000E+00
      21     1     1     2   511   501  1.935323364E+00 -1.617384671E+01 -1.576932825E+01  2.267179983E+01  2.384185791E-07  0.00000E+00  9.000E+00
#rwgt            1           1   4.2155260456618368E-002          10      403319           0
</event>
<event>
      5   9999  3.79277E-02  1.79543E+01 -1.00000E+00  1.70331E-01
      21    -1     0     0   512   501  0.000000000E+00  0.000000000E+00  1.290030868E+02  1.290030868E+02  0.000000000E+00  0.00000E+00  9.000E+00
      21    -1     0     0   501   502  0.000000000E+00  0.000000000E+00 -3.542701958E+03  3.542701958E+03  0.000000000E+00  0.00000E+00  9.000E+00
      25     1     1     2     0     0 -4.336153293E+00 -1.859492940E+02 -7.778365268E+02  8.094755120E+02  1.250000000E+02  0.00000E+00  9.000E+00
      25     1     1     2     0     0 -7.858725538E+00  1.991266640E+02 -2.743266917E+03  2.753334627E+03  1.250000000E+02  0.00000E+00  9.000E+00
      21     1     1     2   512   502  1.219487883E+01 -1.317736994E+01  1.074045732E+02  1.088949057E+02  5.878843310E-06  0.00000E+00  9.000E+00
#rwgt            1           1   1.5847203549021516E-002          10      403451           0
</event>
<event>
      5   9999  3.79277E-02  3.65260E+01 -1.00000E+00  1.47330E-01
      21    -1     0     0   502   501  0.000000000E+00  0.000000000E+00  4.971288055E+02  4.971288055E+02  0.000000000E+00  0.00000E+00  9.000E+00
      21    -1     0     0   501   511  0.000000000E+00  0.000000000E+00 -3.966281746E+02  3.966281746E+02  0.000000000E+00  0.00000E+00  9.000E+00
      25     1     1     2     0     0 -2.378752932E+01 -2.560154722E+02  2.696406681E+02  3.929896417E+02  1.250000000E+02  0.00000E+00  9.000E+00
      25     1     1     2     0     0  9.387067055E-01  2.275183954E+02  6.188617177E+01  2.668715041E+02  1.250000000E+02  0.00000E+00  9.000E+00
      21     1     1     2   502   511  2.284882262E+01  2.849707681E+01 -2.310262090E+02  2.338958343E+02  2.697398305E-06  0.00000E+00  9.000E+00
#rwgt            1           1   3.8227456320477582E-002          10      403824           0
</event>
<event>
      5   9999  3.79277E-02  1.44166E+01 -1.00000E+00  1.79022E-01
      21    -1     0     0   502   512  0.000000000E+00  0.000000000E+00  5.592123467E+02  5.592123467E+02  0.000000000E+00  0.00000E+00  9.000E+00
      21    -1     0     0   501   502  0.000000000E+00  0.000000000E+00 -1.726701876E+02  1.726701876E+02  0.000000000E+00  0.00000E+00  9.000E+00
      25     1     1     2     0     0  2.494159642E+01 -2.903857631E+01 -1.242198637E+02  1.803355114E+02  1.250000000E+02  0.00000E+00  9.000E+00
      25     1     1     2     0     0 -3.681024741E+01  3.722232582E+01  2.068308941E+02  2.472741689E+02  1.250000000E+02  0.00000E+00  9.000E+00
      21     1     1     2   501   512  1.186865099E+01 -8.183749504E+00  3.039311287E+02  3.042728539E+02  0.000000000E+00  0.00000E+00  9.000E+00
#rwgt            1           1   3.5124110504687708E-002          10      404151           0
</event>
<event>
      5   9999  3.79277E-02  8.50169E+01 -1.00000E+00  1.27084E-01
      21    -1     0     0   502   511  0.000000000E+00  0.000000000E+00  8.361939970E+01  8.361939970E+01  0.000000000E+00  0.00000E+00  9.000E+00
      21    -1     0     0   501   502  0.000000000E+00  0.000000000E+00 -6.131265557E+02  6.131265557E+02  0.000000000E+00  0.00000E+00  9.000E+00
      25     1     1     2     0     0  9.161516463E+01  2.864054881E+00 -4.347290919E+02  4.615364823E+02  1.250000000E+02  0.00000E+00  9.000E+00
      25     1     1     2     0     0 -1.002120172E+01  2.101672183E+01 -7.603823738E+01  1.481517486E+02  1.250000000E+02  0.00000E+00  9.000E+00
      21     1     1     2   501   511 -8.159396290E+01 -2.388077671E+01 -1.873982676E+01  8.705772445E+01  1.526623782E-06  0.00000E+00  9.000E+00
#rwgt            1           1   8.7432435569422835E-003          10      404289           0
</event>
<event>
      5   9999  3.79277E-02  4.72482E+01 -1.00000E+00  1.40493E-01
      21    -1     0     0   502   501  0.000000000E+00  0.000000000E+00  2.286445330E+02  2.286445330E+02  0.000000000E+00  0.00000E+00  9.000E+00
      21    -1     0     0   512   502  0.000000000E+00  0.000000000E+00 -4.656103066E+02  4.656103066E+02  0.000000000E+00  0.00000E+00  9.000E+00
      25     1     1     2     0     0 -6.892680611E+01 -2.502336556E+02 -1.614523498E+02  3.302418027E+02  1.250000000E+02  0.00000E+00  9.000E+00
      25     1     1     2     0     0  2.233234839E+01  2.580664311E+02 -1.604736693E+01  2.880616854E+02  1.250000000E+02  0.00000E+00  9.000E+00
      21     1     1     2   512   501  4.659445772E+01 -7.832775480E+00 -5.946605684E+01  7.595135139E+01  6.743495762E-07  0.00000E+00  9.000E+00
#rwgt            1           1  0.16765940350977587               10      404473           0
</event>
<event>
      5   9999  3.79277E-02  1.06352E+02 -1.00000E+00  1.22637E-01
      21    -1     0     0   502   501  0.000000000E+00  0.000000000E+00  3.263923273E+02  3.263923273E+02  0.000000000E+00  0.00000E+00  9.000E+00
      21    -1     0     0   501   511  0.000000000E+00  0.000000000E+00 -4.906332771E+02  4.906332771E+02  0.000000000E+00  0.00000E+00  9.000E+00
      25     1     1     2     0     0 -1.339600447E+02  1.118062215E+02 -3.013879318E+01  2.167470221E+02  1.250000000E+02  0.00000E+00  9.000E+00
      25     1     1     2     0     0  1.130465567E+02 -7.531235739E+00  1.929890936E+02  2.563318821E+02  1.250000000E+02  0.00000E+00  9.000E+00
      21     1     1     2   502   511  2.091348792E+01 -1.042749858E+02 -3.270912502E+02  3.439467003E+02  3.814697266E-06  0.00000E+00  9.000E+00
#rwgt            1           1   5.3665484848018780E-002          10      404777           0
</event>
<event>
      5   9999  3.79277E-02  3.49149E+01 -1.00000E+00  1.48600E-01
      21    -1     0     0   502   512  0.000000000E+00  0.000000000E+00  4.367329220E+01  4.367329220E+01  0.000000000E+00  0.00000E+00  9.000E+00
      21    -1     0     0   501   502  0.000000000E+00  0.000000000E+00 -1.031048563E+03  1.031048563E+03  0.000000000E+00  0.00000E+00  9.000E+00
      25     1     1     2     0     0 -5.740053875E+01 -1.127995664E+02 -4.730135465E+02  5.053566851E+02  1.250000000E+02  0.00000E+00  9.000E+00
      25     1     1     2     0     0  2.357745876E+01  1.214625663E+02 -5.026590703E+02  5.325412590E+02  1.250000000E+02  0.00000E+00  9.000E+00
      21     1     1     2   501   512  3.382307999E+01 -8.662999995E+00 -1.170265386E+01  3.682391093E+01  3.371747881E-07  0.00000E+00  9.000E+00
#rwgt            1           1   4.9638190444236237E-002          10      404821           0
</event>
<event>
      5   9999 -3.79277E-02  1.81812E+01 -1.00000E+00  1.69860E-01
      21    -1     0     0   502   501  0.000000000E+00  0.000000000E+00  3.490732879E+02  3.490732879E+02  0.000000000E+00  0.00000E+00  9.000E+00
      21    -1     0     0   511   502  0.000000000E+00  0.000000000E+00 -1.614762506E+02  1.614762506E+02  0.000000000E+00  0.00000E+00  9.000E+00
      25     1     1     2     0     0 -7.036385495E+01 -1.435567787E+02  2.024775202E+02  2.866736245E+02  1.250000000E+02  0.00000E+00  9.000E+00
      25     1     1     2     0     0  8.362084760E+01  1.311145553E+02  1.318651346E+00  1.995249649E+02  1.250000000E+02  0.00000E+00  9.000E+00
      21     1     1     2   511   501 -1.325699265E+01  1.244222336E+01 -1.619913421E+01  2.435094917E+01  3.371747881E-07  0.00000E+00  9.000E+00
#rwgt            1           1 -0.11993781552135034               10      404933           0
</event>
<event>
      5   9999  3.79277E-02  3.84114E+01 -1.00000E+00  1.45940E-01
      21    -1     0     0   502   501  0.000000000E+00  0.000000000E+00  4.295016433E+02  4.295016433E+02  0.000000000E+00  0.00000E+00  9.000E+00
      21    -1     0     0   512   502  0.000000000E+00  0.000000000E+00 -1.348410232E+02  1.348410232E+02  0.000000000E+00  0.00000E+00  9.000E+00
      25     1     1     2     0     0 -1.403286472E+01  2.357692779E+01  3.014701677E+02  3.275088622E+02  1.250000000E+02  0.00000E+00  9.000E+00
      25     1     1     2     0     0  4.560232536E+01 -4.545854744E+01  6.537595679E+01  1.550647198E+02  1.250000000E+02  0.00000E+00  9.000E+00
      21     1     1     2   512   501 -3.156946064E+01  2.188161964E+01 -7.218550443E+01  8.176908446E+01  2.132480600E-06  0.00000E+00  9.000E+00
#rwgt            1           1   4.3873671798775431E-002          10      405095           0
</event>
<event>
      5   9999  3.79277E-02  7.91551E+01 -1.00000E+00  1.28573E-01
      21    -1     0     0   502   511  0.000000000E+00  0.000000000E+00  1.119484139E+02  1.119484139E+02  0.000000000E+00  0.00000E+00  9.000E+00
      21    -1     0     0   501   502  0.000000000E+00  0.000000000E+00 -1.031815474E+03  1.031815474E+03  0.000000000E+00  0.00000E+00  9.000E+00
      25     1     1     2     0     0 -5.358563442E+01  1.225470203E+02 -1.347000876E+02  2.272846365E+02  1.250000000E+02  0.00000E+00  9.000E+00
      25     1     1     2     0     0  1.027762406E+02 -6.053239246E+01 -8.140769413E+02  8.322099450E+02  1.250000000E+02  0.00000E+00  9.000E+00
      21     1     1     2   501   511 -4.919060620E+01 -6.201462785E+01  2.890996831E+01  8.426930682E+01  1.617033478E-06  0.00000E+00  9.000E+00
#rwgt            1           1   4.7350863015791195E-002          10      405210           0
</event>
<event>
      5   9999  3.79277E-02  5.07318E+01 -1.00000E+00  1.38716E-01
      21    -1     0     0   502   501  0.000000000E+00  0.000000000E+00  1.322129313E+03  1.322129313E+03  0.000000000E+00  0.00000E+00  9.000E+00
      21    -1     0     0   501   512  0.000000000E+00  0.000000000E+00 -1.026682799E+02  1.026682799E+02  0.000000000E+00  0.00000E+00  9.000E+00
      25     1     1     2     0     0  7.885900600E+01  3.048262027E+02  8.367042420E+02  9.026830813E+02  1.250000000E+02  0.00000E+00  9.000E+00
      25     1     1     2     0     0 -9.877017258E+01 -2.581651027E+02  3.133092857E+02  4.361106233E+02  1.250000000E+02  0.00000E+00  9.000E+00
      21     1     1     2   502   512  1.991116658E+01 -4.666110003E+01  6.944750552E+01  8.600388848E+01  1.651812370E-06  0.00000E+00  9.000E+00
#rwgt            1           1   3.1480365642208838E-002          10      405469           0
</event>
<event>
      5   9999  3.79277E-02  4.49530E+01 -1.00000E+00  1.41764E-01
      21    -1     0     0   502   501  0.000000000E+00  0.000000000E+00  5.398966037E+02  5.398966037E+02  0.000000000E+00  0.00000E+00  9.000E+00
      21    -1     0     0   511   502  0.000000000E+00  0.000000000E+00 -1.761172273E+02  1.761172273E+02  0.000000000E+00  0.00000E+00  9.000E+00
      25     1     1     2     0     0 -1.779658826E+02  4.393715376E+01  8.206431393E+01  2.365626354E+02  1.250000000E+02  0.00000E+00  9.000E+00
      25     1     1     2     0     0  2.164620396E+02 -6.714955518E+01  3.260649828E+02  4.163030751E+02  1.250000000E+02  0.00000E+00  9.000E+00
      21     1     1     2   511   501 -3.849615696E+01  2.321240143E+01 -4.434992040E+01  6.314812047E+01  6.743495762E-07  0.00000E+00  9.000E+00
#rwgt            1           1   2.8696210791519482E-002          10      405739           0
</event>
<event>
      5   9999  3.79277E-02  3.64861E+01 -1.00000E+00  1.47361E-01
       1    -1     0     0   502     0  0.000000000E+00  0.000000000E+00  6.657113043E+02  6.657113043E+02  0.000000000E+00  0.00000E+00  9.000E+00
      21    -1     0     0   501   502  0.000000000E+00  0.000000000E+00 -2.363030457E+02  2.363030457E+02  0.000000000E+00  0.00000E+00  9.000E+00
      25     1     1     2     0     0 -9.217635659E+01  1.829679243E+02 -2.769536031E+01  2.415900971E+02  1.250000000E+02  0.00000E+00  9.000E+00
      25     1     1     2     0     0  1.013861803E+02 -2.182725540E+02  8.167606402E+01  2.832279026E+02  1.250000000E+02  0.00000E+00  9.000E+00
       1     1     1     2   501     0 -9.209823708E+00  3.530462968E+01  3.754275548E+02  3.771963503E+02  7.629394531E-06  0.00000E+00  9.000E+00
#rwgt            1           1   3.6661797730400091E-002          10      405847           0
</event>
<event>
      5   9999  3.79277E-02  3.17853E+01 -1.00000E+00  1.51316E-01
      21    -1     0     0   502   501  0.000000000E+00  0.000000000E+00  2.612486329E+03  2.612486329E+03  0.000000000E+00  0.00000E+00  9.000E+00
       2    -1     0     0   501     0  0.000000000E+00  0.000000000E+00 -7.010225736E+02  7.010225736E+02  0.000000000E+00  0.00000E+00  9.000E+00
      25     1     1     2     0     0  1.769601317E+01 -1.111344569E+02  2.021812239E+03  2.028796133E+03  1.250000000E+02  0.00000E+00  9.000E+00
      25     1     1     2     0     0  1.391588809E+01  1.144503676E+02  5.744938007E+02  5.991332619E+02  1.250000000E+02  0.00000E+00  9.000E+00
       2     1     1     2   502     0 -3.161190126E+01 -3.315910662E+00 -6.848422845E+02  6.855795083E+02  7.629394531E-06  0.00000E+00  9.000E+00
#rwgt            1           1   5.0153574416313303E-002          10      406003           0
</event>
<event>
      5   9999  3.79277E-02  2.52186E+01 -1.00000E+00  1.58468E-01
      21    -1     0     0   502   511  0.000000000E+00  0.000000000E+00  7.635155731E+02  7.635155731E+02  0.000000000E+00  0.00000E+00  9.000E+00
      21    -1     0     0   501   502  0.000000000E+00  0.000000000E+00 -6.650352611E+02  6.650352611E+02  0.000000000E+00  0.00000E+00  9.000E+00
      25     1     1     2     0     0 -5.116952834E+01 -8.294494321E+01 -5.078761100E+02  5.320350809E+02  1.250000000E+02  0.00000E+00  9.000E+00
      25     1     1     2     0     0  7.564077590E+01  8.903884029E+01 -9.432836840E+01  1.953772841E+02  1.250000000E+02  0.00000E+00  9.000E+00
      21     1     1     2   501   511 -2.447124756E+01 -6.093897084E+00  7.006847903E+02  7.011384691E+02  0.000000000E+00  0.00000E+00  9.000E+00
#rwgt            1           1   1.0694443938307246E-002          10      406308           0
</event>
<event>
      5   9999  3.79277E-02  7.59817E+01 -1.00000E+00  1.29442E-01
      21    -1     0     0   512   501  0.000000000E+00  0.000000000E+00  3.170131343E+02  3.170131343E+02  0.000000000E+00  0.00000E+00  9.000E+00
      21    -1     0     0   501   502  0.000000000E+00  0.000000000E+00 -1.053917570E+03  1.053917570E+03  0.000000000E+00  0.00000E+00  9.000E+00
      25     1     1     2     0     0 -6.284940159E+01 -8.136402651E+01 -9.997070864E+02  1.012723758E+03  1.250000000E+02  0.00000E+00  9.000E+00
      25     1     1     2     0     0  4.956164391E+01  6.553251562E+00  7.164787290E+01  1.525048174E+02  1.250000000E+02  0.00000E+00  9.000E+00
      21     1     1     2   512   502  1.328775768E+01  7.481077494E+01  1.911547778E+02  2.057021284E+02  4.672030912E-06  0.00000E+00  9.000E+00
#rwgt            1           1   5.0431395964649295E-002          10      406541           0
</event>
<event>
      5   9999  3.79277E-02  1.38603E+02 -1.00000E+00  1.17770E-01
      21    -1     0     0   502   501  0.000000000E+00  0.000000000E+00  4.995191707E+02  4.995191707E+02  0.000000000E+00  0.00000E+00  9.000E+00
      21    -1     0     0   511   502  0.000000000E+00  0.000000000E+00 -4.999760304E+02  4.999760304E+02  0.000000000E+00  0.00000E+00  9.000E+00
      25     1     1     2     0     0  5.945011803E+01  4.578427608E+01  1.380314309E+02  2.007690025E+02  1.250000000E+02  0.00000E+00  9.000E+00
      25     1     1     2     0     0 -1.870787587E+02  8.267703215E+00  2.791834985E+02  3.586575564E+02  1.250000000E+02  0.00000E+00  9.000E+00
      21     1     1     2   511   501  1.276286407E+02 -5.405197929E+01 -4.176717891E+02  4.400686422E+02  5.394796609E-06  0.00000E+00  9.000E+00
#rwgt            1           1   3.6594424470190789E-002          10      406683           0
</event>
<event>
      5   9999  3.79277E-02  1.49366E+02 -1.00000E+00  1.16467E-01
      21    -1     0     0   502   501  0.000000000E+00  0.000000000E+00  6.905586578E+02  6.905586578E+02  0.000000000E+00  0.00000E+00  9.000E+00
      21    -1     0     0   512   502  0.000000000E+00  0.000000000E+00 -9.336724691E+02  9.336724691E+02  0.000000000E+00  0.00000E+00  9.000E+00
      25     1     1     2     0     0 -2.807452120E+02 -6.421357490E+02  7.859914170E+01  7.162115744E+02  1.250000000E+02  0.00000E+00  9.000E+00
      25     1     1     2     0     0  1.350047348E+02  6.748455099E+02 -2.738295900E+02  7.511660169E+02  1.250000000E+02  0.00000E+00  9.000E+00
      21     1     1     2   512   501  1.457404772E+02 -3.270976088E+01 -4.788336306E+01  1.568535355E+02  2.132480600E-06  0.00000E+00  9.000E+00
#rwgt            1           1   1.1503980866956080E-002          10      406723           0
</event>
<event>
      5   9999  3.79277E-02  2.15708E+01 -1.00000E+00  1.63705E-01
      21    -1     0     0   502   501  0.000000000E+00  0.000000000E+00  1.254795801E+03  1.254795801E+03  0.000000000E+00  0.00000E+00  9.000E+00
      -2    -1     0     0     0   502  0.000000000E+00  0.000000000E+00 -1.127222713E+02  1.127222713E+02  0.000000000E+00  0.00000E+00  9.000E+00
      25     1     1     2     0     0 -6.024749018E+01 -1.644062133E+02  6.955927943E+02  7.281026704E+02  1.250000000E+02  0.00000E+00  9.000E+00
      25     1     1     2     0     0  6.114521344E+01  1.859583506E+02  5.164091960E+02  5.662355544E+02  1.250000000E+02  0.00000E+00  9.000E+00
      -2     1     1     2     0   501 -8.977232532E-01 -2.155213724E+01 -6.992846048E+01  7.317984772E+01  2.861022949E-06  0.00000E+00  9.000E+00
#rwgt            1           1   3.6882338751908494E-002          10      406846           0
</event>
<event>
      5   9999 -3.79277E-02  4.87431E+01 -1.00000E+00  1.39709E-01
      21    -1     0     0   502   511  0.000000000E+00  0.000000000E+00  1.330222710E+02  1.330222710E+02  0.000000000E+00  0.00000E+00  9.000E+00
      21    -1     0     0   501   502  0.000000000E+00  0.000000000E+00 -6.657539556E+02  6.657539556E+02  0.000000000E+00  0.00000E+00  9.000E+00
      25     1     1     2     0     0  1.918339919E+02 -3.891145722E+01 -3.741311056E+02  4.403560675E+02  1.250000000E+02  0.00000E+00  9.000E+00
      25     1     1     2     0     0 -1.647099073E+02  7.941053894E+01 -1.969538633E+02  2.963970504E+02  1.250000000E+02  0.00000E+00  9.000E+00
      21     1     1     2   501   511 -2.712408466E+01 -4.049908172E+01  3.835328436E+01  6.202310868E+01  1.581489940E-06  0.00000E+00  9.000E+00
#rwgt            1           1  -1.3926489206922113E-002          10      406989           0
</event>
<event>
      5   9999  3.79277E-02  3.98923E+01 -1.00000E+00  1.44913E-01
      21    -1     0     0   502   501  0.000000000E+00  0.000000000E+00  2.419896560E+02  2.419896560E+02  0.000000000E+00  0.00000E+00  9.000E+00
      21    -1     0     0   512   502  0.000000000E+00  0.000000000E+00 -6.069959682E+02  6.069959682E+02  0.000000000E+00  0.00000E+00  9.000E+00
      25     1     1     2     0     0 -1.195565665E+02 -2.040713700E+01  1.395456334E+01  1.747282280E+02  1.250000000E+02  0.00000E+00  9.000E+00
      25     1     1     2     0     0  1.159962977E+02  6.014020916E+01  9.112187004E+01  2.024850144E+02  1.250000000E+02  0.00000E+00  9.000E+00
      21     1     1     2   512   501  3.560268712E+00 -3.973307216E+01 -4.700827456E+02  4.717723818E+02  5.394796609E-06  0.00000E+00  9.000E+00
#rwgt            1           1   3.7580863921889578E-002          10      407254           0
</event>
<event>
      5   9999  3.79277E-02  2.29883E+02 -1.00000E+00  1.09490E-01
      21    -1     0     0   511   501  0.000000000E+00  0.000000000E+00  1.206263282E+02  1.206263282E+02  0.000000000E+00  0.00000E+00  9.000E+00
      21    -1     0     0   501   502  0.000000000E+00  0.000000000E+00 -1.536786761E+03  1.536786761E+03  0.000000000E+00  0.00000E+00  9.000E+00
      25     1     1     2     0     0 -2.178891028E+01  3.629240961E+02 -9.105461538E+02  9.883865409E+02  1.250000000E+02  0.00000E+00  9.000E+00
      25     1     1     2     0     0 -5.159890578E+01 -1.450695763E+02 -3.055842469E+02  3.642998229E+02  1.250000000E+02  0.00000E+00  9.000E+00
      21     1     1     2   511   502  7.338781606E+01 -2.178545199E+02 -2.000300323E+02  3.047267255E+02  3.814697266E-06  0.00000E+00  9.000E+00
#rwgt            1           1   3.7065543427863737E-002          10      407365           0
</event>
<event>
      5   9999  3.79277E-02  7.55988E+01 -1.00000E+00  1.29550E-01
      21    -1     0     0   502   512  0.000000000E+00  0.000000000E+00  2.640913578E+02  2.640913578E+02  0.000000000E+00  0.00000E+00  9.000E+00
      21    -1     0     0   501   502  0.000000000E+00  0.000000000E+00 -5.099361863E+02  5.099361863E+02  0.000000000E+00  0.00000E+00  9.000E+00
      25     1     1     2     0     0 -7.552363186E+01 -2.668491812E+02 -1.581302890E+02  3.428447065E+02  1.250000000E+02  0.00000E+00  9.000E+00
      25     1     1     2     0     0  2.412083366E+00  2.860814454E+02 -1.369936784E+02  3.409408738E+02  1.250000000E+02  0.00000E+00  9.000E+00
      21     1     1     2   501   512  7.311154850E+01 -1.923226418E+01  4.927913889E+01  9.024196385E+01  1.784161275E-06  0.00000E+00  9.000E+00
#rwgt            1           1   1.4778251784694158E-002          10      407432           0
</event>
<event>
      5   9999  3.79277E-02  7.24859E+01 -1.00000E+00  1.30458E-01
      21    -1     0     0   502   501  0.000000000E+00  0.000000000E+00  9.068272029E+02  9.068272029E+02  0.000000000E+00  0.00000E+00  9.000E+00
      21    -1     0     0   511   502  0.000000000E+00  0.000000000E+00 -1.871196182E+02  1.871196182E+02  0.000000000E+00  0.00000E+00  9.000E+00
      25     1     1     2     0     0  1.437140776E+02  2.000978500E+02  2.266511573E+01  2.771851243E+02  1.250000000E+02  0.00000E+00  9.000E+00
      25     1     1     2     0     0 -8.885360979E+01 -2.474743452E+02  6.836326641E+02  7.430458498E+02  1.250000000E+02  0.00000E+00  9.000E+00
      21     1     1     2   511   501 -5.486046778E+01  4.737649518E+01  1.340980496E+01  7.371584694E+01  1.180111758E-06  0.00000E+00  9.000E+00
#rwgt            1           1   3.4106570117813331E-002          10      407551           0
</event>
<event>
      5   9999  3.79277E-02  6.96175E+01 -1.00000E+00  1.31341E-01
      21    -1     0     0   502   501  0.000000000E+00  0.000000000E+00  4.954115297E+02  4.954115297E+02  0.000000000E+00  0.00000E+00  9.000E+00
      21    -1     0     0   512   502  0.000000000E+00  0.000000000E+00 -5.631175194E+02  5.631175194E+02  0.000000000E+00  0.00000E+00  9.000E+00
      25     1     1     2     0     0 -3.876388123E+02  4.682441083E+01  2.481566875E+02  4.792317975E+02  1.250000000E+02  0.00000E+00  9.000E+00
      25     1     1     2     0     0  3.645457087E+02 -1.125002190E+02 -2.112938969E+02  4.536738739E+02  1.250000000E+02  0.00000E+00  9.000E+00
      21     1     1     2   512   501  2.309310359E+01  6.567580820E+01 -1.045687803E+02  1.256233777E+02  1.907348633E-06  0.00000E+00  9.000E+00
#rwgt            1           1  0.10410541282360965               10      407836           0
</event>
<event>
      5   9999  3.79277E-02  3.31630E+01 -1.00000E+00  1.50077E-01
      21    -1     0     0   511   501  0.000000000E+00  0.000000000E+00  7.683602116E+01  7.683602116E+01  0.000000000E+00  0.00000E+00  9.000E+00
      21    -1     0     0   501   502  0.000000000E+00  0.000000000E+00 -6.036325831E+02  6.036325831E+02  0.000000000E+00  0.00000E+00  9.000E+00
      25     1     1     2     0     0 -4.109324458E-01  4.342488447E+01 -2.845530228E+01  1.353535876E+02  1.250000000E+02  0.00000E+00  9.000E+00
      25     1     1     2     0     0  2.870119655E+01 -6.072932314E+01 -4.910730747E+02  5.111649187E+02  1.250000000E+02  0.00000E+00  9.000E+00
      21     1     1     2   511   502 -2.829026410E+01  1.730443867E+01 -7.268184965E+00  3.395009798E+01  1.000932194E-06  0.00000E+00  9.000E+00
#rwgt            1           1   4.0655806559208890E-002          10      408094           0
</event>
<event>
      5   9999  3.79277E-02  1.53320E+02 -1.00000E+00  1.16018E-01
      21    -1     0     0   502   501  0.000000000E+00  0.000000000E+00  6.260406632E+01  6.260406632E+01  0.000000000E+00  0.00000E+00  9.000E+00
       2    -1     0     0   501     0  0.000000000E+00  0.000000000E+00 -2.806525639E+03  2.806525639E+03  0.000000000E+00  0.00000E+00  9.000E+00
      25     1     1     2     0     0 -2.033285242E+01 -6.634981727E+01 -6.295998668E+02  6.456289301E+02  1.250000000E+02  0.00000E+00  9.000E+00
      25     1     1     2     0     0  1.614047462E+02  6.302051786E+00 -1.505057227E+02  2.537088499E+02  1.250000000E+02  0.00000E+00  9.000E+00
       2     1     1     2   502     0 -1.410718937E+02  6.004776548E+01 -1.963815983E+03  1.969791926E+03  0.000000000E+00  0.00000E+00  9.000E+00
#rwgt            1           1   3.4726404804107824E-002          10      408371           0
</event>
<event>
      5   9999 -3.79277E-02  4.45161E+01 -1.00000E+00  1.42017E-01
      21    -1     0     0   502   501  0.000000000E+00  0.000000000E+00  1.292006391E+03  1.292006391E+03  0.000000000E+00  0.00000E+00  9.000E+00
       1    -1     0     0   501     0  0.000000000E+00  0.000000000E+00 -1.342759049E+03  1.342759049E+03  0.000000000E+00  0.00000E+00  9.000E+00
      25     1     1     2     0     0  7.636748543E+01  6.558512952E+01  2.155797026E+02  2.687619955E+02  1.250000000E+02  0.00000E+00  9.000E+00
      25     1     1     2     0     0 -1.155265906E+02 -8.675703505E+01  1.040762086E+03  1.058151168E+03  1.250000000E+02  0.00000E+00  9.000E+00
       1     1     1     2   502     0  3.915910522E+01  2.117190553E+01 -1.307094447E+03  1.307852277E+03  1.525878906E-05  0.00000E+00  9.000E+00
#rwgt            1           1 -0.37444830758443792               10      408493           0
</event>
<event>
      5   9999  3.79277E-02  1.16773E+02 -1.00000E+00  1.20873E-01
      21    -1     0     0   502   501  0.000000000E+00  0.000000000E+00  1.117211423E+02  1.117211423E+02  0.000000000E+00  0.00000E+00  9.000E+00
      21    -1     0     0   501   511  0.000000000E+00  0.000000000E+00 -6.853846689E+02  6.853846689E+02  0.000000000E+00  0.00000E+00  9.000E+00
      25     1     1     2     0     0 -1.744634509E+02 -9.551525593E+01 -2.541480573E+02  3.460879871E+02  1.250000000E+02  0.00000E+00  9.000E+00
      25     1     1     2     0     0  1.307915558E+02 -1.278344523E+01 -1.127565653E+02  2.135623809E+02  1.250000000E+02  0.00000E+00  9.000E+00
      21     1     1     2   502   511  4.367189514E+01  1.082987012E+02 -2.067589040E+02  2.374554431E+02  2.697398305E-06  0.00000E+00  9.000E+00
#rwgt            2          11   2.2541427833063059E-003          10      408552           0
</event>
<event>
      5   9999  3.79277E-02  2.27866E+01 -1.00000E+00  1.61827E-01
      21    -1     0     0   512   501  0.000000000E+00  0.000000000E+00  3.034302510E+03  3.034302510E+03  0.000000000E+00  0.00000E+00  9.000E+00
      21    -1     0     0   501   502  0.000000000E+00  0.000000000E+00 -2.632461572E+01  2.632461572E+01  0.000000000E+00  0.00000E+00  9.000E+00
      25     1     1     2     0     0 -6.673099413E+01 -1.073409455E+02  1.629059324E+03  1.638729503E+03  1.250000000E+02  0.00000E+00  9.000E+00
      25     1     1     2     0     0  5.717976036E+01  1.280291491E+02  3.916708888E+02  4.343870085E+02  1.250000000E+02  0.00000E+00  9.000E+00
      21     1     1     2   512   502  9.551233769E+00 -2.068820363E+01  9.872476816E+02  9.875106139E+02  1.868812365E-05  0.00000E+00  9.000E+00
#rwgt            1           1  0.13159846540526915               10      408602           0
</event>
<event>
      5   9999  3.79277E-02  3.92103E+01 -1.00000E+00  1.45379E-01
      21    -1     0     0   502   501  0.000000000E+00  0.000000000E+00  5.516899299E+01  5.516899299E+01  0.000000000E+00  0.00000E+00  9.000E+00
      21    -1     0     0   511   502  0.000000000E+00  0.000000000E+00 -1.839426611E+03  1.839426611E+03  0.000000000E+00  0.00000E+00  9.000E+00
      25     1     1     2     0     0  2.090367828E+02 -1.682155400E+01 -2.946674819E+02  3.826659982E+02  1.250000000E+02  0.00000E+00  9.000E+00
      25     1     1     2     0     0 -1.777103935E+02 -6.760320672E+00 -1.178679839E+03  1.198556569E+03  1.250000000E+02  0.00000E+00  9.000E+00
      21     1     1     2   511   501 -3.132638924E+01  2.358187468E+01 -3.109102970E+02  3.133730369E+02  5.394796609E-06  0.00000E+00  9.000E+00
#rwgt            1           1   4.0069874646309192E-002          10      408902           0
</event>
<event>
      5   9999  3.79277E-02  4.63136E+01 -1.00000E+00  1.41000E-01
      21    -1     0     0   502   501  0.000000000E+00  0.000000000E+00  2.743974905E+02  2.743974905E+02  0.000000000E+00  0.00000E+00  9.000E+00
      21    -1     0     0   512   502  0.000000000E+00  0.000000000E+00 -4.125902732E+02  4.125902732E+02  0.000000000E+00  0.00000E+00  9.000E+00
      25     1     1     2     0     0 -2.006688092E+02  1.923760375E+02 -6.717493903E+01  3.121121325E+02  1.250000000E+02  0.00000E+00  9.000E+00
      25     1     1     2     0     0  1.674640717E+02 -2.246621572E+02 -2.226738559E+01  3.076331202E+02  1.250000000E+02  0.00000E+00  9.000E+00
      21     1     1     2   512   501  3.320473756E+01  3.228611969E+01 -4.875045810E+01  6.724251100E+01  9.536743164E-07  0.00000E+00  9.000E+00
#rwgt            1           1   3.1933540923462657E-002          10      409034           0
</event>
<event>
      5   9999  3.79277E-02  1.36085E+01 -1.00000E+00  1.81462E-01
      21    -1     0     0   502   501  0.000000000E+00  0.000000000E+00  4.898842435E+02  4.898842435E+02  0.000000000E+00  0.00000E+00  9.000E+00
      21    -1     0     0   501   511  0.000000000E+00  0.000000000E+00 -1.804917692E+02  1.804917692E+02  0.000000000E+00  0.00000E+00  9.000E+00
      25     1     1     2     0     0 -3.188594743E+01  1.690708259E+02  2.237435565E+02  3.086872801E+02  1.250000000E+02  0.00000E+00  9.000E+00
      25     1     1     2     0     0  2.050450280E+01 -1.765309147E+02  1.702301483E+02  2.760197491E+02  1.250000000E+02  0.00000E+00  9.000E+00
      21     1     1     2   502   511  1.138144462E+01  7.460088809E+00 -8.458123046E+01  8.566898361E+01  1.348699152E-06  0.00000E+00  9.000E+00
#rwgt            1           1   1.7068976574741532E-002          10      409151           0
</event>
<event>
      5   9999  3.79277E-02  5.74762E+01 -1.00000E+00  1.35708E-01
      21    -1     0     0   502   501  0.000000000E+00  0.000000000E+00  4.551442918E+02  4.551442918E+02  0.000000000E+00  0.00000E+00  9.000E+00
       2    -1     0     0   501     0  0.000000000E+00  0.000000000E+00 -1.877270632E+03  1.877270632E+03  0.000000000E+00  0.00000E+00  9.000E+00
      25     1     1     2     0     0  1.139718238E+02 -5.494809292E+01  3.793509881E+02  4.189761828E+02  1.250000000E+02  0.00000E+00  9.000E+00
      25     1     1     2     0     0 -1.144259482E+02 -2.526335637E+00 -7.388116419E+01  1.848867394E+02  1.250000000E+02  0.00000E+00  9.000E+00
       2     1     1     2   502     0  4.541243920E-01  5.747442856E+01 -1.727596164E+03  1.728552001E+03  2.157918644E-05  0.00000E+00  9.000E+00
#rwgt            1           1   4.8773155894269851E-002          10      409343           0
</event>
<event>
      5   9999  3.79277E-02  1.18644E+02 -1.00000E+00  1.20578E-01
      21    -1     0     0   502   501  0.000000000E+00  0.000000000E+00  2.594681792E+02  2.594681792E+02  0.000000000E+00  0.00000E+00  9.000E+00
      21    -1     0     0   511   502  0.000000000E+00  0.000000000E+00 -3.047073218E+02  3.047073218E+02  0.000000000E+00  0.00000E+00  9.000E+00
      25     1     1     2     0     0 -9.398272468E+00  3.619809596E+01 -1.181583047E+02  1.760256079E+02  1.250000000E+02  0.00000E+00  9.000E+00
      25     1     1     2     0     0  4.560902422E+01 -1.491806915E+02  1.471304780E+02  2.482084595E+02  1.250000000E+02  0.00000E+00  9.000E+00
      21     1     1     2   511   501 -3.621075176E+01  1.129825955E+02 -7.421131587E+01  1.399414336E+02  9.536743164E-07  0.00000E+00  9.000E+00
#rwgt            1           1   6.4703559611406045E-002          10      409435           0
</event>
<event>
      5   9999  3.79277E-02  3.05383E+01 -1.00000E+00  1.52505E-01
      21    -1     0     0   502   512  0.000000000E+00  0.000000000E+00  9.434383459E+01  9.434383459E+01  0.000000000E+00  0.00000E+00  9.000E+00
      21    -1     0     0   501   502  0.000000000E+00  0.000000000E+00 -9.385726915E+02  9.385726915E+02  0.000000000E+00  0.00000E+00  9.000E+00
      25     1     1     2     0     0 -3.175780178E+01 -7.131091502E+01 -8.285291828E+02  8.415339633E+02  1.250000000E+02  0.00000E+00  9.000E+00
      25     1     1     2     0     0  4.197024182E+00  8.446355650E+01 -3.543313863E+01  1.550232715E+02  1.250000000E+02  0.00000E+00  9.000E+00
      21     1     1     2   501   512  2.756077760E+01 -1.315264148E+01  1.973346457E+01  3.635929130E+01  9.233911863E-07  0.00000E+00  9.000E+00
#rwgt            1           1   3.9500030868612895E-002          10      409599           0
</event>
<event>
      5   9999  3.79277E-02  3.23763E+01 -1.00000E+00  1.50775E-01
      21    -1     0     0   511   501  0.000000000E+00  0.000000000E+00  1.446905329E+02  1.446905329E+02  0.000000000E+00  0.00000E+00  9.000E+00
      21    -1     0     0   501   502  0.000000000E+00  0.000000000E+00 -1.107876481E+03  1.107876481E+03  0.000000000E+00  0.00000E+00  9.000E+00
      25     1     1     2     0     0 -3.812900123E+01 -3.303784655E+01 -9.354370018E+02  9.450993093E+02  1.250000000E+02  0.00000E+00  9.000E+00
      25     1     1     2     0     0  6.683818989E+01  1.807095876E+01 -1.343035807E+02  1.961029193E+02  1.250000000E+02  0.00000E+00  9.000E+00
      21     1     1     2   511   502 -2.870918866E+01  1.496688780E+01  1.065546346E+02  1.113647852E+02  3.568322551E-06  0.00000E+00  9.000E+00
#rwgt            1           1   3.4752993793828457E-002          10      409749           0
</event>
<event>
      5   9999  3.79277E-02  2.40699E+01 -1.00000E+00  1.59994E-01
      21    -1     0     0   502   501  0.000000000E+00  0.000000000E+00  2.045956026E+02  2.045956026E+02  0.000000000E+00  0.00000E+00  9.000E+00
      21    -1     0     0   512   502  0.000000000E+00  0.000000000E+00 -3.711343853E+02  3.711343853E+02  0.000000000E+00  0.00000E+00  9.000E+00
      25     1     1     2     0     0 -1.115604707E+02 -1.559770382E+01 -1.720663478E+02  2.406675196E+02  1.250000000E+02  0.00000E+00  9.000E+00
      25     1     1     2     0     0  9.679376211E+01 -3.410305679E+00  1.322065451E+02  2.061170375E+02  1.250000000E+02  0.00000E+00  9.000E+00
      21     1     1     2   512   501  1.476670857E+01  1.900800950E+01 -1.266789801E+02  1.289454308E+02  1.348699152E-06  0.00000E+00  9.000E+00
#rwgt            1           1   5.3886315682905035E-002          10      409851           0
</event>
<event>
      5   9999  3.79277E-02  2.21999E+01 -1.00000E+00  1.62714E-01
      21    -1     0     0   502   501  0.000000000E+00  0.000000000E+00  8.508089039E+01  8.508089039E+01  0.000000000E+00  0.00000E+00  9.000E+00
      21    -1     0     0   511   502  0.000000000E+00  0.000000000E+00 -4.562247188E+02  4.562247188E+02  0.000000000E+00  0.00000E+00  9.000E+00
      25     1     1     2     0     0  8.180467825E+00 -1.347885990E+02 -1.819940389E+02  2.588082624E+02  1.250000000E+02  0.00000E+00  9.000E+00
      25     1     1     2     0     0  8.566673832E+00  1.202156481E+02 -1.231821310E+02  2.128944042E+02  1.250000000E+02  0.00000E+00  9.000E+00
      21     1     1     2   511   501 -1.674714166E+01  1.457295086E+01 -6.596765852E+01  6.960294262E+01  0.000000000E+00  0.00000E+00  9.000E+00
#rwgt            1           1   3.5770805837004649E-002          10      410017           0
</event>
<event>
      5   9999  3.79277E-02  3.10798E+01 -1.00000E+00  1.51981E-01
       3    -1     0     0   502     0  0.000000000E+00  0.000000000E+00  1.913722319E+02  1.913722319E+02  0.000000000E+00  0.00000E+00  9.000E+00
      21    -1     0     0   501   502  0.000000000E+00  0.000000000E+00 -1.051259369E+03  1.051259369E+03  0.000000000E+00  0.00000E+00  9.000E+00
      25     1     1     2     0     0  1.074572826E+02  3.521538807E+01 -8.625377141E+02  8.788535141E+02  1.250000000E+02  0.00000E+00  9.000E+00
      25     1     1     2     0     0 -7.667774172E+01 -3.090568174E+01 -1.476004784E+02  2.103462347E+02  1.250000000E+02  0.00000E+00  9.000E+00
       3     1     1     2   501     0 -3.077954087E+01 -4.309706330E+00  1.502510551E+02  1.534318522E+02  2.697398305E-06  0.00000E+00  9.000E+00
#rwgt            1           1   5.5218246865761704E-002          10      410170           0
</event>
<event>
      5   9999  3.79277E-02  3.78894E+01 -1.00000E+00  1.46316E-01
      21    -1     0     0   511   501  0.000000000E+00  0.000000000E+00  3.223854641E+02  3.223854641E+02  0.000000000E+00  0.00000E+00  9.000E+00
      21    -1     0     0   501   502  0.000000000E+00  0.000000000E+00 -2.396982228E+02  2.396982228E+02  0.000000000E+00  0.00000E+00  9.000E+00
      25     1     1     2     0     0  1.768235451E+00  1.006935860E+02 -1.821929387E+02  2.428200812E+02  1.250000000E+02  0.00000E+00  9.000E+00
      25     1     1     2     0     0  4.759703281E+00 -6.337081876E+01  2.132088059E+02  2.551891659E+02  1.250000000E+02  0.00000E+00  9.000E+00
      21     1     1     2   511   502 -6.527938732E+00 -3.732276727E+01  5.167137408E+01  6.407443984E+01  9.536743164E-07  0.00000E+00  9.000E+00
#rwgt            1           1   2.3070349661604150E-002          10      410343           0
</event>
<event>
      5   9999  3.79277E-02  2.06569E+01 -1.00000E+00  1.65219E-01
      21    -1     0     0   502   512  0.000000000E+00  0.000000000E+00  1.706456184E+02  1.706456184E+02  0.000000000E+00  0.00000E+00  9.000E+00
      21    -1     0     0   501   502  0.000000000E+00  0.000000000E+00 -1.046814538E+03  1.046814538E+03  0.000000000E+00  0.00000E+00  9.000E+00
      25     1     1     2     0     0  7.849157702E+01 -1.505581923E+02 -6.712333558E+02  7.035679888E+02  1.250000000E+02  0.00000E+00  9.000E+00
      25     1     1     2     0     0 -8.303170206E+01  1.304063935E+02 -3.310161821E+02  3.861305528E+02  1.250000000E+02  0.00000E+00  9.000E+00
      21     1     1     2   501   512  4.540125033E+00  2.015179874E+01  1.260806186E+02  1.277616144E+02  3.814697266E-06  0.00000E+00  9.000E+00
#rwgt            1           1   7.0461991934871862E-002          10      410484           0
</event>
<event>
      5   9999  3.79277E-02  1.46104E+01 -1.00000E+00  1.78467E-01
      21    -1     0     0   511   501  0.000000000E+00  0.000000000E+00  3.954805503E+02  3.954805503E+02  0.000000000E+00  0.00000E+00  9.000E+00
      21    -1     0     0   501   502  0.000000000E+00  0.000000000E+00 -1.485806167E+02  1.485806167E+02  0.000000000E+00  0.00000E+00  9.000E+00
      25     1     1     2     0     0 -8.610139961E+01  1.027289064E+02 -5.011106587E+01  1.900073634E+02  1.250000000E+02  0.00000E+00  9.000E+00
      25     1     1     2     0     0  7.156905697E+01 -1.042366786E+02  2.687685133E+02  3.222559989E+02  1.250000000E+02  0.00000E+00  9.000E+00
      21     1     1     2   511   502  1.453234264E+01  1.507772197E+00  2.824248615E+01  3.179780470E+01  5.840038640E-07  0.00000E+00  9.000E+00
#rwgt            1           1   5.2869550217858295E-002          10      410774           0
</event>
<event>
      5   9999  3.79277E-02  3.34460E+01 -1.00000E+00  1.49831E-01
      21    -1     0     0   502   512  0.000000000E+00  0.000000000E+00  1.068068246E+02  1.068068246E+02  0.000000000E+00  0.00000E+00  9.000E+00
      21    -1     0     0   501   502  0.000000000E+00  0.000000000E+00 -5.792392542E+02  5.792392542E+02  0.000000000E+00  0.00000E+00  9.000E+00
      25     1     1     2     0     0 -8.133943898E+01  9.352374509E+01 -3.687186236E+02  4.085844082E+02  1.250000000E+02  0.00000E+00  9.000E+00
      25     1     1     2     0     0  1.145548042E+02 -9.744513334E+01 -1.300819189E+02  2.348715879E+02  1.250000000E+02  0.00000E+00  9.000E+00
      21     1     1     2   501   512 -3.321536524E+01  3.921388247E+00  2.636811289E+01  4.259008278E+01  0.000000000E+00  0.00000E+00  9.000E+00
#rwgt            1           1   3.2328049182598198E-002          10      410959           0
</event>
<event>
      5   9999  3.79277E-02  1.53156E+02 -1.00000E+00  1.16036E-01
      21    -1     0     0   502   501  0.000000000E+00  0.000000000E+00  1.369819336E+02  1.369819336E+02  0.000000000E+00  0.00000E+00  9.000E+00
      21    -1     0     0   501   511  0.000000000E+00  0.000000000E+00 -1.256117312E+03  1.256117312E+03  0.000000000E+00  0.00000E+00  9.000E+00
      25     1     1     2     0     0  6.255259070E+01  6.137570414E+01  2.325706295E+01  1.544205124E+02  1.250000000E+02  0.00000E+00  9.000E+00
      25     1     1     2     0     0 -1.979339878E+02  1.023906837E+01 -2.909770904E+02  3.735978710E+02  1.250000000E+02  0.00000E+00  9.000E+00
      21     1     1     2   502   511  1.353813971E+02 -7.161477251E+01 -8.514153508E+02  8.650808621E+02  1.078959322E-05  0.00000E+00  9.000E+00
#rwgt            1           1   3.7246379791575301E-002          10      411095           0
</event>
<event>
      5   9999  3.79277E-02  3.13554E+01 -1.00000E+00  1.51719E-01
      21    -1     0     0   502   501  0.000000000E+00  0.000000000E+00  6.176701662E+02  6.176701662E+02  0.000000000E+00  0.00000E+00  9.000E+00
       2    -1     0     0   501     0  0.000000000E+00  0.000000000E+00 -1.783628424E+03  1.783628424E+03  0.000000000E+00  0.00000E+00  9.000E+00
      25     1     1     2     0     0  1.245401603E+02 -7.820936712E+01  2.323462014E+02  3.020541573E+02  1.250000000E+02  0.00000E+00  9.000E+00
      25     1     1     2     0     0 -1.022344668E+02  1.002460903E+02  3.245470412E+02  3.761076266E+02  1.250000000E+02  0.00000E+00  9.000E+00
       2     1     1     2   502     0 -2.230569354E+01 -2.203672316E+01 -1.722851501E+03  1.723136807E+03  2.157918644E-05  0.00000E+00  9.000E+00
#rwgt            1           1  0.21549571968147174               10      411188           0
</event>
<event>
      5   9999  3.79277E-02  4.26754E+00 -1.00000E+00  2.57016E-01
      21    -1     0     0   502   501  0.000000000E+00  0.000000000E+00  8.057693823E+01  8.057693823E+01  0.000000000E+00  0.00000E+00  9.000E+00
       1    -1     0     0   501     0  0.000000000E+00  0.000000000E+00 -1.372910542E+03  1.372910542E+03  0.000000000E+00  0.00000E+00  9.000E+00
      25     1     1     2     0     0 -1.758296170E+02  1.000721319E+02 -2.877159660E+02  3.732773270E+02  1.250000000E+02  0.00000E+00  9.000E+00
      25     1     1     2     0     0  1.751255737E+02 -9.586307041E+01 -3.292679414E+02  4.048469736E+02  1.250000000E+02  0.00000E+00  9.000E+00
       1     1     1     2   502     0  7.040433829E-01 -4.209061484E+00 -6.753496966E+02  6.753631797E+02  0.000000000E+00  0.00000E+00  9.000E+00
#rwgt            1           1   2.5472377811379694E-002          10      411335           0
</event>
<event>
      5   9999  3.79277E-02  2.24294E+01 -1.00000E+00  1.62363E-01
      21    -1     0     0   502   501  0.000000000E+00  0.000000000E+00  4.071291454E+02  4.071291454E+02  0.000000000E+00  0.00000E+00  9.000E+00
      21    -1     0     0   511   502  0.000000000E+00  0.000000000E+00 -1.554722342E+02  1.554722342E+02  0.000000000E+00  0.00000E+00  9.000E+00
      25     1     1     2     0     0  1.085884695E+02 -1.499117902E+02  1.884627254E+02  2.922468124E+02  1.250000000E+02  0.00000E+00  9.000E+00
      25     1     1     2     0     0 -1.294096430E+02  1.582519381E+02  6.363340231E+01  2.479208371E+02  1.250000000E+02  0.00000E+00  9.000E+00
      21     1     1     2   511   501  2.082117354E+01 -8.340147892E+00 -4.392164332E-01  2.243373008E+01  1.117587090E-07  0.00000E+00  9.000E+00
#rwgt            1           1   2.4775057723344214E-002          10      411713           0
</event>
<event>
      5   9999  3.79277E-02  1.05490E+02 -1.00000E+00  1.22793E-01
      21    -1     0     0   502   512  0.000000000E+00  0.000000000E+00  6.606145078E+01  6.606145078E+01  0.000000000E+00  0.00000E+00  9.000E+00
      21    -1     0     0   501   502  0.000000000E+00  0.000000000E+00 -1.188928509E+03  1.188928509E+03  0.000000000E+00  0.00000E+00  9.000E+00
      25     1     1     2     0     0 -1.787446785E+02  2.785375234E+01 -7.783037815E+02  8.087689830E+02  1.250000000E+02  0.00000E+00  9.000E+00
      25     1     1     2     0     0  7.622269820E+01 -5.270174712E+01 -2.859385073E+02  3.255352574E+02  1.250000000E+02  0.00000E+00  9.000E+00
      21     1     1     2   501   512  1.025219803E+02  2.484799478E+01 -5.862476960E+01  1.206857195E+02  2.236564522E-06  0.00000E+00  9.000E+00
#rwgt            1           1   5.3887777520428372E-002          10      411965           0
</event>
<event>
      5   9999  3.79277E-02  1.73731E+02 -1.00000E+00  1.13920E-01
      21    -1     0     0   511   501  0.000000000E+00  0.000000000E+00  2.638734781E+02  2.638734781E+02  0.000000000E+00  0.00000E+00  9.000E+00
      21    -1     0     0   501   502  0.000000000E+00  0.000000000E+00 -7.674877831E+02  7.674877831E+02  0.000000000E+00  0.00000E+00  9.000E+00
      25     1     1     2     0     0 -1.704782905E+02 -2.472882068E+01 -4.317528848E+02  4.813625615E+02  1.250000000E+02  0.00000E+00  9.000E+00
      25     1     1     2     0     0  3.005004072E+02  1.399535172E+02 -1.122494928E+02  3.716348078E+02  1.250000000E+02  0.00000E+00  9.000E+00
      21     1     1     2   511   502 -1.300221167E+02 -1.152246965E+02  4.038807261E+01  1.783638919E+02  3.126830351E-06  0.00000E+00  9.000E+00
#rwgt            1           1   3.5946846558143786E-002          10      412035           0
</event>
<event>
      5   9999  3.79277E-02  3.80662E+01 -1.00000E+00  1.46188E-01
      21    -1     0     0   512   501  0.000000000E+00  0.000000000E+00  1.282525415E+02  1.282525415E+02  0.000000000E+00  0.00000E+00  9.000E+00
      21    -1     0     0   501   502  0.000000000E+00  0.000000000E+00 -8.631850292E+02  8.631850292E+02  0.000000000E+00  0.00000E+00  9.000E+00
      25     1     1     2     0     0 -9.036055904E+01 -4.565032358E+01 -1.634096033E+02  2.292960556E+02  1.250000000E+02  0.00000E+00  9.000E+00
      25     1     1     2     0     0  1.243002577E+02  6.288779324E+01 -6.491985445E+02  6.756398292E+02  1.250000000E+02  0.00000E+00  9.000E+00
      21     1     1     2   512   502 -3.393969862E+01 -1.723746966E+01  7.767566006E+01  8.650168592E+01  1.651812370E-06  0.00000E+00  9.000E+00
#rwgt            1           1   4.0673152787512067E-002          10      412113           0
</event>
<event>
      5   9999  3.79277E-02  2.43751E+01 -1.00000E+00  1.59579E-01
      21    -1     0     0   502   501  0.000000000E+00  0.000000000E+00  2.880783498E+02  2.880783498E+02  0.000000000E+00  0.00000E+00  9.000E+00
      21    -1     0     0   501   511  0.000000000E+00  0.000000000E+00 -2.220900559E+02  2.220900559E+02  0.000000000E+00  0.00000E+00  9.000E+00
      25     1     1     2     0     0  1.071375842E+02 -1.545924267E+02  8.954474283E+01  2.429414360E+02  1.250000000E+02  0.00000E+00  9.000E+00
      25     1     1     2     0     0 -1.172587736E+02  1.324179482E+02  1.980005023E+01  2.174883330E+02  1.250000000E+02  0.00000E+00  9.000E+00
      21     1     1     2   502   511  1.012118942E+01  2.217447853E+01 -4.335649910E+01  4.973863677E+01  4.768371582E-07  0.00000E+00  9.000E+00
#rwgt            1           1   4.6002315058501088E-002          10      412280           0
</event>
<event>
      5   9999  3.79277E-02  5.54802E+00 -1.00000E+00  2.30887E-01
      21    -1     0     0   502   512  0.000000000E+00  0.000000000E+00  1.626415071E+02  1.626415071E+02  0.000000000E+00  0.00000E+00  9.000E+00
      21    -1     0     0   501   502  0.000000000E+00  0.000000000E+00 -2.998477657E+02  2.998477657E+02  0.000000000E+00  0.00000E+00  9.000E+00
      25     1     1     2     0     0 -1.912350701E+01 -1.251344197E+02  6.177379057E+01  1.883224169E+02  1.250000000E+02  0.00000E+00  9.000E+00
      25     1     1     2     0     0  2.172344918E+01  1.300355256E+02 -1.976499248E+02  2.684616154E+02  1.250000000E+02  0.00000E+00  9.000E+00
      21     1     1     2   501   512 -2.599942172E+00 -4.901105891E+00 -1.330124457E+00  5.705240514E+00  1.144579909E-07  0.00000E+00  9.000E+00
#rwgt            1           1   3.6954835070282445E-002          10      412478           0
</event>
<event>
      5   9999  3.79277E-02  2.30648E+02 -1.00000E+00  1.09439E-01
      21    -1     0     0   502   511  0.000000000E+00  0.000000000E+00  6.582514815E+02  6.582514815E+02  0.000000000E+00  0.00000E+00  9.000E+00
      21    -1     0     0   501   502  0.000000000E+00  0.000000000E+00 -2.421273775E+02  2.421273775E+02  0.000000000E+00  0.00000E+00  9.000E+00
      25     1     1     2     0     0 -1.382657083E+02  4.435068673E+01  2.140082871E+02  2.872436883E+02  1.250000000E+02  0.00000E+00  9.000E+00
      25     1     1     2     0     0  2.741090422E+02  1.420496817E+02  4.991189377E+01  3.367938185E+02  1.250000000E+02  0.00000E+00  9.000E+00
      21     1     1     2   501   511 -1.358433339E+02 -1.864003684E+02  1.522039231E+02  2.763413521E+02  2.697398305E-06  0.00000E+00  9.000E+00
#rwgt            2          11   1.7061528984788964E-003          10      412840           0
</event>
<event>
      5   9999  3.79277E-02  5.51796E+01 -1.00000E+00  1.36676E-01
      21    -1     0     0   512   501  0.000000000E+00  0.000000000E+00  7.490119535E+01  7.490119535E+01  0.000000000E+00  0.00000E+00  9.000E+00
      21    -1     0     0   501   502  0.000000000E+00  0.000000000E+00 -1.926571446E+03  1.926571446E+03  0.000000000E+00  0.00000E+00  9.000E+00
      25     1     1     2     0     0 -1.387982045E+01 -1.847072857E+02 -1.404027431E+03  1.421698793E+03  1.250000000E+02  0.00000E+00  9.000E+00
      25     1     1     2     0     0  6.434765785E+01  1.623960986E+02 -4.726676690E+02  5.191847833E+02  1.250000000E+02  0.00000E+00  9.000E+00
      21     1     1     2   512   502 -5.046783740E+01  2.231118704E+01  2.502484961E+01  6.058906483E+01  2.589888690E-06  0.00000E+00  9.000E+00
#rwgt            1           1   2.9574718295913197E-002          10      412860           0
</event>
<event>
      5   9999  3.79277E-02  1.15464E+01 -1.00000E+00  1.88805E-01
      21    -1     0     0   511   501  0.000000000E+00  0.000000000E+00  5.035779499E+02  5.035779499E+02  0.000000000E+00  0.00000E+00  9.000E+00
      21    -1     0     0   501   502  0.000000000E+00  0.000000000E+00 -9.583995280E+01  9.583995280E+01  0.000000000E+00  0.00000E+00  9.000E+00
      25     1     1     2     0     0 -1.206508673E+02  9.217472825E+01  1.287012465E+02  2.350357912E+02  1.250000000E+02  0.00000E+00  9.000E+00
      25     1     1     2     0     0  1.180468236E+02 -1.034236947E+02  1.957937034E+02  2.803420901E+02  1.250000000E+02  0.00000E+00  9.000E+00
      21     1     1     2   511   502  2.604043641E+00  1.124896640E+01  8.324304713E+01  8.404002132E+01  1.651812370E-06  0.00000E+00  9.000E+00
#rwgt            1           1   3.5344499540219877E-002          10      413285           0
</event>
<event>
      5   9999  3.79277E-02  1.24099E+01 -1.00000E+00  1.85507E-01
      21    -1     0     0   502   501  0.000000000E+00  0.000000000E+00  5.936674235E+02  5.936674235E+02  0.000000000E+00  0.00000E+00  9.000E+00
      21    -1     0     0   512   502  0.000000000E+00  0.000000000E+00 -4.070011143E+02  4.070011143E+02  0.000000000E+00  0.00000E+00  9.000E+00
      25     1     1     2     0     0 -1.670343666E+02 -1.826240780E+02  2.887704516E+02  4.003316215E+02  1.250000000E+02  0.00000E+00  9.000E+00
      25     1     1     2     0     0  1.554466742E+02  1.870660674E+02  1.738872925E+02  3.240666175E+02  1.250000000E+02  0.00000E+00  9.000E+00
      21     1     1     2   512   501  1.158769245E+01 -4.441989421E+00 -2.759914348E+02  2.762702988E+02  6.607249480E-06  0.00000E+00  9.000E+00
#rwgt            1           1  0.18322794685967150               10      413650           0
</event>
<event>
      5   9999  3.79277E-02  7.06099E+01 -1.00000E+00  1.31030E-01
      21    -1     0     0   511   501  0.000000000E+00  0.000000000E+00  1.644066102E+02  1.644066102E+02  0.000000000E+00  0.00000E+00  9.000E+00
      21    -1     0     0   501   502  0.000000000E+00  0.000000000E+00 -3.599252952E+02  3.599252952E+02  0.000000000E+00  0.00000E+00  9.000E+00
      25     1     1     2     0     0 -1.487877787E+02 -6.330665665E+01 -1.571161743E+02  2.577906672E+02  1.250000000E+02  0.00000E+00  9.000E+00
      25     1     1     2     0     0  1.031191527E+02  9.453733294E+00 -8.372098612E+01  1.826393611E+02  1.250000000E+02  0.00000E+00  9.000E+00
      21     1     1     2   511   502  4.566862602E+01  5.385292335E+01  4.531847542E+01  8.390187704E+01  6.743495762E-07  0.00000E+00  9.000E+00
#rwgt            2          11   1.6770474357750077E-003          10      413916           0
</event>
<event>
      5   9999 -3.79277E-02  2.33367E+01 -1.00000E+00  1.61024E-01
      21    -1     0     0   512   501  0.000000000E+00  0.000000000E+00  1.252465427E+03  1.252465427E+03  0.000000000E+00  0.00000E+00  9.000E+00
      21    -1     0     0   501   502  0.000000000E+00  0.000000000E+00 -6.635038723E+01  6.635038723E+01  0.000000000E+00  0.00000E+00  9.000E+00
      25     1     1     2     0     0  1.012611306E+02 -8.431618852E+01  1.133704365E+02  2.141048624E+02  1.250000000E+02  0.00000E+00  9.000E+00
      25     1     1     2     0     0 -9.707977533E+01  6.135718296E+01  4.410868049E+02  4.726222129E+02  1.250000000E+02  0.00000E+00  9.000E+00
      21     1     1     2   512   502 -4.181355292E+00  2.295900556E+01  6.316577985E+02  6.320887391E+02  7.629394531E-06  0.00000E+00  9.000E+00
#rwgt            1           1  -5.3689735136311811E-002          10      413951           0
</event>
<event>
      5   9999  3.79277E-02  2.84145E+02 -1.00000E+00  1.06364E-01
      21    -1     0     0   502   501  0.000000000E+00  0.000000000E+00  5.707049170E+02  5.707049170E+02  0.000000000E+00  0.00000E+00  9.000E+00
      21    -1     0     0   501   511  0.000000000E+00  0.000000000E+00 -3.633447500E+02  3.633447500E+02  0.000000000E+00  0.00000E+00  9.000E+00
      25     1     1     2     0     0  9.867420362E+01 -3.752689270E+00  3.626397214E+02  3.960849009E+02  1.250000000E+02  0.00000E+00  9.000E+00
      25     1     1     2     0     0  1.792663990E+02 -5.529943210E+01 -2.996750281E+01  2.274148637E+02  1.250000000E+02  0.00000E+00  9.000E+00
      21     1     1     2   502   511 -2.779406027E+02  5.905212137E+01 -1.253120516E+02  3.105499024E+02  3.303624740E-06  0.00000E+00  9.000E+00
#rwgt            2          11   1.3871211950127217E-003          10      414090           0
</event>
<event>
      5   9999  3.79277E-02  8.55297E+00 -1.00000E+00  2.03946E-01
      21    -1     0     0   502   501  0.000000000E+00  0.000000000E+00  3.503684177E+03  3.503684177E+03  0.000000000E+00  0.00000E+00  9.000E+00
      21    -1     0     0   512   502  0.000000000E+00  0.000000000E+00 -9.096983121E+01  9.096983121E+01  0.000000000E+00  0.00000E+00  9.000E+00
      25     1     1     2     0     0  1.476012499E+02 -1.094835068E+02  1.291032098E+03  1.310023529E+03  1.250000000E+02  0.00000E+00  9.000E+00
      25     1     1     2     0     0 -1.561486672E+02  1.097917013E+02  2.197006078E+03  2.208822612E+03  1.250000000E+02  0.00000E+00  9.000E+00
      21     1     1     2   512   501  8.547417353E+00 -3.081944794E-01 -7.532383053E+01  7.580786749E+01  1.651812370E-06  0.00000E+00  9.000E+00
#rwgt            1           1   1.6342212194301594E-002          10      414170           0
</event>
<event>
      5   9999  3.79277E-02  3.41168E+01 -1.00000E+00  1.49260E-01
      21    -1     0     0   502   501  0.000000000E+00  0.000000000E+00  6.319756221E+02  6.319756221E+02  0.000000000E+00  0.00000E+00  9.000E+00
      21    -1     0     0   511   502  0.000000000E+00  0.000000000E+00 -9.032270062E+01  9.032270062E+01  0.000000000E+00  0.00000E+00  9.000E+00
      25     1     1     2     0     0  9.533758296E+01  1.419210841E+02  1.237663888E+02  2.453038276E+02  1.250000000E+02  0.00000E+00  9.000E+00
      25     1     1     2     0     0 -6.309912640E+01 -1.307569706E+02  3.827460897E+02  4.280168855E+02  1.250000000E+02  0.00000E+00  9.000E+00
      21     1     1     2   511   501 -3.223845656E+01 -1.116411353E+01  3.514044300E+01  4.897760965E+01  4.768371582E-07  0.00000E+00  9.000E+00
#rwgt            1           1   4.1252175634850334E-002          10      414453           0
</event>
<event>
      5   9999  3.79277E-02  3.25109E+01 -1.00000E+00  1.50654E-01
      21    -1     0     0   512   501  0.000000000E+00  0.000000000E+00  1.865659207E+03  1.865659207E+03  0.000000000E+00  0.00000E+00  9.000E+00
      21    -1     0     0   501   502  0.000000000E+00  0.000000000E+00 -6.037931954E+01  6.037931954E+01  0.000000000E+00  0.00000E+00  9.000E+00
      25     1     1     2     0     0 -1.695197904E+02  1.680342347E+02  7.706159225E+02  8.163616621E+02  1.250000000E+02  0.00000E+00  9.000E+00
      25     1     1     2     0     0  1.466330883E+02 -1.449440514E+02  3.544351046E+02  4.286715339E+02  1.250000000E+02  0.00000E+00  9.000E+00
      21     1     1     2   512   502  2.288670212E+01 -2.309018330E+01  6.802288600E+02  6.810053301E+02  7.629394531E-06  0.00000E+00  9.000E+00
#rwgt            1           1  0.26316766878842973               10      414671           0
</event>
<event>
      5   9999  3.79277E-02  2.47775E+01 -1.00000E+00  1.59042E-01
      21    -1     0     0   502   501  0.000000000E+00  0.000000000E+00  3.125541353E+02  3.125541353E+02  0.000000000E+00  0.00000E+00  9.000E+00
      21    -1     0     0   511   502  0.000000000E+00  0.000000000E+00 -2.797752063E+02  2.797752063E+02  0.000000000E+00  0.00000E+00  9.000E+00
      25     1     1     2     0     0 -1.163203751E+02  2.790114269E+01  2.440211943E+02  2.991324902E+02  1.250000000E+02  0.00000E+00  9.000E+00
      25     1     1     2     0     0  1.092704255E+02 -5.165447991E+01 -1.600536731E+02  2.363268700E+02  1.250000000E+02  0.00000E+00  9.000E+00
      21     1     1     2   511   501  7.049949595E+00  2.375333722E+01 -5.118859222E+01  5.686998147E+01  6.743495762E-07  0.00000E+00  9.000E+00
#rwgt            1           1   2.9755636909014071E-002          10      414778           0
</event>
<event>
      5   9999  3.79277E-02  4.04787E+01 -1.00000E+00  1.44520E-01
      21    -1     0     0   512   501  0.000000000E+00  0.000000000E+00  1.422433869E+02  1.422433869E+02  0.000000000E+00  0.00000E+00  9.000E+00
      21    -1     0     0   501   502  0.000000000E+00  0.000000000E+00 -1.522532985E+03  1.522532985E+03  0.000000000E+00  0.00000E+00  9.000E+00
      25     1     1     2     0     0  1.779478652E+02  8.312862803E+01 -8.605342001E+02  8.914706507E+02  1.250000000E+02  0.00000E+00  9.000E+00
      25     1     1     2     0     0 -1.988972231E+02 -4.849261901E+01 -6.202224590E+02  6.649906301E+02  1.250000000E+02  0.00000E+00  9.000E+00
      21     1     1     2   512   502  2.094935792E+01 -3.463600901E+01  1.004670607E+02  1.083150913E+02  3.814697266E-06  0.00000E+00  9.000E+00
#rwgt            1           1   5.1344347729285658E-002          10      415111           0
</event>
<event>
      5   9999  3.79277E-02  7.55298E+01 -1.00000E+00  1.29570E-01
      21    -1     0     0   502   501  0.000000000E+00  0.000000000E+00  1.774817303E+03  1.774817303E+03  0.000000000E+00  0.00000E+00  9.000E+00
      21    -1     0     0   501   511  0.000000000E+00  0.000000000E+00 -2.601937546E+01  2.601937546E+01  0.000000000E+00  0.00000E+00  9.000E+00
      25     1     1     2     0     0 -1.308554764E+02  1.819603825E+01  1.126108192E+03  1.140701062E+03  1.250000000E+02  0.00000E+00  9.000E+00
      25     1     1     2     0     0  5.908598521E+01  5.338978130E+00  3.294753369E+02  3.573494872E+02  1.250000000E+02  0.00000E+00  9.000E+00
      21     1     1     2   502   511  7.176949119E+01 -2.353501638E+01  2.932143983E+02  3.027861295E+02  0.000000000E+00  0.00000E+00  9.000E+00
#rwgt            1           1   5.2413820161429599E-002          10      415233           0
</event>
<event>
      5   9999  3.79277E-02  3.96097E+01 -1.00000E+00  1.45105E-01
      21    -1     0     0   502   501  0.000000000E+00  0.000000000E+00  1.063220153E+02  1.063220153E+02  0.000000000E+00  0.00000E+00  9.000E+00
      21    -1     0     0   512   502  0.000000000E+00  0.000000000E+00 -5.184002585E+02  5.184002585E+02  0.000000000E+00  0.00000E+00  9.000E+00
      25     1     1     2     0     0 -1.058753709E+02  7.399053454E+01 -2.333247793E+02  2.945329285E+02  1.250000000E+02  0.00000E+00  9.000E+00
      25     1     1     2     0     0  1.376576475E+02 -5.035122727E+01 -5.512608278E+01  2.003715524E+02  1.250000000E+02  0.00000E+00  9.000E+00
      21     1     1     2   512   501 -3.178227665E+01 -2.363930727E+01 -1.236273812E+02  1.298177928E+02  2.336015456E-06  0.00000E+00  9.000E+00
#rwgt            1           1   3.5935394104909320E-002          10      415349           0
</event>
<event>
      5   9999  3.79277E-02  6.15041E+01 -1.00000E+00  1.34131E-01
      21    -1     0     0   511   501  0.000000000E+00  0.000000000E+00  3.436250677E+02  3.436250677E+02  0.000000000E+00  0.00000E+00  9.000E+00
      21    -1     0     0   501   502  0.000000000E+00  0.000000000E+00 -1.089072424E+02  1.089072424E+02  0.000000000E+00  0.00000E+00  9.000E+00
      25     1     1     2     0     0  2.001985677E+01  7.231365047E+01  9.621784478E+01  1.746795133E+02  1.250000000E+02  0.00000E+00  9.000E+00
      25     1     1     2     0     0  3.216150682E+01 -1.048691920E+02  5.710745912E+01  1.758356387E+02  1.250000000E+02  0.00000E+00  9.000E+00
      21     1     1     2   511   502 -5.218136359E+01  3.255554153E+01  8.139252144E+01  1.020171581E+02  9.536743164E-07  0.00000E+00  9.000E+00
#rwgt            2          11   1.9238594047784896E-003          10      415493           0
</event>
<event>
      5   9999  3.79277E-02  4.25958E+01 -1.00000E+00  1.43167E-01
      21    -1     0     0   512   501  0.000000000E+00  0.000000000E+00  1.033650266E+02  1.033650266E+02  0.000000000E+00  0.00000E+00  9.000E+00
      21    -1     0     0   501   502  0.000000000E+00  0.000000000E+00 -1.066887371E+03  1.066887371E+03  0.000000000E+00  0.00000E+00  9.000E+00
      25     1     1     2     0     0 -5.698700431E+01 -2.400373465E+02 -3.382999266E+02  4.369637133E+02  1.250000000E+02  0.00000E+00  9.000E+00
      25     1     1     2     0     0  9.587542668E+01  2.574182844E+02 -6.210415528E+02  6.904881468E+02  1.250000000E+02  0.00000E+00  9.000E+00
      21     1     1     2   512   502 -3.888842236E+01 -1.738093787E+01 -4.180865165E+00  4.280053772E+01  3.318646170E-07  0.00000E+00  9.000E+00
#rwgt            1           1   2.4335957108545130E-002          10      415663           0
</event>
<event>
      5   9999  3.79277E-02  1.93138E+01 -1.00000E+00  1.67630E-01
      21    -1     0     0   502   501  0.000000000E+00  0.000000000E+00  4.900203520E+02  4.900203520E+02  0.000000000E+00  0.00000E+00  9.000E+00
      21    -1     0     0   511   502  0.000000000E+00  0.000000000E+00 -1.271848925E+02  1.271848925E+02  0.000000000E+00  0.00000E+00  9.000E+00
      25     1     1     2     0     0 -1.350619912E+01  2.067829310E+02  1.897794956E+02  3.075432570E+02  1.250000000E+02  0.00000E+00  9.000E+00
      25     1     1     2     0     0  2.270180253E+01 -1.897987637E+02  1.781849331E+02  2.896788100E+02  1.250000000E+02  0.00000E+00  9.000E+00
      21     1     1     2   511   501 -9.195603409E+00 -1.698416731E+01 -5.128969227E+00  1.998317759E+01  3.039252468E-07  0.00000E+00  9.000E+00
#rwgt            1           1   3.2219924070880715E-002          10      415798           0
</event>
<event>
      5   9999  3.79277E-02  1.39739E+02 -1.00000E+00  1.17626E-01
      21    -1     0     0   502   501  0.000000000E+00  0.000000000E+00  9.472293704E+01  9.472293704E+01  0.000000000E+00  0.00000E+00  9.000E+00
      21    -1     0     0   501   512  0.000000000E+00  0.000000000E+00 -8.216557830E+02  8.216557830E+02  0.000000000E+00  0.00000E+00  9.000E+00
      25     1     1     2     0     0 -8.513451326E+01  1.522410199E+02 -1.599766023E+02  2.676615900E+02  1.250000000E+02  0.00000E+00  9.000E+00
      25     1     1     2     0     0 -4.870671567E+01 -1.120741648E+02 -2.931346669E+02  3.413003010E+02  1.250000000E+02  0.00000E+00  9.000E+00
      21     1     1     2   502   512  1.338412289E+02 -4.016685515E+01 -2.738215768E+02  3.074168290E+02  3.814697266E-06  0.00000E+00  9.000E+00
#rwgt            1           1   5.3817424203709566E-002          10      415956           0
</event>
<event>
      5   9999  3.79277E-02  3.40638E+01 -1.00000E+00  1.49304E-01
      21    -1     0     0   502   501  0.000000000E+00  0.000000000E+00  1.460288480E+02  1.460288480E+02  0.000000000E+00  0.00000E+00  9.000E+00
      21    -1     0     0   501   511  0.000000000E+00  0.000000000E+00 -1.197946801E+03  1.197946801E+03  0.000000000E+00  0.00000E+00  9.000E+00
      25     1     1     2     0     0 -1.163487112E+02 -9.288931480E+01 -1.165841203E+02  2.266766519E+02  1.250000000E+02  0.00000E+00  9.000E+00
      25     1     1     2     0     0  1.406405518E+02  6.900935925E+01 -2.009013903E+01  2.014216229E+02  1.250000000E+02  0.00000E+00  9.000E+00
      21     1     1     2   502   511 -2.429184055E+01  2.387995555E+01 -9.152436934E+02  9.158773739E+02  1.525878906E-05  0.00000E+00  9.000E+00
#rwgt            1           1   2.1405591923822926E-002          10      416127           0
</event>
<event>
      5   9999  3.79277E-02  2.74771E+01 -1.00000E+00  1.55738E-01
      21    -1     0     0   502   501  0.000000000E+00  0.000000000E+00  8.035862881E+01  8.035862881E+01  0.000000000E+00  0.00000E+00  9.000E+00
       2    -1     0     0   501     0  0.000000000E+00  0.000000000E+00 -1.474645223E+03  1.474645223E+03  0.000000000E+00  0.00000E+00  9.000E+00
      25     1     1     2     0     0  6.958980750E+01  9.693705968E+01 -5.346875999E+01  1.808962220E+02  1.250000000E+02  0.00000E+00  9.000E+00
      25     1     1     2     0     0 -4.613815793E+01 -1.112553370E+02 -4.419089735E+02  4.747789175E+02  1.250000000E+02  0.00000E+00  9.000E+00
       2     1     1     2   502     0 -2.345164957E+01  1.431827729E+01 -8.989088604E+02  8.993287120E+02  1.078959322E-05  0.00000E+00  9.000E+00
#rwgt            1           1   5.2560134604767259E-002          10      416243           0
</event>
<event>
      5   9999  3.79277E-02  6.40917E+00 -1.00000E+00  2.21112E-01
      21    -1     0     0   502   511  0.000000000E+00  0.000000000E+00  1.854842525E+02  1.854842525E+02  0.000000000E+00  0.00000E+00  9.000E+00
      21    -1     0     0   501   502  0.000000000E+00  0.000000000E+00 -1.938465041E+02  1.938465041E+02  0.000000000E+00  0.00000E+00  9.000E+00
      25     1     1     2     0     0  3.453102194E+01 -1.008238172E+02  6.773487181E+01  1.776818687E+02  1.250000000E+02  0.00000E+00  9.000E+00
      25     1     1     2     0     0 -3.940436823E+01  1.049865089E+02 -8.690547840E+01  1.890831390E+02  1.250000000E+02  0.00000E+00  9.000E+00
      21     1     1     2   501   511  4.873346290E+00 -4.162691738E+00  1.080835498E+01  1.256574884E+01  2.064765462E-07  0.00000E+00  9.000E+00
#rwgt            1           1   4.4232293276664024E-002          10      416478           0
</event>
<event>
      5   9999  3.79277E-02  9.05668E+01 -1.00000E+00  1.25795E-01
      21    -1     0     0   502   501  0.000000000E+00  0.000000000E+00  1.209199849E+03  1.209199849E+03  0.000000000E+00  0.00000E+00  9.000E+00
      21    -1     0     0   501   512  0.000000000E+00  0.000000000E+00 -7.509935960E+01  7.509935960E+01  0.000000000E+00  0.00000E+00  9.000E+00
      25     1     1     2     0     0 -1.914975911E+02  1.745764878E+01  5.403464448E+02  5.870054321E+02  1.250000000E+02  0.00000E+00  9.000E+00
      25     1     1     2     0     0  2.198923615E+02 -1.034581406E+02  4.741994396E+02  5.473082733E+02  1.250000000E+02  0.00000E+00  9.000E+00
      21     1     1     2   502   512 -2.839477032E+01  8.600049180E+01  1.195546046E+02  1.499855028E+02  1.348699152E-06  0.00000E+00  9.000E+00
#rwgt            1           1   1.8090818638359166E-002          10      416776           0
</event>
<event>
      5   9999  3.79277E-02  5.33065E+01 -1.00000E+00  1.37507E-01
      21    -1     0     0   502   501  0.000000000E+00  0.000000000E+00  2.257663086E+03  2.257663086E+03  0.000000000E+00  0.00000E+00  9.000E+00
      21    -1     0     0   501   511  0.000000000E+00  0.000000000E+00 -2.950852635E+01  2.950852635E+01  0.000000000E+00  0.00000E+00  9.000E+00
      25     1     1     2     0     0  1.576280851E+02  3.818971129E+00  1.416598196E+03  1.430816776E+03  1.250000000E+02  0.00000E+00  9.000E+00
      25     1     1     2     0     0 -1.429483589E+02  4.742642408E+01  7.490770343E+02  7.742253563E+02  1.250000000E+02  0.00000E+00  9.000E+00
      21     1     1     2   502   511 -1.467972616E+01 -5.124539521E+01  6.247932944E+01  8.212948008E+01  2.861022949E-06  0.00000E+00  9.000E+00
#rwgt            1           1  0.16240926199536626               10      416912           0
</event>
<event>
      5   9999  3.79277E-02  1.49322E+01 -1.00000E+00  1.77569E-01
      21    -1     0     0   502   501  0.000000000E+00  0.000000000E+00  5.751731416E+02  5.751731416E+02  0.000000000E+00  0.00000E+00  9.000E+00
      21    -1     0     0   512   502  0.000000000E+00  0.000000000E+00 -4.310978599E+02  4.310978599E+02  0.000000000E+00  0.00000E+00  9.000E+00
      25     1     1     2     0     0  1.591601659E+02 -3.175545978E+02 -2.311677141E+02  4.418556247E+02  1.250000000E+02  0.00000E+00  9.000E+00
      25     1     1     2     0     0 -1.721125873E+02  3.101245306E+02  3.911431052E+02  5.426028897E+02  1.250000000E+02  0.00000E+00  9.000E+00
      21     1     1     2   512   501  1.295242132E+01  7.430067185E+00 -1.590010943E+01  2.181248716E+01  1.685873940E-07  0.00000E+00  9.000E+00
#rwgt            1           1  0.11258553724979635               10      417171           0
</event>
<event>
      5   9999  3.79277E-02  5.41385E+01 -1.00000E+00  1.37133E-01
      21    -1     0     0   511   501  0.000000000E+00  0.000000000E+00  2.950171708E+02  2.950171708E+02  0.000000000E+00  0.00000E+00  9.000E+00
      21    -1     0     0   501   502  0.000000000E+00  0.000000000E+00 -2.244881258E+02  2.244881258E+02  0.000000000E+00  0.00000E+00  9.000E+00
      25     1     1     2     0     0 -6.809780886E+01 -6.717510600E+01  1.558489313E+02  2.215032637E+02  1.250000000E+02  0.00000E+00  9.000E+00
      25     1     1     2     0     0  1.203534305E+02  5.302134150E+01 -1.337114879E+02  2.253884932E+02  1.250000000E+02  0.00000E+00  9.000E+00
      21     1     1     2   511   502 -5.225562163E+01  1.415376450E+01  4.839160157E+01  7.261353967E+01  6.743495762E-07  0.00000E+00  9.000E+00
#rwgt            1           1   4.3657709125977169E-002          10      417400           0
</event>
<event>
      5   9999  3.79277E-02  4.51741E+01 -1.00000E+00  1.41638E-01
      21    -1     0     0   502   501  0.000000000E+00  0.000000000E+00  2.223273632E+02  2.223273632E+02  0.000000000E+00  0.00000E+00  9.000E+00
      21    -1     0     0   512   502  0.000000000E+00  0.000000000E+00 -3.192274025E+02  3.192274025E+02  0.000000000E+00  0.00000E+00  9.000E+00
      25     1     1     2     0     0 -4.535317241E+01 -1.309189898E+02  2.147950003E+01  1.878378584E+02  1.250000000E+02  0.00000E+00  9.000E+00
      25     1     1     2     0     0  8.613872584E+01  1.114964313E+02  3.695868040E+01  1.919434248E+02  1.250000000E+02  0.00000E+00  9.000E+00
      21     1     1     2   512   501 -4.078555343E+01  1.942255852E+01 -1.553382197E+02  1.617734825E+02  1.907348633E-06  0.00000E+00  9.000E+00
#rwgt            1           1   3.4341099416930844E-002          10      417541           0
</event>
<event>
      5   9999  3.79277E-02  3.36649E+01 -1.00000E+00  1.49643E-01
      21    -1     0     0   511   501  0.000000000E+00  0.000000000E+00  5.118724811E+01  5.118724811E+01  0.000000000E+00  0.00000E+00  9.000E+00
      21    -1     0     0   501   502  0.000000000E+00  0.000000000E+00 -1.235292851E+03  1.235292851E+03  0.000000000E+00  0.00000E+00  9.000E+00
      25     1     1     2     0     0 -1.854068942E+01  1.034383077E+02 -1.419153990E+02  2.163520768E+02  1.250000000E+02  0.00000E+00  9.000E+00
      25     1     1     2     0     0 -1.010646543E+01 -8.575600859E+01 -1.016473704E+03  1.027764576E+03  1.250000000E+02  0.00000E+00  9.000E+00
      21     1     1     2   511   502  2.864715485E+01 -1.768229909E+01 -2.571649996E+01  4.236344595E+01  1.066240300E-06  0.00000E+00  9.000E+00
#rwgt            1           1   5.9549169369558744E-002          10      417619           0
</event>
<event>
      5   9999  3.79277E-02  3.60438E+01 -1.00000E+00  1.47702E-01
      21    -1     0     0   512   501  0.000000000E+00  0.000000000E+00  1.762182837E+02  1.762182837E+02  0.000000000E+00  0.00000E+00  9.000E+00
      21    -1     0     0   501   502  0.000000000E+00  0.000000000E+00 -4.104520428E+02  4.104520428E+02  0.000000000E+00  0.00000E+00  9.000E+00
      25     1     1     2     0     0 -1.441264272E+02  1.009050382E+02 -2.583187327E+02  3.366122716E+02  1.250000000E+02  0.00000E+00  9.000E+00
      25     1     1     2     0     0  1.109596991E+02 -8.679400025E+01 -2.411357183E+01  1.898728987E+02  1.250000000E+02  0.00000E+00  9.000E+00
      21     1     1     2   512   502  3.316672803E+01 -1.411103791E+01  4.819854549E+01  6.018515620E+01  6.743495762E-07  0.00000E+00  9.000E+00
#rwgt            1           1   9.7700760320282229E-002          10      417719           0
</event>
<event>
      5   9999  3.79277E-02  1.80741E+01 -1.00000E+00  1.70081E-01
      -4    -1     0     0     0   501  0.000000000E+00  0.000000000E+00  5.386297894E+02  5.386297894E+02  0.000000000E+00  0.00000E+00  9.000E+00
      21    -1     0     0   501   502  0.000000000E+00  0.000000000E+00 -2.869141688E+02  2.869141688E+02  0.000000000E+00  0.00000E+00  9.000E+00
      25     1     1     2     0     0  7.638298847E+01 -2.081317046E+02  7.185984832E+01  2.644655085E+02  1.250000000E+02  0.00000E+00  9.000E+00
      25     1     1     2     0     0 -9.016350233E+01  2.198266590E+02 -9.563252408E+01  2.849978891E+02  1.250000000E+02  0.00000E+00  9.000E+00
      -4     1     1     2     0   502  1.378051386E+01 -1.169495432E+01  2.754882963E+02  2.760805606E+02  3.814697266E-06  0.00000E+00  9.000E+00
#rwgt            1           1   3.7093142443326323E-002          10      417893           0
</event>
<event>
      5   9999  3.79277E-02  1.01903E+02 -1.00000E+00  1.23461E-01
      21    -1     0     0   511   501  0.000000000E+00  0.000000000E+00  9.608536832E+02  9.608536832E+02  0.000000000E+00  0.00000E+00  9.000E+00
      21    -1     0     0   501   502  0.000000000E+00  0.000000000E+00 -1.273796521E+02  1.273796521E+02  0.000000000E+00  0.00000E+00  9.000E+00
      25     1     1     2     0     0 -7.301442405E+01 -2.180396005E+01  5.837251293E+01  1.576035185E+02  1.250000000E+02  0.00000E+00  9.000E+00
      25     1     1     2     0     0  8.355126073E+00  1.005661885E+02  1.237467663E+01  1.611257243E+02  1.250000000E+02  0.00000E+00  9.000E+00
      21     1     1     2   511   502  6.465929798E+01 -7.876222845E+01  7.627268416E+02  7.695040925E+02  0.000000000E+00  0.00000E+00  9.000E+00
#rwgt            1           1   6.7165759919076765E-002          10      418102           0
</event>
<event>
      5   9999  3.79277E-02  1.21394E+02 -1.00000E+00  1.20156E-01
      21    -1     0     0   512   501  0.000000000E+00  0.000000000E+00  1.661590688E+02  1.661590688E+02  0.000000000E+00  0.00000E+00  9.000E+00
      21    -1     0     0   501   502  0.000000000E+00  0.000000000E+00 -7.408328126E+02  7.408328126E+02  0.000000000E+00  0.00000E+00  9.000E+00
      25     1     1     2     0     0 -3.065038524E+02 -6.719038996E+01 -2.851900894E+02  4.420605696E+02  1.250000000E+02  0.00000E+00  9.000E+00
      25     1     1     2     0     0  1.871628231E+02  8.942236333E+01 -2.007144663E+02  3.145434444E+02  1.250000000E+02  0.00000E+00  9.000E+00
      21     1     1     2   512   502  1.193410293E+02 -2.223197338E+01 -8.876918801E+01  1.503878674E+02  2.132480600E-06  0.00000E+00  9.000E+00
#rwgt            2          11   2.9090952060246249E-003          10      418136           0
</event>
<event>
      5   9999  3.79277E-02  6.63755E+00 -1.00000E+00  2.18870E-01
       1    -1     0     0   502     0  0.000000000E+00  0.000000000E+00  1.009729592E+02  1.009729592E+02  0.000000000E+00  0.00000E+00  9.000E+00
      21    -1     0     0   501   502  0.000000000E+00  0.000000000E+00 -1.208181470E+03  1.208181470E+03  0.000000000E+00  0.00000E+00  9.000E+00
      25     1     1     2     0     0  1.673219164E+01 -2.105133650E+02 -5.189865784E+02  5.740800568E+02  1.250000000E+02  0.00000E+00  9.000E+00
      25     1     1     2     0     0 -2.216974277E+01  2.067067782E+02 -6.391917908E+02  6.836741439E+02  1.250000000E+02  0.00000E+00  9.000E+00
       1     1     1     2   501     0  5.437551124E+00  3.806586765E+00  5.096985820E+01  5.140022870E+01  2.236564522E-06  0.00000E+00  9.000E+00
#rwgt            1           1   2.3693361070691057E-002          10      418156           0
</event>
<event>
      5   9999  3.79277E-02  1.60238E+02 -1.00000E+00  1.15268E-01
      21    -1     0     0   502   511  0.000000000E+00  0.000000000E+00  9.011805622E+02  9.011805622E+02  0.000000000E+00  0.00000E+00  9.000E+00
      21    -1     0     0   501   502  0.000000000E+00  0.000000000E+00 -1.609152226E+02  1.609152226E+02  0.000000000E+00  0.00000E+00  9.000E+00
      25     1     1     2     0     0 -1.906596585E+02 -1.996963971E+02  3.467939184E+02  4.605657155E+02  1.250000000E+02  0.00000E+00  9.000E+00
      25     1     1     2     0     0  5.953024060E+01  1.076024960E+02 -1.432880001E+00  1.753544976E+02  1.250000000E+02  0.00000E+00  9.000E+00
      21     1     1     2   501   511  1.311294179E+02  9.209390112E+01  3.949043012E+02  4.261755718E+02  5.394796609E-06  0.00000E+00  9.000E+00
#rwgt            1           1   3.1464882630177778E-002          10      418448           0
</event>
<event>
      5   9999  3.79277E-02  2.31440E+02 -1.00000E+00  1.09387E-01
      21    -1     0     0   502   512  0.000000000E+00  0.000000000E+00  2.351384991E+03  2.351384991E+03  0.000000000E+00  0.00000E+00  9.000E+00
      21    -1     0     0   501   502  0.000000000E+00  0.000000000E+00 -1.546784844E+02  1.546784844E+02  0.000000000E+00  0.00000E+00  9.000E+00
      25     1     1     2     0     0  3.029516984E+02  8.609755216E+00  9.310107186E+01  3.408029768E+02  1.250000000E+02  0.00000E+00  9.000E+00
      25     1     1     2     0     0 -1.474888859E+02  1.628421489E+02  1.450484669E+03  1.472345514E+03  1.250000000E+02  0.00000E+00  9.000E+00
      21     1     1     2   501   512 -1.554628125E+02 -1.714519041E+02  6.531207662E+02  6.929149852E+02  1.078959322E-05  0.00000E+00  9.000E+00
#rwgt            1           1   7.8418112924021247E-002          10      418593           0
</event>
<event>
      5   9999  3.79277E-02  6.31054E+01 -1.00000E+00  1.33543E-01
      21    -1     0     0   502   511  0.000000000E+00  0.000000000E+00  1.664665947E+02  1.664665947E+02  0.000000000E+00  0.00000E+00  9.000E+00
      21    -1     0     0   501   502  0.000000000E+00  0.000000000E+00 -1.153741526E+03  1.153741526E+03  0.000000000E+00  0.00000E+00  9.000E+00
      25     1     1     2     0     0  2.567704117E+02  5.518172767E+01 -7.548688186E+02  8.089672433E+02  1.250000000E+02  0.00000E+00  9.000E+00
      25     1     1     2     0     0 -2.740034282E+02  5.525098040E+00 -2.955287316E+02  4.219841662E+02  1.250000000E+02  0.00000E+00  9.000E+00
      21     1     1     2   501   511  1.723301643E+01 -6.070682571E+01  6.312261872E+01  8.925671144E+01  1.507891493E-06  0.00000E+00  9.000E+00
#rwgt            1           1  0.14064934835858137               10      418761           0
</event>
<event>
      5   9999  3.79277E-02  1.09323E+01 -1.00000E+00  1.91386E-01
      21    -1     0     0   502   501  0.000000000E+00  0.000000000E+00  7.069573866E+01  7.069573866E+01  0.000000000E+00  0.00000E+00  9.000E+00
      21    -1     0     0   501   512  0.000000000E+00  0.000000000E+00 -5.788059642E+02  5.788059642E+02  0.000000000E+00  0.00000E+00  9.000E+00
      25     1     1     2     0     0 -8.445067985E+00 -1.256505809E+02 -3.484871629E+02  3.910597018E+02  1.250000000E+02  0.00000E+00  9.000E+00
      25     1     1     2     0     0  3.320873588E+00  1.159935600E+02 -9.976646912E+01  1.975952492E+02  1.250000000E+02  0.00000E+00  9.000E+00
      21     1     1     2   502   512  5.124194397E+00  9.657020953E+00 -5.985659357E+01  6.084675189E+01  6.743495762E-07  0.00000E+00  9.000E+00
#rwgt            1           1   5.0177887059591926E-002          10      418967           0
</event>
<event>
      5   9999  3.79277E-02  6.61491E+01 -1.00000E+00  1.32477E-01
      21    -1     0     0   502   511  0.000000000E+00  0.000000000E+00  3.856972793E+02  3.856972793E+02  0.000000000E+00  0.00000E+00  9.000E+00
      21    -1     0     0   501   502  0.000000000E+00  0.000000000E+00 -2.560534859E+02  2.560534859E+02  0.000000000E+00  0.00000E+00  9.000E+00
      25     1     1     2     0     0  1.510361566E+02  1.990802511E+02  1.214597705E+02  3.046675940E+02  1.250000000E+02  0.00000E+00  9.000E+00
      25     1     1     2     0     0 -1.330225483E+02 -1.354311128E+02 -6.698105806E+01  2.369557909E+02  1.250000000E+02  0.00000E+00  9.000E+00
      21     1     1     2   501   511 -1.801360827E+01 -6.364913823E+01  7.516508106E+01  1.001273803E+02  1.348699152E-06  0.00000E+00  9.000E+00
#rwgt            1           1   4.7066372362212401E-002          10      419381           0
</event>
<event>
      5   9999  3.79277E-02  2.24435E+01 -1.00000E+00  1.62342E-01
      21    -1     0     0   512   501  0.000000000E+00  0.000000000E+00  1.198905275E+02  1.198905275E+02  0.000000000E+00  0.00000E+00  9.000E+00
      21    -1     0     0   501   502  0.000000000E+00  0.000000000E+00 -4.982631014E+02  4.982631014E+02  0.000000000E+00  0.00000E+00  9.000E+00
      25     1     1     2     0     0 -2.130032953E+01 -2.518597124E+01 -4.380824058E+02  4.567594897E+02  1.250000000E+02  0.00000E+00  9.000E+00
      25     1     1     2     0     0  1.909643780E+01  2.850964296E+00  5.718544734E+01  1.388091399E+02  1.250000000E+02  0.00000E+00  9.000E+00
      21     1     1     2   512   502  2.203891727E+00  2.233500694E+01  2.524384585E+00  2.258499926E+01  8.940696716E-08  0.00000E+00  9.000E+00
#rwgt            1           1   4.9269047152657598E-002          10      419473           0
</event>
<event>
      5   9999  3.79277E-02  6.61878E+01 -1.00000E+00  1.32464E-01
      21    -1     0     0   511   501  0.000000000E+00  0.000000000E+00  1.793943698E+02  1.793943698E+02  0.000000000E+00  0.00000E+00  9.000E+00
      21    -1     0     0   501   502  0.000000000E+00  0.000000000E+00 -4.896854830E+02  4.896854830E+02  0.000000000E+00  0.00000E+00  9.000E+00
      25     1     1     2     0     0  3.146721112E+01  1.266474882E+02 -3.789517966E+02  4.198323902E+02  1.250000000E+02  0.00000E+00  9.000E+00
      25     1     1     2     0     0 -2.996580097E+01 -6.047672828E+01  1.022447298E+02  1.750267656E+02  1.250000000E+02  0.00000E+00  9.000E+00
      21     1     1     2   511   502 -1.501410143E+00 -6.617075995E+01 -3.358404639E+01  7.422069709E+01  1.907348633E-06  0.00000E+00  9.000E+00
#rwgt            1           1   3.3984228071596623E-002          10      419607           0
</event>
<event>
      5   9999 -3.79277E-02  8.61310E+01 -1.00000E+00  1.26816E-01
      21    -1     0     0   502   512  0.000000000E+00  0.000000000E+00  3.547714352E+02  3.547714352E+02  0.000000000E+00  0.00000E+00  9.000E+00
      21    -1     0     0   501   502  0.000000000E+00  0.000000000E+00 -2.514064499E+02  2.514064499E+02  0.000000000E+00  0.00000E+00  9.000E+00
      25     1     1     2     0     0  7.662748502E+01 -1.298704599E+02  9.080552865E+01  2.158906016E+02  1.250000000E+02  0.00000E+00  9.000E+00
      25     1     1     2     0     0 -1.446322951E+02  7.701314613E+01 -1.152767144E+02  2.361424281E+02  1.250000000E+02  0.00000E+00  9.000E+00
      21     1     1     2   501   512  6.800481011E+01  5.285731379E+01  1.278361711E+02  1.541448554E+02  3.814697266E-06  0.00000E+00  9.000E+00
#rwgt            1           1  -5.2199380381434554E-002          10      419785           0
</event>
<event>
      5   9999 -3.79277E-02  6.77079E+01 -1.00000E+00  1.31957E-01
      21    -1     0     0   502   511  0.000000000E+00  0.000000000E+00  6.613930924E+01  6.613930924E+01  0.000000000E+00  0.00000E+00  9.000E+00
      21    -1     0     0   501   502  0.000000000E+00  0.000000000E+00 -1.044048656E+03  1.044048656E+03  0.000000000E+00  0.00000E+00  9.000E+00
      25     1     1     2     0     0  1.575809672E+02 -2.991722477E+01 -5.835098397E+02  6.179284219E+02  1.250000000E+02  0.00000E+00  9.000E+00
      25     1     1     2     0     0 -1.165282594E+02 -2.392542995E+01 -3.875203341E+02  4.242031009E+02  1.250000000E+02  0.00000E+00  9.000E+00
      21     1     1     2   501   511 -4.105270778E+01  5.384265472E+01 -6.879172492E+00  6.805644200E+01  2.384185791E-07  0.00000E+00  9.000E+00
#rwgt            1           1  -6.0318526263829837E-002          10      419831           0
</event>
<event>
      5   9999  3.79277E-02  7.72962E+01 -1.00000E+00  1.29076E-01
       2    -1     0     0   502     0  0.000000000E+00  0.000000000E+00  1.624978124E+03  1.624978124E+03  0.000000000E+00  0.00000E+00  9.000E+00
      21    -1     0     0   501   502  0.000000000E+00  0.000000000E+00 -6.329650122E+01  6.329650122E+01  0.000000000E+00  0.00000E+00  9.000E+00
      25     1     1     2     0     0  1.720200192E+02  5.263317685E+01  3.434132640E+02  4.073313249E+02  1.250000000E+02  0.00000E+00  9.000E+00
      25     1     1     2     0     0 -9.549817225E+01 -4.171940064E+01  1.916799563E+02  2.514490305E+02  1.250000000E+02  0.00000E+00  9.000E+00
       2     1     1     2   501     0 -7.652184699E+01 -1.091377621E+01  1.026588402E+03  1.029494270E+03  1.525878906E-05  0.00000E+00  9.000E+00
#rwgt            1           1   2.1816258988648311E-002          10      419899           0
</event>
<event>
      5   9999  3.79277E-02  1.56825E+02 -1.00000E+00  1.15633E-01
      21    -1     0     0   502   501  0.000000000E+00  0.000000000E+00  2.860755638E+02  2.860755638E+02  0.000000000E+00  0.00000E+00  9.000E+00
      21    -1     0     0   501   511  0.000000000E+00  0.000000000E+00 -2.365686175E+02  2.365686175E+02  0.000000000E+00  0.00000E+00  9.000E+00
      25     1     1     2     0     0 -5.050047169E+01  1.068189790E+02  5.656702819E+01  1.810674476E+02  1.250000000E+02  0.00000E+00  9.000E+00
      25     1     1     2     0     0  1.229663544E+02  3.225878896E+01  2.907626350E+01  1.806426940E+02  1.250000000E+02  0.00000E+00  9.000E+00
      21     1     1     2   502   511 -7.246588271E+01 -1.390777679E+02 -3.613634541E+01  1.609340398E+02  1.066240300E-06  0.00000E+00  9.000E+00
#rwgt            1           1   3.5603703321010670E-002          10      419999           0
</event>
<event>
      5   9999  3.79277E-02  2.79757E+02 -1.00000E+00  1.06587E-01
      21    -1     0     0   502   501  0.000000000E+00  0.000000000E+00  1.204331365E+03  1.204331365E+03  0.000000000E+00  0.00000E+00  9.000E+00
       3    -1     0     0   501     0  0.000000000E+00  0.000000000E+00 -4.548347947E+02  4.548347947E+02  0.000000000E+00  0.00000E+00  9.000E+00
      25     1     1     2     0     0  8.406295258E+01  3.194930268E+02  8.192742819E+02  8.921758364E+02  1.250000000E+02  0.00000E+00  9.000E+00
      25     1     1     2     0     0 -8.216207039E+00 -5.021396853E+01  2.849065315E+02  3.152549450E+02  1.250000000E+02  0.00000E+00  9.000E+00
       3     1     1     2   502     0 -7.584674554E+01 -2.692790583E+02 -3.546842428E+02  4.517353785E+02  1.009274029E-05  0.00000E+00  9.000E+00
#rwgt            2          14   7.5745398983922968E-005          10      420081           0
</event>
<event>
      5   9999  3.79277E-02  2.83407E+01 -1.00000E+00  1.54776E-01
      21    -1     0     0   502   511  0.000000000E+00  0.000000000E+00  8.330936973E+02  8.330936973E+02  0.000000000E+00  0.00000E+00  9.000E+00
      21    -1     0     0   501   502  0.000000000E+00  0.000000000E+00 -9.035920400E+01  9.035920400E+01  0.000000000E+00  0.00000E+00  9.000E+00
      25     1     1     2     0     0  1.014083035E+02 -8.129253683E+01  6.346685347E+02  6.597888067E+02  1.250000000E+02  0.00000E+00  9.000E+00
      25     1     1     2     0     0 -9.480730370E+01  1.088537454E+02  4.746329982E+01  1.967621090E+02  1.250000000E+02  0.00000E+00  9.000E+00
      21     1     1     2   501   511 -6.600999835E+00 -2.756120857E+01  6.060265878E+01  6.690198553E+01  1.168007728E-06  0.00000E+00  9.000E+00
#rwgt            1           1   4.0551026500141751E-002          10      420115           0
</event>
<event>
      5   9999  3.79277E-02  2.71374E+02 -1.00000E+00  1.07027E-01
      21    -1     0     0   502   501  0.000000000E+00  0.000000000E+00  7.598216500E+02  7.598216500E+02  0.000000000E+00  0.00000E+00  9.000E+00
      21    -1     0     0   501   512  0.000000000E+00  0.000000000E+00 -1.098831401E+03  1.098831401E+03  0.000000000E+00  0.00000E+00  9.000E+00
      25     1     1     2     0     0 -1.113851461E+02  3.090874195E+02  3.226299214E+02  4.771338909E+02  1.250000000E+02  0.00000E+00  9.000E+00
      25     1     1     2     0     0  2.418582502E+02 -7.113710014E+01  2.827521664E+02  3.989106263E+02  1.250000000E+02  0.00000E+00  9.000E+00
      21     1     1     2   502   512 -1.304731041E+02 -2.379503194E+02 -9.443918389E+02  9.826085338E+02  1.078959322E-05  0.00000E+00  9.000E+00
#rwgt            2          11   4.6389245270916776E-003          10      420380           0
</event>
<event>
      5   9999  3.79277E-02  2.95646E+01 -1.00000E+00  1.53482E-01
      21    -1     0     0   502   501  0.000000000E+00  0.000000000E+00  5.059514107E+01  5.059514107E+01  0.000000000E+00  0.00000E+00  9.000E+00
      21    -1     0     0   501   511  0.000000000E+00  0.000000000E+00 -1.648631388E+03  1.648631388E+03  0.000000000E+00  0.00000E+00  9.000E+00
      25     1     1     2     0     0  1.198911551E+02  1.043886455E+02 -3.243920677E+02  3.822644268E+02  1.250000000E+02  0.00000E+00  9.000E+00
      25     1     1     2     0     0 -1.212604467E+02 -7.485572394E+01 -3.981775455E+02  4.409964094E+02  1.250000000E+02  0.00000E+00  9.000E+00
      21     1     1     2   502   511  1.369291652E+00 -2.953292157E+01 -8.754666332E+02  8.759656924E+02  1.078959322E-05  0.00000E+00  9.000E+00
#rwgt            1           1   3.4962182523279657E-002          10      420445           0
</event>
<event>
      5   9999  3.79277E-02  1.14678E+02 -1.00000E+00  1.21211E-01
      21    -1     0     0   502   501  0.000000000E+00  0.000000000E+00  6.782018260E+02  6.782018260E+02  0.000000000E+00  0.00000E+00  9.000E+00
      21    -1     0     0   512   502  0.000000000E+00  0.000000000E+00 -2.447449112E+03  2.447449112E+03  0.000000000E+00  0.00000E+00  9.000E+00
      25     1     1     2     0     0 -2.310480750E+02 -2.132592018E+02  2.859316216E+02  4.429950252E+02  1.250000000E+02  0.00000E+00  9.000E+00
      25     1     1     2     0     0  2.351180090E+02  9.865389966E+01  2.477624242E+02  3.768611003E+02  1.250000000E+02  0.00000E+00  9.000E+00
      21     1     1     2   512   501 -4.069934020E+00  1.146053022E+02 -2.302941332E+03  2.305794813E+03  0.000000000E+00  0.00000E+00  9.000E+00
#rwgt            1           1   3.1369023101649574E-002          10      420785           0
</event>
<event>
      5   9999  3.79277E-02  1.17334E+02 -1.00000E+00  1.20784E-01
      21    -1     0     0   511   501  0.000000000E+00  0.000000000E+00  2.579263961E+02  2.579263961E+02  0.000000000E+00  0.00000E+00  9.000E+00
      21    -1     0     0   501   502  0.000000000E+00  0.000000000E+00 -4.438925766E+02  4.438925766E+02  0.000000000E+00  0.00000E+00  9.000E+00
      25     1     1     2     0     0  1.453970616E+02 -7.210519602E+01  8.595984495E+01  2.221566109E+02  1.250000000E+02  0.00000E+00  9.000E+00
      25     1     1     2     0     0 -1.508402275E+02 -4.510285682E+01 -2.979995163E+02  3.594659283E+02  1.250000000E+02  0.00000E+00  9.000E+00
      21     1     1     2   511   502  5.443165878E+00  1.172080528E+02  2.607349079E+01  1.201964335E+02  2.523185073E-06  0.00000E+00  9.000E+00
#rwgt            1           1   4.4734478098055572E-002          10      420882           0
</event>
<event>
      5   9999  3.79277E-02  9.58042E+01 -1.00000E+00  1.24671E-01
      21    -1     0     0   502   501  0.000000000E+00  0.000000000E+00  1.651977932E+03  1.651977932E+03  0.000000000E+00  0.00000E+00  9.000E+00
      21    -1     0     0   512   502  0.000000000E+00  0.000000000E+00 -1.508654877E+02  1.508654877E+02  0.000000000E+00  0.00000E+00  9.000E+00
      25     1     1     2     0     0  1.142873489E+01  1.289795530E+02  1.317565819E+03  1.329801123E+03  1.250000000E+02  0.00000E+00  9.000E+00
      25     1     1     2     0     0 -9.789247197E+01 -8.771858814E+01  2.822362171E+02  3.354992832E+02  1.250000000E+02  0.00000E+00  9.000E+00
      21     1     1     2   512   501  8.646373707E+01 -4.126096488E+01 -9.868959135E+01  1.375430132E+02  4.672030912E-06  0.00000E+00  9.000E+00
#rwgt            1           1   4.1176670900327443E-002          10      420953           0
</event>
<event>
      5   9999  3.79277E-02  5.71215E+01 -1.00000E+00  1.35854E-01
      21    -1     0     0   511   501  0.000000000E+00  0.000000000E+00  2.321492066E+03  2.321492066E+03  0.000000000E+00  0.00000E+00  9.000E+00
      21    -1     0     0   501   502  0.000000000E+00  0.000000000E+00 -7.529524259E+01  7.529524259E+01  0.000000000E+00  0.00000E+00  9.000E+00
      25     1     1     2     0     0 -8.726672602E+01 -2.042589251E+02  2.551853910E+02  3.606685095E+02  1.250000000E+02  0.00000E+00  9.000E+00
      25     1     1     2     0     0  3.362233073E+01  1.846336892E+02  5.561831800E+02  6.001539720E+02  1.250000000E+02  0.00000E+00  9.000E+00
      21     1     1     2   511   502  5.364439529E+01  1.962523589E+01  1.434828253E+03  1.435964827E+03  2.642899792E-05  0.00000E+00  9.000E+00
#rwgt            1           1   3.3542401526273892E-002          10      421013           0
</event>
<event>
      5   9999  3.79277E-02  1.68350E+01 -1.00000E+00  1.72788E-01
      21    -1     0     0   512   501  0.000000000E+00  0.000000000E+00  8.729005758E+01  8.729005758E+01  0.000000000E+00  0.00000E+00  9.000E+00
      21    -1     0     0   501   502  0.000000000E+00  0.000000000E+00 -9.697054375E+02  9.697054375E+02  0.000000000E+00  0.00000E+00  9.000E+00
      25     1     1     2     0     0 -1.088922072E+02 -9.164737399E+01 -6.591878127E+02  6.858646560E+02  1.250000000E+02  0.00000E+00  9.000E+00
      25     1     1     2     0     0  1.057340491E+02  1.081834742E+02 -2.628837897E+02  3.280491428E+02  1.250000000E+02  0.00000E+00  9.000E+00
      21     1     1     2   512   502  3.158158129E+00 -1.653610019E+01  3.965622246E+01  4.308169626E+01  8.259061849E-07  0.00000E+00  9.000E+00
#rwgt            1           1   5.3871504301873548E-002          10      421131           0
</event>
<event>
      5   9999  3.79277E-02  2.89977E+01 -1.00000E+00  1.54072E-01
      21    -1     0     0   502   511  0.000000000E+00  0.000000000E+00  1.310310123E+02  1.310310123E+02  0.000000000E+00  0.00000E+00  9.000E+00
      21    -1     0     0   501   502  0.000000000E+00  0.000000000E+00 -3.449957654E+02  3.449957654E+02  0.000000000E+00  0.00000E+00  9.000E+00
      25     1     1     2     0     0  2.995036474E+01 -9.160837258E+00  4.282352623E+01  1.357932240E+02  1.250000000E+02  0.00000E+00  9.000E+00
      25     1     1     2     0     0 -1.556139391E+00  3.275952137E+00 -2.776494412E+02  3.045116839E+02  1.250000000E+02  0.00000E+00  9.000E+00
      21     1     1     2   501   511 -2.839422534E+01  5.884885121E+00  2.086116192E+01  3.572186981E+01  7.152557373E-07  0.00000E+00  9.000E+00
#rwgt            1           1   4.3870928343640633E-002          10      421425           0
</event>
<event>
      5   9999  3.79277E-02  3.83544E+01 -1.00000E+00  1.45981E-01
      21    -1     0     0   502   501  0.000000000E+00  0.000000000E+00  1.293521319E+03  1.293521319E+03  0.000000000E+00  0.00000E+00  9.000E+00
      21    -1     0     0   501   512  0.000000000E+00  0.000000000E+00 -6.584109174E+01  6.584109174E+01  0.000000000E+00  0.00000E+00  9.000E+00
      25     1     1     2     0     0  1.810838550E+02  6.997671428E+01  2.826322745E+02  3.649576765E+02  1.250000000E+02  0.00000E+00  9.000E+00
      25     1     1     2     0     0 -2.178728754E+02 -8.082247853E+01  8.818285823E+02  9.204604888E+02  1.250000000E+02  0.00000E+00  9.000E+00
      21     1     1     2   502   512  3.678902036E+01  1.084576425E+01  6.321937011E+01  7.394424507E+01  1.507891493E-06  0.00000E+00  9.000E+00
#rwgt            1           1   1.9151663253658645E-002          10      421505           0
</event>
<event>
      5   9999  3.79277E-02  3.53994E+00 -1.00000E+00  2.76635E-01
      21    -1     0     0   502   501  0.000000000E+00  0.000000000E+00  1.454215290E+02  1.454215290E+02  0.000000000E+00  0.00000E+00  9.000E+00
      21    -1     0     0   501   511  0.000000000E+00  0.000000000E+00 -2.787442910E+02  2.787442910E+02  0.000000000E+00  0.00000E+00  9.000E+00
      25     1     1     2     0     0 -1.421573528E+02  4.620601591E+01 -3.248391917E+01  1.975447136E+02  1.250000000E+02  0.00000E+00  9.000E+00
      25     1     1     2     0     0  1.445284428E+02 -4.883453544E+01 -9.306893948E+01  2.180828057E+02  1.250000000E+02  0.00000E+00  9.000E+00
      21     1     1     2   502   511 -2.371089969E+00  2.628519534E+00 -7.769903318E+00  8.538300777E+00  8.429369702E-08  0.00000E+00  9.000E+00
#rwgt            1           1   4.4414248726387634E-002          10      421589           0
</event>
<event>
      5   9999  3.79277E-02  1.05954E+01 -1.00000E+00  1.92898E-01
      21    -1     0     0   502   501  0.000000000E+00  0.000000000E+00  5.503171181E+02  5.503171181E+02  0.000000000E+00  0.00000E+00  9.000E+00
      21    -1     0     0   512   502  0.000000000E+00  0.000000000E+00 -1.551946575E+02  1.551946575E+02  0.000000000E+00  0.00000E+00  9.000E+00
      25     1     1     2     0     0  1.072702818E+02  1.767467505E+02  9.713082490E+01  2.603953231E+02  1.250000000E+02  0.00000E+00  9.000E+00
      25     1     1     2     0     0 -1.051662755E+02 -1.871311034E+02  3.290603184E+02  4.122907815E+02  1.250000000E+02  0.00000E+00  9.000E+00
      21     1     1     2   512   501 -2.104006287E+00  1.038435284E+01 -3.106868272E+01  3.282567094E+01  4.768371582E-07  0.00000E+00  9.000E+00
#rwgt            1           1   1.4596182227194285E-002          10      422098           0
</event>
<event>
      5   9999  3.79277E-02  1.34867E+02 -1.00000E+00  1.18254E-01
       2    -1     0     0   502     0  0.000000000E+00  0.000000000E+00  1.572429168E+03  1.572429168E+03  0.000000000E+00  0.00000E+00  9.000E+00
      21    -1     0     0   501   502  0.000000000E+00  0.000000000E+00 -9.615767293E+01  9.615767293E+01  0.000000000E+00  0.00000E+00  9.000E+00
      25     1     1     2     0     0  9.482628611E+01  9.638191703E+01  9.711117407E+02  9.884151513E+02  1.250000000E+02  0.00000E+00  9.000E+00
      25     1     1     2     0     0 -2.269830360E+02 -1.232852758E+02  2.097895871E+02  3.554676198E+02  1.250000000E+02  0.00000E+00  9.000E+00
       2     1     1     2   501     0  1.321567498E+02  2.690335872E+01  2.953701669E+02  3.247040695E+02  3.814697266E-06  0.00000E+00  9.000E+00
#rwgt            1           1   4.1141443925507379E-002          10      422375           0
</event>
<event>
      5   9999  3.79277E-02  3.10252E+01 -1.00000E+00  1.52033E-01
      21    -1     0     0   511   501  0.000000000E+00  0.000000000E+00  4.897443487E+02  4.897443487E+02  0.000000000E+00  0.00000E+00  9.000E+00
      21    -1     0     0   501   502  0.000000000E+00  0.000000000E+00 -1.641229394E+02  1.641229394E+02  0.000000000E+00  0.00000E+00  9.000E+00
      25     1     1     2     0     0 -1.373806775E+02  1.214018825E+02  1.824431073E+01  2.226425891E+02  1.250000000E+02  0.00000E+00  9.000E+00
      25     1     1     2     0     0  1.197283399E+02 -1.469157772E+02  1.530350901E+02  2.737952881E+02  1.250000000E+02  0.00000E+00  9.000E+00
      21     1     1     2   511   502  1.765233758E+01  2.551389471E+01  1.543420085E+02  1.574294109E+02  1.907348633E-06  0.00000E+00  9.000E+00
#rwgt            1           1  0.13349536294479469               10      422461           0
</event>
<event>
      5   9999  3.79277E-02  4.34151E+01 -1.00000E+00  1.42667E-01
      21    -1     0     0   502   501  0.000000000E+00  0.000000000E+00  1.923461063E+03  1.923461063E+03  0.000000000E+00  0.00000E+00  9.000E+00
      -5    -1     0     0     0   502  0.000000000E+00  0.000000000E+00 -2.578574705E+01  2.578574705E+01  0.000000000E+00  0.00000E+00  9.000E+00
      25     1     1     2     0     0 -7.032053142E+01  5.722424092E+01  1.557347357E+03  1.564984147E+03  1.250000000E+02  0.00000E+00  9.000E+00
      25     1     1     2     0     0  3.122167844E+01 -3.835228214E+01  2.699992668E+02  3.016128227E+02  1.250000000E+02  0.00000E+00  9.000E+00
      -5     1     1     2     0   501  3.909885299E+01 -1.887195877E+01  7.032869261E+01  8.264984051E+01  1.907348633E-06  0.00000E+00  9.000E+00
#rwgt            1           1  0.13267442084746792               10      422629           0
</event>
<event>
      5   9999  3.79277E-02  8.37486E+01 -1.00000E+00  1.27394E-01
      21    -1     0     0   502   501  0.000000000E+00  0.000000000E+00  1.654780604E+03  1.654780604E+03  0.000000000E+00  0.00000E+00  9.000E+00
      21    -1     0     0   511   502  0.000000000E+00  0.000000000E+00 -7.062140103E+01  7.062140103E+01  0.000000000E+00  0.00000E+00  9.000E+00
      25     1     1     2     0     0  9.185737389E+00 -1.743541652E+02  1.166486913E+03  1.186086199E+03  1.250000000E+02  0.00000E+00  9.000E+00
      25     1     1     2     0     0 -2.936958655E+01  9.307417603E+01  4.265699293E+02  4.550959014E+02  1.250000000E+02  0.00000E+00  9.000E+00
      21     1     1     2   511   501  2.018384916E+01  8.127998917E+01 -8.897639267E+00  8.421990496E+01  2.873413752E-06  0.00000E+00  9.000E+00
#rwgt            2          11   2.4637175452735687E-003          10      422734           0
</event>
<event>
      5   9999  3.79277E-02  1.52153E+01 -1.00000E+00  1.76803E-01
       1    -1     0     0   502     0  0.000000000E+00  0.000000000E+00  6.496501070E+02  6.496501070E+02  0.000000000E+00  0.00000E+00  9.000E+00
      21    -1     0     0   501   502  0.000000000E+00  0.000000000E+00 -9.400296136E+01  9.400296136E+01  0.000000000E+00  0.00000E+00  9.000E+00
      25     1     1     2     0     0 -7.463673828E+01 -6.466024623E+01  1.875019692E+02  2.460357262E+02  1.250000000E+02  0.00000E+00  9.000E+00
      25     1     1     2     0     0  8.697975326E+01  7.355711033E+01  4.620379647E+01  1.753166186E+02  1.250000000E+02  0.00000E+00  9.000E+00
       1     1     1     2   501     0 -1.234301498E+01 -8.896864103E+00  3.219413800E+02  3.223007235E+02  5.394796609E-06  0.00000E+00  9.000E+00
#rwgt            1           1   3.8645179396415832E-002          10      422754           0
</event>
<event>
      5   9999 -3.79277E-02  3.58093E+01 -1.00000E+00  1.47885E-01
      21    -1     0     0   511   501  0.000000000E+00  0.000000000E+00  7.538092951E+02  7.538092951E+02  0.000000000E+00  0.00000E+00  9.000E+00
      21    -1     0     0   501   502  0.000000000E+00  0.000000000E+00 -6.346339829E+01  6.346339829E+01  0.000000000E+00  0.00000E+00  9.000E+00
      25     1     1     2     0     0 -8.075974919E+01 -1.347161935E+02  4.147673825E+02  4.607901599E+02  1.250000000E+02  0.00000E+00  9.000E+00
      25     1     1     2     0     0  4.701005622E+01  1.227469650E+02  1.850271242E+02  2.591076986E+02  1.250000000E+02  0.00000E+00  9.000E+00
      21     1     1     2   511   502  3.374969297E+01  1.196922856E+01  9.055139012E+01  9.737483484E+01  1.348699152E-06  0.00000E+00  9.000E+00
#rwgt            1           1 -0.15666867606836191               10      423089           0
</event>
<event>
      5   9999  3.79277E-02  4.19438E+01 -1.00000E+00  1.43574E-01
      21    -1     0     0   502   501  0.000000000E+00  0.000000000E+00  5.912160337E+02  5.912160337E+02  0.000000000E+00  0.00000E+00  9.000E+00
      21    -1     0     0   501   512  0.000000000E+00  0.000000000E+00 -4.198968592E+02  4.198968592E+02  0.000000000E+00  0.00000E+00  9.000E+00
      25     1     1     2     0     0 -2.582555366E+01  1.239467693E+02  1.064897966E+02  2.073519655E+02  1.250000000E+02  0.00000E+00  9.000E+00
      25     1     1     2     0     0  8.273509783E+00 -8.585198878E+01  4.197456691E+02  4.463747772E+02  1.250000000E+02  0.00000E+00  9.000E+00
      21     1     1     2   502   512  1.755204387E+01 -3.809478048E+01 -3.549162912E+02  3.573861501E+02  3.814697266E-06  0.00000E+00  9.000E+00
#rwgt            1           1   4.4717491803300403E-002          10      423167           0
</event>
<event>
      5   9999  3.79277E-02  1.55495E+02 -1.00000E+00  1.15778E-01
      21    -1     0     0   502   501  0.000000000E+00  0.000000000E+00  4.807511465E+02  4.807511465E+02  0.000000000E+00  0.00000E+00  9.000E+00
      21    -1     0     0   501   511  0.000000000E+00  0.000000000E+00 -4.983974814E+02  4.983974814E+02  0.000000000E+00  0.00000E+00  9.000E+00
      25     1     1     2     0     0 -1.529511399E+02  1.468390604E+02  1.717748195E+02  3.001455471E+02  1.250000000E+02  0.00000E+00  9.000E+00
      25     1     1     2     0     0 -7.179835620E-01 -1.230796606E+02  1.962135097E+02  2.631992776E+02  1.250000000E+02  0.00000E+00  9.000E+00
      21     1     1     2   502   511  1.536691234E+02 -2.375939978E+01 -3.856346641E+02  4.158038032E+02  5.394796609E-06  0.00000E+00  9.000E+00
#rwgt            1           1   3.8326312600003958E-002          10      423323           0
</event>
<event>
      5   9999  3.79277E-02  2.29292E+01 -1.00000E+00  1.61616E-01
      21    -1     0     0   512   501  0.000000000E+00  0.000000000E+00  6.010848123E+02  6.010848123E+02  0.000000000E+00  0.00000E+00  9.000E+00
      21    -1     0     0   501   502  0.000000000E+00  0.000000000E+00 -8.834310468E+01  8.834310468E+01  0.000000000E+00  0.00000E+00  9.000E+00
      25     1     1     2     0     0  7.056886040E+01 -6.880338613E+01  1.573842466E+01  1.599580195E+02  1.250000000E+02  0.00000E+00  9.000E+00
      25     1     1     2     0     0 -8.489891872E+01  5.090379396E+01  4.418782577E+02  4.697663433E+02  1.250000000E+02  0.00000E+00  9.000E+00
      21     1     1     2   512   502  1.433005832E+01  1.789959217E+01  5.512502522E+01  5.970355414E+01  9.536743164E-07  0.00000E+00  9.000E+00
#rwgt            1           1   4.6869650164596176E-002          10      423400           0
</event>
<event>
      5   9999  3.79277E-02  4.84166E+01 -1.00000E+00  1.39878E-01
      21    -1     0     0   502   511  0.000000000E+00  0.000000000E+00  1.831933065E+02  1.831933065E+02  0.000000000E+00  0.00000E+00  9.000E+00
      21    -1     0     0   501   502  0.000000000E+00  0.000000000E+00 -2.409485974E+02  2.409485974E+02  0.000000000E+00  0.00000E+00  9.000E+00
      25     1     1     2     0     0 -1.044685150E+01 -1.054763239E+02  3.431887401E+01  1.674430552E+02  1.250000000E+02  0.00000E+00  9.000E+00
      25     1     1     2     0     0 -2.579760186E+01  7.337488620E+01 -1.290513139E+02  1.957769951E+02  1.250000000E+02  0.00000E+00  9.000E+00
      21     1     1     2   501   511  3.624445336E+01  3.210143773E+01  3.697714896E+01  6.092185363E+01  6.743495762E-07  0.00000E+00  9.000E+00
#rwgt            1           1   4.9242769080192109E-002          10      423614           0
</event>
<event>
      5   9999  3.79277E-02  1.46517E+02 -1.00000E+00  1.16799E-01
      21    -1     0     0   512   501  0.000000000E+00  0.000000000E+00  7.160238683E+02  7.160238683E+02  0.000000000E+00  0.00000E+00  9.000E+00
      21    -1     0     0   501   502  0.000000000E+00  0.000000000E+00 -1.718390869E+02  1.718390869E+02  0.000000000E+00  0.00000E+00  9.000E+00
      25     1     1     2     0     0 -5.986407297E+01  1.538819373E+02 -5.505460201E+01  2.142880470E+02  1.250000000E+02  0.00000E+00  9.000E+00
      25     1     1     2     0     0  7.350979753E+01 -8.002209351E+00  1.917323511E+02  2.405286264E+02  1.250000000E+02  0.00000E+00  9.000E+00
      21     1     1     2   512   502 -1.364572456E+01 -1.458797280E+02  4.075070323E+02  4.330462818E+02  5.394796609E-06  0.00000E+00  9.000E+00
#rwgt            2          11   1.3186805721133830E-003          10      423740           0
</event>
<event>
      5   9999  3.79277E-02  4.41053E+01 -1.00000E+00  1.42257E-01
       2    -1     0     0   502     0  0.000000000E+00  0.000000000E+00  2.513770401E+03  2.513770401E+03  0.000000000E+00  0.00000E+00  9.000E+00
      21    -1     0     0   501   502  0.000000000E+00  0.000000000E+00 -2.203998126E+02  2.203998126E+02  0.000000000E+00  0.00000E+00  9.000E+00
      25     1     1     2     0     0  3.305312732E+01 -1.739326312E+02  2.012591171E+02  2.957622383E+02  1.250000000E+02  0.00000E+00  9.000E+00
      25     1     1     2     0     0 -7.639113828E+01  1.821239404E+02 -9.394723608E+01  2.519043843E+02  1.250000000E+02  0.00000E+00  9.000E+00
       2     1     1     2   501     0  4.333801096E+01 -8.191309186E+00  2.186058707E+03  2.186503591E+03  3.051757812E-05  0.00000E+00  9.000E+00
#rwgt            1           1   4.2512343596363140E-002          10      423790           0
</event>
<event>
      5   9999  3.79277E-02  3.18526E+01 -1.00000E+00  1.51254E-01
      21    -1     0     0   502   511  0.000000000E+00  0.000000000E+00  2.468506632E+02  2.468506632E+02  0.000000000E+00  0.00000E+00  9.000E+00
      21    -1     0     0   501   502  0.000000000E+00  0.000000000E+00 -2.752291054E+02  2.752291054E+02  0.000000000E+00  0.00000E+00  9.000E+00
      25     1     1     2     0     0  6.999196151E+01  1.618982501E+02  5.375974068E+01  2.227667564E+02  1.250000000E+02  0.00000E+00  9.000E+00
      25     1     1     2     0     0 -4.652303472E+01 -1.403623397E+02 -1.360849195E+02  2.366644977E+02  1.250000000E+02  0.00000E+00  9.000E+00
      21     1     1     2   501   511 -2.346892679E+01 -2.153591039E+01  5.394673670E+01  6.264851444E+01  6.743495762E-07  0.00000E+00  9.000E+00
#rwgt            1           1   4.0570985700607701E-002          10      423871           0
</event>
<event>
      5   9999  3.79277E-02  3.99002E+01 -1.00000E+00  1.44907E-01
      21    -1     0     0   502   512  0.000000000E+00  0.000000000E+00  3.499405705E+02  3.499405705E+02  0.000000000E+00  0.00000E+00  9.000E+00
      21    -1     0     0   501   502  0.000000000E+00  0.000000000E+00 -7.583563709E+02  7.583563709E+02  0.000000000E+00  0.00000E+00  9.000E+00
      25     1     1     2     0     0 -5.381848394E+01  6.778033466E+01 -1.411237417E+02  2.074403853E+02  1.250000000E+02  0.00000E+00  9.000E+00
      25     1     1     2     0     0  2.843324443E+01 -3.699700131E+01 -5.751501885E+02  5.904235487E+02  1.250000000E+02  0.00000E+00  9.000E+00
      21     1     1     2   501   512  2.538523951E+01 -3.078333334E+01  3.078581298E+02  3.104330074E+02  5.394796609E-06  0.00000E+00  9.000E+00
#rwgt            1           1   5.5582032594000935E-002          10      424158           0
</event>
<event>
      5   9999  3.79277E-02  6.32051E+01 -1.00000E+00  1.33507E-01
      21    -1     0     0   502   501  0.000000000E+00  0.000000000E+00  5.074508968E+02  5.074508968E+02  0.000000000E+00  0.00000E+00  9.000E+00
      21    -1     0     0   501   511  0.000000000E+00  0.000000000E+00 -9.148792380E+01  9.148792380E+01  0.000000000E+00  0.00000E+00  9.000E+00
      25     1     1     2     0     0  6.257192050E+01  9.537257027E+01  5.616346482E+01  1.782989265E+02  1.250000000E+02  0.00000E+00  9.000E+00
      25     1     1     2     0     0 -4.714148393E+01 -3.407990919E+01  3.129201893E+02  3.419470787E+02  1.250000000E+02  0.00000E+00  9.000E+00
      21     1     1     2   502   511 -1.543043657E+01 -6.129266109E+01  4.687931891E+01  7.869281554E+01  1.168007728E-06  0.00000E+00  9.000E+00
#rwgt            1           1   3.8711537277544283E-002          10      424344           0
</event>
<event>
      5   9999  3.79277E-02  8.04673E+01 -1.00000E+00  1.28227E-01
      21    -1     0     0   502   512  0.000000000E+00  0.000000000E+00  3.307104122E+02  3.307104122E+02  0.000000000E+00  0.00000E+00  9.000E+00
      21    -1     0     0   501   502  0.000000000E+00  0.000000000E+00 -2.132459712E+02  2.132459712E+02  0.000000000E+00  0.00000E+00  9.000E+00
      25     1     1     2     0     0 -1.159676229E+02  6.933734760E+01  1.846598258E+01  1.849922967E+02  1.250000000E+02  0.00000E+00  9.000E+00
      25     1     1     2     0     0  5.204440548E+01 -1.182128049E+02 -5.264394842E+01  1.872946147E+02  1.250000000E+02  0.00000E+00  9.000E+00
      21     1     1     2   501   512  6.392321738E+01  4.887545730E+01  1.516424069E+02  1.716694720E+02  0.000000000E+00  0.00000E+00  9.000E+00
#rwgt            1           1   3.6456583728962079E-002          10      424400           0
</event>
<event>
      5   9999  3.79277E-02  1.69968E+02 -1.00000E+00  1.14282E-01
      21    -1     0     0   502   511  0.000000000E+00  0.000000000E+00  9.928377333E+01  9.928377333E+01  0.000000000E+00  0.00000E+00  9.000E+00
      21    -1     0     0   501   502  0.000000000E+00  0.000000000E+00 -1.798362370E+03  1.798362370E+03  0.000000000E+00  0.00000E+00  9.000E+00
      25     1     1     2     0     0 -1.070166622E+02 -1.646083197E+02 -7.477663612E+02  7.831526006E+02  1.250000000E+02  0.00000E+00  9.000E+00
      25     1     1     2     0     0  3.560550025E+01  3.188467585E+02 -8.488628182E+02  9.160371669E+02  1.250000000E+02  0.00000E+00  9.000E+00
      21     1     1     2   501   511  7.141116199E+01 -1.542384388E+02 -1.024494176E+02  1.984563761E+02  1.348699152E-06  0.00000E+00  9.000E+00
#rwgt            1           1   3.2683511612960278E-002          10      424482           0
</event>
<event>
      5   9999  3.79277E-02  3.45431E+01 -1.00000E+00  1.48905E-01
      -2    -1     0     0     0   501  0.000000000E+00  0.000000000E+00  8.372001317E+02  8.372001317E+02  0.000000000E+00  0.00000E+00  9.000E+00
      21    -1     0     0   501   502  0.000000000E+00  0.000000000E+00 -2.424324187E+02  2.424324187E+02  0.000000000E+00  0.00000E+00  9.000E+00
      25     1     1     2     0     0  1.766482508E+02  1.446084735E+02 -1.225029490E+01  2.605595610E+02  1.250000000E+02  0.00000E+00  9.000E+00
      25     1     1     2     0     0 -2.042453967E+02 -1.653840598E+02  9.535375053E+01  3.062440319E+02  1.250000000E+02  0.00000E+00  9.000E+00
      -2     1     1     2     0   502  2.759714599E+01  2.077558633E+01  5.116642574E+02  5.128289576E+02  5.394796609E-06  0.00000E+00  9.000E+00
#rwgt            1           1  0.33022891258557707               10      424619           0
</event>
<event>
      5   9999  3.79277E-02  1.24619E+01 -1.00000E+00  1.85320E-01
      21    -1     0     0   502   501  0.000000000E+00  0.000000000E+00  2.684680811E+02  2.684680811E+02  0.000000000E+00  0.00000E+00  9.000E+00
      21    -1     0     0   511   502  0.000000000E+00  0.000000000E+00 -2.962772793E+02  2.962772793E+02  0.000000000E+00  0.00000E+00  9.000E+00
      25     1     1     2     0     0 -1.560507665E+02  2.925512211E+00 -5.242685471E+01  2.067219762E+02  1.250000000E+02  0.00000E+00  9.000E+00
      25     1     1     2     0     0  1.664708491E+02 -9.760857084E+00  1.341080209E+02  2.478261068E+02  1.250000000E+02  0.00000E+00  9.000E+00
      21     1     1     2   511   501 -1.042008263E+01  6.835344873E+00 -1.094903643E+02  1.101972774E+02  1.348699152E-06  0.00000E+00  9.000E+00
#rwgt            1           1   4.2653326791758900E-002          10      424816           0
</event>
<event>
      5   9999  3.79277E-02  6.73458E+01 -1.00000E+00  1.32077E-01
      21    -1     0     0   502   501  0.000000000E+00  0.000000000E+00  4.851233781E+01  4.851233781E+01  0.000000000E+00  0.00000E+00  9.000E+00
      21    -1     0     0   512   502  0.000000000E+00  0.000000000E+00 -1.059306497E+03  1.059306497E+03  0.000000000E+00  0.00000E+00  9.000E+00
      25     1     1     2     0     0  1.180076020E+00 -1.021437766E+02 -1.360746526E+02  2.111304212E+02  1.250000000E+02  0.00000E+00  9.000E+00
      25     1     1     2     0     0  3.809806200E+00  3.498308826E+01 -5.869425452E+02  6.011363260E+02  1.250000000E+02  0.00000E+00  9.000E+00
      21     1     1     2   512   501 -4.989882220E+00  6.716068832E+01 -2.877769609E+02  2.955520872E+02  5.394796609E-06  0.00000E+00  9.000E+00
#rwgt            1           1   4.8554025913790412E-002          10      425041           0
</event>
<event>
      5   9999  3.79277E-02  1.60848E+01 -1.00000E+00  1.74574E-01
      21    -1     0     0   502   501  0.000000000E+00  0.000000000E+00  7.029766637E+01  7.029766637E+01  0.000000000E+00  0.00000E+00  9.000E+00
      21    -1     0     0   501   511  0.000000000E+00  0.000000000E+00 -9.193015204E+02  9.193015204E+02  0.000000000E+00  0.00000E+00  9.000E+00
      25     1     1     2     0     0 -4.060595327E+01  5.160023929E+01 -1.743850260E+02  2.243804034E+02  1.250000000E+02  0.00000E+00  9.000E+00
      25     1     1     2     0     0  5.627761465E+01 -4.797798902E+01 -7.149662324E+01  1.618821314E+02  1.250000000E+02  0.00000E+00  9.000E+00
      21     1     1     2   502   511 -1.567166138E+01 -3.622250272E+00 -6.031222048E+02  6.033366519E+02  1.321449896E-05  0.00000E+00  9.000E+00
#rwgt            1           1  0.10736821021568166               10      425166           0
</event>
<event>
      5   9999  3.79277E-02  4.31180E+01 -1.00000E+00  1.42847E-01
      21    -1     0     0   502   501  0.000000000E+00  0.000000000E+00  1.974288077E+02  1.974288077E+02  0.000000000E+00  0.00000E+00  9.000E+00
      21    -1     0     0   501   512  0.000000000E+00  0.000000000E+00 -2.241514056E+02  2.241514056E+02  0.000000000E+00  0.00000E+00  9.000E+00
      25     1     1     2     0     0 -1.121022073E+02  6.071017871E+01 -2.158268279E+01  1.798428283E+02  1.250000000E+02  0.00000E+00  9.000E+00
      25     1     1     2     0     0  1.490098026E+02 -3.841690568E+01  4.783724195E-01  1.982549085E+02  1.250000000E+02  0.00000E+00  9.000E+00
      21     1     1     2   502   512 -3.690759532E+01 -2.229327303E+01 -5.618287546E+00  4.348247658E+01  6.474721725E-07  0.00000E+00  9.000E+00
#rwgt            1           1   4.6442976119081103E-002          10      425352           0
</event>
<event>
      5   9999  3.79277E-02  5.84568E+01 -1.00000E+00  1.35311E-01
      21    -1     0     0   502   511  0.000000000E+00  0.000000000E+00  1.789189964E+02  1.789189964E+02  0.000000000E+00  0.00000E+00  9.000E+00
      21    -1     0     0   501   502  0.000000000E+00  0.000000000E+00 -4.469091470E+02  4.469091470E+02  0.000000000E+00  0.00000E+00  9.000E+00
      25     1     1     2     0     0 -1.481354871E+02  1.739485066E+02 -2.165363456E+02  3.386963160E+02  1.250000000E+02  0.00000E+00  9.000E+00
      25     1     1     2     0     0  1.104872353E+02 -1.292293054E+02 -7.521397848E+01  2.240307682E+02  1.250000000E+02  0.00000E+00  9.000E+00
      21     1     1     2   501   511  3.764825181E+01 -4.471920118E+01  2.376017349E+01  6.310105913E+01  9.536743164E-07  0.00000E+00  9.000E+00
#rwgt            1           1   3.5564838468534428E-002          10      425455           0
</event>
<event>
      5   9999  3.79277E-02  1.25391E+02 -1.00000E+00  1.19564E-01
      21    -1     0     0   502   512  0.000000000E+00  0.000000000E+00  2.395713288E+02  2.395713288E+02  0.000000000E+00  0.00000E+00  9.000E+00
      21    -1     0     0   501   502  0.000000000E+00  0.000000000E+00 -5.671830024E+02  5.671830024E+02  0.000000000E+00  0.00000E+00  9.000E+00
      25     1     1     2     0     0  8.484073140E+01 -8.791541754E+01  2.509844843E+01  1.765842645E+02  1.250000000E+02  0.00000E+00  9.000E+00
      25     1     1     2     0     0 -1.929991876E+02  2.447545295E+01 -4.261562492E+02  4.848524342E+02  1.250000000E+02  0.00000E+00  9.000E+00
      21     1     1     2   501   512  1.081584562E+02  6.343996459E+01  7.344612720E+01  1.453176326E+02  2.523185073E-06  0.00000E+00  9.000E+00
#rwgt            1           1   3.8953904744229779E-002          10      425604           0
</event>
<event>
      5   9999  3.79277E-02  1.31764E+01 -1.00000E+00  1.82857E-01
      21    -1     0     0   502   501  0.000000000E+00  0.000000000E+00  5.592000140E+01  5.592000140E+01  0.000000000E+00  0.00000E+00  9.000E+00
      21    -1     0     0   511   502  0.000000000E+00  0.000000000E+00 -5.531751128E+02  5.531751128E+02  0.000000000E+00  0.00000E+00  9.000E+00
      25     1     1     2     0     0 -7.635466126E+01 -1.360508344E+01 -3.606413236E+02  3.894897905E+02  1.250000000E+02  0.00000E+00  9.000E+00
      25     1     1     2     0     0  8.367035412E+01  2.456396906E+01 -1.042282963E+02  1.846419629E+02  1.250000000E+02  0.00000E+00  9.000E+00
      21     1     1     2   511   501 -7.315692854E+00 -1.095888562E+01 -3.238549150E+01  3.496336077E+01  4.768371582E-07  0.00000E+00  9.000E+00
#rwgt            1           1   3.0816360451325492E-002          10      425664           0
</event>
<event>
      5   9999  3.79277E-02  1.81940E+02 -1.00000E+00  1.13165E-01
      21    -1     0     0   502   501  0.000000000E+00  0.000000000E+00  5.652343573E+01  5.652343573E+01  0.000000000E+00  0.00000E+00  9.000E+00
       2    -1     0     0   501     0  0.000000000E+00  0.000000000E+00 -3.355207153E+03  3.355207153E+03  0.000000000E+00  0.00000E+00  9.000E+00
      25     1     1     2     0     0  1.424998629E+02  1.080798546E+01 -2.203265779E+02  2.908467369E+02  1.250000000E+02  0.00000E+00  9.000E+00
      25     1     1     2     0     0 -6.306317246E+01 -1.744908400E+02 -6.846879545E+02  7.203100804E+02  1.250000000E+02  0.00000E+00  9.000E+00
       2     1     1     2   502     0 -7.943669047E+01  1.636828546E+02 -2.393669184E+03  2.400573771E+03  0.000000000E+00  0.00000E+00  9.000E+00
#rwgt            2          13   8.6011102960163158E-004          10      425895           0
</event>
<event>
      5   9999  3.79277E-02  4.41129E+01 -1.00000E+00  1.42252E-01
      21    -1     0     0   511   501  0.000000000E+00  0.000000000E+00  3.739028651E+02  3.739028651E+02  0.000000000E+00  0.00000E+00  9.000E+00
      21    -1     0     0   501   502  0.000000000E+00  0.000000000E+00 -1.341841496E+03  1.341841496E+03  0.000000000E+00  0.00000E+00  9.000E+00
      25     1     1     2     0     0 -4.992556536E+01 -1.929702463E+02 -3.875971111E+02  4.534165839E+02  1.250000000E+02  0.00000E+00  9.000E+00
      25     1     1     2     0     0  1.057605788E+01  1.730311653E+02 -9.074399695E+02  9.322681671E+02  1.250000000E+02  0.00000E+00  9.000E+00
      21     1     1     2   511   502  3.934950748E+01  1.993908100E+01  3.270984495E+02  3.300596103E+02  8.529922400E-06  0.00000E+00  9.000E+00
#rwgt            1           1   4.2178766900124065E-002          10      426019           0
</event>
<event>
      5   9999  3.79277E-02  9.93740E+01 -1.00000E+00  1.23951E-01
      21    -1     0     0   502   501  0.000000000E+00  0.000000000E+00  5.689529974E+01  5.689529974E+01  0.000000000E+00  0.00000E+00  9.000E+00
      21    -1     0     0   512   502  0.000000000E+00  0.000000000E+00 -1.291834732E+03  1.291834732E+03  0.000000000E+00  0.00000E+00  9.000E+00
      25     1     1     2     0     0  1.090082501E+01  2.953665235E+01 -6.235932750E+01  1.431954173E+02  1.250000000E+02  0.00000E+00  9.000E+00
      25     1     1     2     0     0 -6.596113195E+01 -1.122624442E+02 -7.695723911E+02  7.904558131E+02  1.250000000E+02  0.00000E+00  9.000E+00
      21     1     1     2   512   501  5.506030694E+01  8.272579180E+01 -4.030077135E+02  4.150788011E+02  0.000000000E+00  0.00000E+00  9.000E+00
#rwgt            1           1   2.5046461553953930E-002          10      426127           0
</event>
<event>
      5   9999  3.79277E-02  1.76668E+01 -1.00000E+00  1.70940E-01
      21    -1     0     0   502   501  0.000000000E+00  0.000000000E+00  1.337705588E+02  1.337705588E+02  0.000000000E+00  0.00000E+00  9.000E+00
      21    -1     0     0   511   502  0.000000000E+00  0.000000000E+00 -3.837627119E+02  3.837627119E+02  0.000000000E+00  0.00000E+00  9.000E+00
      25     1     1     2     0     0 -5.612770561E+01 -1.253060319E+02 -3.575806256E+01  1.890914065E+02  1.250000000E+02  0.00000E+00  9.000E+00
      25     1     1     2     0     0  7.377563663E+01  1.261233620E+02 -1.075851579E+02  2.203395407E+02  1.250000000E+02  0.00000E+00  9.000E+00
      21     1     1     2   511   501 -1.764793102E+01 -8.173301387E-01 -1.066489328E+02  1.081023235E+02  1.907348633E-06  0.00000E+00  9.000E+00
#rwgt            1           1   4.1518725328208939E-002          10      426180           0
</event>
<event>
      5   9999  3.79277E-02  7.68903E+01 -1.00000E+00  1.29188E-01
      21    -1     0     0   502   501  0.000000000E+00  0.000000000E+00  7.411866966E+02  7.411866966E+02  0.000000000E+00  0.00000E+00  9.000E+00
      21    -1     0     0   501   512  0.000000000E+00  0.000000000E+00 -1.447207482E+02  1.447207482E+02  0.000000000E+00  0.00000E+00  9.000E+00
      25     1     1     2     0     0 -6.112181283E+01 -1.928974621E+02  5.002484792E+02  5.539123106E+02  1.250000000E+02  0.00000E+00  9.000E+00
      25     1     1     2     0     0 -2.597737240E+00  1.498633396E+02  1.430370770E+02  2.419718459E+02  1.250000000E+02  0.00000E+00  9.000E+00
      21     1     1     2   502   512  6.371955007E+01  4.303412251E+01 -4.681960785E+01  9.002328832E+01  1.784161275E-06  0.00000E+00  9.000E+00
#rwgt            1           1   3.9226574278607200E-002          10      426338           0
</event>
<event>
      5   9999  3.79277E-02  1.25355E+01 -1.00000E+00  1.85056E-01
      21    -1     0     0   502   501  0.000000000E+00  0.000000000E+00  3.514172695E+02  3.514172695E+02  0.000000000E+00  0.00000E+00  9.000E+00
      21    -1     0     0   511   502  0.000000000E+00  0.000000000E+00 -1.595851047E+02  1.595851047E+02  0.000000000E+00  0.00000E+00  9.000E+00
      25     1     1     2     0     0 -2.837651857E+01 -1.085517294E+02  2.682947862E+02  3.165371970E+02  1.250000000E+02  0.00000E+00  9.000E+00
      25     1     1     2     0     0  3.924673036E+01  1.023085050E+02 -7.007991777E+01  1.803982564E+02  1.250000000E+02  0.00000E+00  9.000E+00
      21     1     1     2   511   501 -1.087021178E+01  6.243224411E+00 -6.382703688E+00  1.406692083E+01  8.429369702E-08  0.00000E+00  9.000E+00
#rwgt            1           1   3.6969687947308809E-002          10      426406           0
</event>
<event>
      5   9999  3.79277E-02  1.07187E+02 -1.00000E+00  1.22487E-01
      21    -1     0     0   502   512  0.000000000E+00  0.000000000E+00  3.288568611E+02  3.288568611E+02  0.000000000E+00  0.00000E+00  9.000E+00
      21    -1     0     0   501   502  0.000000000E+00  0.000000000E+00 -3.400950716E+02  3.400950716E+02  0.000000000E+00  0.00000E+00  9.000E+00
      25     1     1     2     0     0 -4.860097354E+01  2.263040112E+01  5.037030672E+01  1.450391584E+02  1.250000000E+02  0.00000E+00  9.000E+00
      25     1     1     2     0     0  9.603210848E+01  7.349144153E+01 -2.515470117E+02  3.058170318E+02  1.250000000E+02  0.00000E+00  9.000E+00
      21     1     1     2   501   512 -4.743113494E+01 -9.612184265E+01  1.899384944E+02  2.180957424E+02  2.697398305E-06  0.00000E+00  9.000E+00
#rwgt            1           1   3.9614557604489495E-002          10      426678           0
</event>
<event>
      5   9999  3.79277E-02  3.57666E+01 -1.00000E+00  1.47919E-01
      21    -1     0     0   502   501  0.000000000E+00  0.000000000E+00  4.539317409E+02  4.539317409E+02  0.000000000E+00  0.00000E+00  9.000E+00
      21    -1     0     0   511   502  0.000000000E+00  0.000000000E+00 -3.360972841E+02  3.360972841E+02  0.000000000E+00  0.00000E+00  9.000E+00
      25     1     1     2     0     0  5.236919071E+01  2.474957933E+01 -7.665286263E+01  1.576570175E+02  1.250000000E+02  0.00000E+00  9.000E+00
      25     1     1     2     0     0 -8.367817948E+01 -4.204104450E+01  3.970555904E+02  4.266703986E+02  1.250000000E+02  0.00000E+00  9.000E+00
      21     1     1     2   511   501  3.130898877E+01  1.729146517E+01 -2.025682709E+02  2.057016090E+02  0.000000000E+00  0.00000E+00  9.000E+00
#rwgt            1           1   4.6441084641306404E-002          10      426761           0
</event>
<event>
      5   9999 -3.79277E-02  2.15057E+01 -1.00000E+00  1.63809E-01
      21    -1     0     0   502   501  0.000000000E+00  0.000000000E+00  6.979913935E+02  6.979913935E+02  0.000000000E+00  0.00000E+00  9.000E+00
      21    -1     0     0   501   512  0.000000000E+00  0.000000000E+00 -5.671272484E+02  5.671272484E+02  0.000000000E+00  0.00000E+00  9.000E+00
      25     1     1     2     0     0  4.800708105E+01  1.125499680E+02  6.130491741E+02  6.375158547E+02  1.250000000E+02  0.00000E+00  9.000E+00
      25     1     1     2     0     0 -2.786811935E+01 -1.050055887E+02 -2.217623532E+01  1.670915652E+02  1.250000000E+02  0.00000E+00  9.000E+00
      21     1     1     2   502   512 -2.013896169E+01 -7.544379261E+00 -4.600087936E+02  4.605112221E+02  5.394796609E-06  0.00000E+00  9.000E+00
#rwgt            1           1 -0.11275861760443297               10      426874           0
</event>
<event>
      5   9999  3.79277E-02  1.12534E+02 -1.00000E+00  1.21564E-01
      21    -1     0     0   502   501  0.000000000E+00  0.000000000E+00  4.237420709E+02  4.237420709E+02  0.000000000E+00  0.00000E+00  9.000E+00
       1    -1     0     0   501     0  0.000000000E+00  0.000000000E+00 -1.889073896E+03  1.889073896E+03  0.000000000E+00  0.00000E+00  9.000E+00
      25     1     1     2     0     0  2.190480698E+01 -8.199274018E+01  3.619585456E+02  3.922264891E+02  1.250000000E+02  0.00000E+00  9.000E+00
      25     1     1     2     0     0 -8.916116202E+01 -8.232427199E+00 -8.700652214E+01  1.766709387E+02  1.250000000E+02  0.00000E+00  9.000E+00
       1     1     1     2   502     0  6.725635504E+01  9.022516738E+01 -1.740283849E+03  1.743918539E+03  2.157918644E-05  0.00000E+00  9.000E+00
#rwgt            1           1   2.7868134691581482E-002          10      427260           0
</event>
<event>
      5   9999  3.79277E-02  3.46369E+01 -1.00000E+00  1.48827E-01
      21    -1     0     0   502   511  0.000000000E+00  0.000000000E+00  1.851298736E+03  1.851298736E+03  0.000000000E+00  0.00000E+00  9.000E+00
      21    -1     0     0   501   502  0.000000000E+00  0.000000000E+00 -2.565259607E+01  2.565259607E+01  0.000000000E+00  0.00000E+00  9.000E+00
      25     1     1     2     0     0  3.027613680E+01  3.742814197E+01  1.128429759E+03  1.136352160E+03  1.250000000E+02  0.00000E+00  9.000E+00
      25     1     1     2     0     0 -5.356676163E+01 -1.179099866E+01  1.997996038E+02  2.419779066E+02  1.250000000E+02  0.00000E+00  9.000E+00
      21     1     1     2   501   511  2.329062483E+01 -2.563714332E+01  4.974167777E+02  4.986212661E+02  5.394796609E-06  0.00000E+00  9.000E+00
#rwgt            1           1   6.2539582566012761E-002          10      427423           0
</event>
<event>
      5   9999 -4.30286E-02  2.06858E+01 -1.00000E+00  1.65170E-01
      21    -1     0     0   512   501  0.000000000E+00  0.000000000E+00  1.442487094E+02  1.442487094E+02  0.000000000E+00  0.00000E+00  9.000E+00
      21    -1     0     0   501   502  0.000000000E+00  0.000000000E+00 -4.321864337E+02  4.321864337E+02  0.000000000E+00  0.00000E+00  9.000E+00
      25     1     1     2     0     0 -1.215664993E+02  1.456577081E+02 -7.993439313E+01  2.408507606E+02  1.250000000E+02  0.00000E+00  9.000E+00
      25     1     1     2     0     0  1.234635902E+02 -1.662563439E+02 -1.980768124E+02  3.126401343E+02  1.250000000E+02  0.00000E+00  9.000E+00
      21     1     1     2   512   502 -1.897090928E+00  2.059863580E+01 -9.926518777E+00  2.294424820E+01  2.064765462E-07  0.00000E+00  9.000E+00
#rwgt            1           1 -0.38359257557852738               10      427578           0
</event>
<event>
      5   9999  3.79277E-02  7.09919E+01 -1.00000E+00  1.30912E-01
       2    -1     0     0   502     0  0.000000000E+00  0.000000000E+00  1.743914419E+03  1.743914419E+03  0.000000000E+00  0.00000E+00  9.000E+00
      21    -1     0     0   501   502  0.000000000E+00  0.000000000E+00 -6.745563442E+02  6.745563442E+02  0.000000000E+00  0.00000E+00  9.000E+00
      25     1     1     2     0     0  3.187753714E+02  2.209660640E+02 -2.661549088E+02  4.867311109E+02  1.250000000E+02  0.00000E+00  9.000E+00
      25     1     1     2     0     0 -3.884747974E+02 -2.344508051E+02 -1.109431927E+02  4.835423873E+02  1.250000000E+02  0.00000E+00  9.000E+00
       2     1     1     2   501     0  6.969942604E+01  1.348474114E+01  1.446456177E+03  1.448197265E+03  1.525878906E-05  0.00000E+00  9.000E+00
#rwgt            1           1   2.6891372201334675E-002          10      427941           0
</event>
<event>
      5   9999  3.79277E-02  2.82694E+01 -1.00000E+00  1.54854E-01
      21    -1     0     0   502   501  0.000000000E+00  0.000000000E+00  3.899964507E+02  3.899964507E+02  0.000000000E+00  0.00000E+00  9.000E+00
      21    -1     0     0   511   502  0.000000000E+00  0.000000000E+00 -1.234886683E+02  1.234886683E+02  0.000000000E+00  0.00000E+00  9.000E+00
      25     1     1     2     0     0 -2.749658349E+01  1.042573971E+02  1.869018464E+01  1.661324470E+02  1.250000000E+02  0.00000E+00  9.000E+00
      25     1     1     2     0     0  5.240119988E+01 -1.176334424E+02  2.605261967E+02  3.163580435E+02  1.250000000E+02  0.00000E+00  9.000E+00
      21     1     1     2   511   501 -2.490461640E+01  1.337604531E+01 -1.270859892E+01  3.099462845E+01  6.078504936E-07  0.00000E+00  9.000E+00
#rwgt            1           1   4.4365390401781085E-002          10      428117           0
</event>
<event>
      5   9999  3.79277E-02  5.85295E+01 -1.00000E+00  1.35282E-01
       2    -1     0     0   502     0  0.000000000E+00  0.000000000E+00  1.171918589E+03  1.171918589E+03  0.000000000E+00  0.00000E+00  9.000E+00
      21    -1     0     0   501   502  0.000000000E+00  0.000000000E+00 -4.533374517E+01  4.533374517E+01  0.000000000E+00  0.00000E+00  9.000E+00
      25     1     1     2     0     0  2.095840579E+01  5.983988147E+01  1.239919206E+02  1.871338093E+02  1.250000000E+02  0.00000E+00  9.000E+00
      25     1     1     2     0     0  3.749448415E+01 -5.684561519E+01  3.978173870E+02  4.225173768E+02  1.250000000E+02  0.00000E+00  9.000E+00
       2     1     1     2   501     0 -5.845288994E+01 -2.994266278E+00  6.047755362E+02  6.076011481E+02  1.078959322E-05  0.00000E+00  9.000E+00
#rwgt            1           1   4.0375337907920313E-002          10      428265           0
</event>
<event>
      5   9999  3.79277E-02  5.95208E+01 -1.00000E+00  1.34890E-01
      21    -1     0     0   502   501  0.000000000E+00  0.000000000E+00  1.907781704E+02  1.907781704E+02  0.000000000E+00  0.00000E+00  9.000E+00
      21    -1     0     0   501   511  0.000000000E+00  0.000000000E+00 -2.660865705E+02  2.660865705E+02  0.000000000E+00  0.00000E+00  9.000E+00
      25     1     1     2     0     0 -1.380466670E+02  8.471174487E+01 -9.722940786E+01  2.265204621E+02  1.250000000E+02  0.00000E+00  9.000E+00
      25     1     1     2     0     0  1.007922106E+02 -3.829156191E+01  3.650043135E+01  1.690638782E+02  1.250000000E+02  0.00000E+00  9.000E+00
      21     1     1     2   502   511  3.725445632E+01 -4.642018295E+01 -1.457942356E+01  6.128040056E+01  8.259061849E-07  0.00000E+00  9.000E+00
#rwgt            1           1  0.13284153586264749               10      428335           0
</event>
<event>
      5   9999  3.79277E-02  5.18734E+01 -1.00000E+00  1.38170E-01
      21    -1     0     0   512   501  0.000000000E+00  0.000000000E+00  4.000693765E+02  4.000693765E+02  0.000000000E+00  0.00000E+00  9.000E+00
      21    -1     0     0   501   502  0.000000000E+00  0.000000000E+00 -2.677200843E+02  2.677200843E+02  0.000000000E+00  0.00000E+00  9.000E+00
      25     1     1     2     0     0  6.022481252E+01 -1.887570654E+02  9.563155626E+01  2.530348836E+02  1.250000000E+02  0.00000E+00  9.000E+00
      25     1     1     2     0     0 -4.722155058E+01  1.385398954E+02 -1.351764577E+02  2.352038524E+02  1.250000000E+02  0.00000E+00  9.000E+00
      21     1     1     2   512   502 -1.300326194E+01  5.021716998E+01  1.718941936E+02  1.795507248E+02  1.907348633E-06  0.00000E+00  9.000E+00
#rwgt            1           1   4.1395011796171097E-002          10      428406           0
</event>
<event>
      5   9999  3.79277E-02  1.54679E+01 -1.00000E+00  1.76136E-01
      21    -1     0     0   502   501  0.000000000E+00  0.000000000E+00  9.267357085E+02  9.267357085E+02  0.000000000E+00  0.00000E+00  9.000E+00
      21    -1     0     0   511   502  0.000000000E+00  0.000000000E+00 -6.017092223E+01  6.017092223E+01  0.000000000E+00  0.00000E+00  9.000E+00
      25     1     1     2     0     0 -2.234597405E+01 -1.562767886E+02  6.038552472E+02  6.365437430E+02  1.250000000E+02  0.00000E+00  9.000E+00
      25     1     1     2     0     0  2.863796999E+01  1.704071833E+02  2.567835235E+02  3.337986210E+02  1.250000000E+02  0.00000E+00  9.000E+00
      21     1     1     2   511   501 -6.291995934E+00 -1.413039478E+01  5.926015518E+00  1.656426664E+01  4.298152060E-07  0.00000E+00  9.000E+00
#rwgt            1           1   3.1602708443514510E-002          10      428547           0
</event>
<event>
      5   9999  3.79277E-02  1.12201E+01 -1.00000E+00  1.90150E-01
      21    -1     0     0   512   501  0.000000000E+00  0.000000000E+00  2.007031608E+03  2.007031608E+03  0.000000000E+00  0.00000E+00  9.000E+00
      21    -1     0     0   501   502  0.000000000E+00  0.000000000E+00 -1.654180857E+03  1.654180857E+03  0.000000000E+00  0.00000E+00  9.000E+00
      25     1     1     2     0     0 -1.316161456E+02 -1.323618426E+02 -7.415216594E+02  7.748043872E+02  1.250000000E+02  0.00000E+00  9.000E+00
      25     1     1     2     0     0  1.210780599E+02  1.285095373E+02 -8.829440218E+02  9.090598128E+02  1.250000000E+02  0.00000E+00  9.000E+00
      21     1     1     2   512   502  1.053808566E+01  3.852305221E+00  1.977316431E+03  1.977348265E+03  3.051757812E-05  0.00000E+00  9.000E+00
#rwgt            1           1   3.5468414471003004E-002          10      428815           0
</event>
<event>
      5   9999  3.79277E-02  6.76276E+01 -1.00000E+00  1.31984E-01
      21    -1     0     0   511   501  0.000000000E+00  0.000000000E+00  9.603168567E+02  9.603168567E+02  0.000000000E+00  0.00000E+00  9.000E+00
      21    -1     0     0   501   502  0.000000000E+00  0.000000000E+00 -1.326570599E+02  1.326570599E+02  0.000000000E+00  0.00000E+00  9.000E+00
      25     1     1     2     0     0 -2.487771979E+01  2.211545091E+02  6.423054735E+02  6.911653486E+02  1.250000000E+02  0.00000E+00  9.000E+00
      25     1     1     2     0     0 -3.642398050E+01 -1.925958245E+02  3.259557937E+01  2.347495043E+02  1.250000000E+02  0.00000E+00  9.000E+00
      21     1     1     2   511   502  6.130170029E+01 -2.855868460E+01  1.527587439E+02  1.670590637E+02  2.697398305E-06  0.00000E+00  9.000E+00
#rwgt            1           1  0.11066125789505772               10      429102           0
</event>
<event>
      5   9999  3.79277E-02  3.22780E+01 -1.00000E+00  1.50864E-01
      21    -1     0     0   502   501  0.000000000E+00  0.000000000E+00  2.771930611E+03  2.771930611E+03  0.000000000E+00  0.00000E+00  9.000E+00
      21    -1     0     0   512   502  0.000000000E+00  0.000000000E+00 -1.656283046E+01  1.656283046E+01  0.000000000E+00  0.00000E+00  9.000E+00
      25     1     1     2     0     0 -1.179004505E+02 -1.325613368E+01  1.904841284E+03  1.912621645E+03  1.250000000E+02  0.00000E+00  9.000E+00
      25     1     1     2     0     0  1.121538580E+02  4.501849771E+01  7.636412308E+02  7.831845775E+02  1.250000000E+02  0.00000E+00  9.000E+00
      21     1     1     2   512   501  5.746592450E+00 -3.176236403E+01  8.688526649E+01  9.268721933E+01  1.651812370E-06  0.00000E+00  9.000E+00
#rwgt            1           1   1.5982014675416090E-002          10      429192           0
</event>
<event>
      5   9999  3.79277E-02  7.69563E+01 -1.00000E+00  1.29170E-01
      21    -1     0     0   502   501  0.000000000E+00  0.000000000E+00  5.477696361E+02  5.477696361E+02  0.000000000E+00  0.00000E+00  9.000E+00
      21    -1     0     0   501   511  0.000000000E+00  0.000000000E+00 -1.202689793E+02  1.202689793E+02  0.000000000E+00  0.00000E+00  9.000E+00
      25     1     1     2     0     0  1.662043812E+01  6.662970208E+01  1.479072319E+01  1.433859186E+02  1.250000000E+02  0.00000E+00  9.000E+00
      25     1     1     2     0     0 -4.571947922E+01  4.612968540E+00  4.261997740E+02  4.465230091E+02  1.250000000E+02  0.00000E+00  9.000E+00
      21     1     1     2   502   511  2.909904110E+01 -7.124267063E+01 -1.348984038E+01  7.812968773E+01  1.973264856E-06  0.00000E+00  9.000E+00
#rwgt            2          11   1.7472573553878629E-003          10      429303           0
</event>
<event>
      5   9999  3.79277E-02  1.98408E+02 -1.00000E+00  1.11775E-01
      21    -1     0     0   502   512  0.000000000E+00  0.000000000E+00  2.810808971E+02  2.810808971E+02  0.000000000E+00  0.00000E+00  9.000E+00
      21    -1     0     0   501   502  0.000000000E+00  0.000000000E+00 -4.108339777E+02  4.108339777E+02  0.000000000E+00  0.00000E+00  9.000E+00
      25     1     1     2     0     0 -1.620546462E+02  1.556553684E+02 -4.844546484E+01  2.616529479E+02  1.250000000E+02  0.00000E+00  9.000E+00
      25     1     1     2     0     0  1.661559215E+02  4.271064222E+01 -9.248411270E+01  2.315389823E+02  1.250000000E+02  0.00000E+00  9.000E+00
      21     1     1     2   501   512 -4.101275376E+00 -1.983660106E+02  1.117649700E+01  1.987229446E+02  3.446777414E-06  0.00000E+00  9.000E+00
#rwgt            1           1   4.0681714088201225E-002          10      429473           0
</event>
<event>
      5   9999  3.79277E-02  1.22204E+02 -1.00000E+00  1.20034E-01
      21    -1     0     0   502   501  0.000000000E+00  0.000000000E+00  1.602945084E+03  1.602945084E+03  0.000000000E+00  0.00000E+00  9.000E+00
      21    -1     0     0   511   502  0.000000000E+00  0.000000000E+00 -7.917286925E+02  7.917286925E+02  0.000000000E+00  0.00000E+00  9.000E+00
      25     1     1     2     0     0 -1.724626485E+01 -1.194406766E+02  1.022809137E+03  1.037461825E+03  1.250000000E+02  0.00000E+00  9.000E+00
      25     1     1     2     0     0  3.560590903E+01  2.402572549E+02  5.349911380E+02  6.006928059E+02  1.250000000E+02  0.00000E+00  9.000E+00
      21     1     1     2   511   501 -1.835964418E+01 -1.208165783E+02 -7.465838834E+02  7.565191452E+02  1.525878906E-05  0.00000E+00  9.000E+00
#rwgt            1           1   5.7263570405634026E-002          10      429543           0
</event>
<event>
      5   9999  3.79277E-02  6.00632E+01 -1.00000E+00  1.34679E-01
      21    -1     0     0   502   512  0.000000000E+00  0.000000000E+00  4.721352296E+02  4.721352296E+02  0.000000000E+00  0.00000E+00  9.000E+00
      21    -1     0     0   501   502  0.000000000E+00  0.000000000E+00 -1.029766671E+02  1.029766671E+02  0.000000000E+00  0.00000E+00  9.000E+00
      25     1     1     2     0     0  1.128939524E+02 -6.427509763E+01  1.661286564E+02  2.451531422E+02  1.250000000E+02  0.00000E+00  9.000E+00
      25     1     1     2     0     0 -1.534370283E+02  1.995983704E+01  1.425217768E+02  2.447013969E+02  1.250000000E+02  0.00000E+00  9.000E+00
      21     1     1     2   501   512  4.054307597E+01  4.431526059E+01  6.050812933E+01  8.525735771E+01  1.168007728E-06  0.00000E+00  9.000E+00
#rwgt            1           1   4.1029413469487228E-002          10      429624           0
</event>
<event>
      5   9999  3.79277E-02  1.08091E+01 -1.00000E+00  1.91931E-01
      21    -1     0     0   502   501  0.000000000E+00  0.000000000E+00  2.346205590E+01  2.346205590E+01  0.000000000E+00  0.00000E+00  9.000E+00
      21    -1     0     0   511   502  0.000000000E+00  0.000000000E+00 -1.904124100E+03  1.904124100E+03  0.000000000E+00  0.00000E+00  9.000E+00
      25     1     1     2     0     0  3.661308191E+01  1.296079656E+02 -1.265205773E+03  1.278479327E+03  1.250000000E+02  0.00000E+00  9.000E+00
      25     1     1     2     0     0 -4.576937521E+01 -1.353524255E+02 -5.300924136E+02  5.630613481E+02  1.250000000E+02  0.00000E+00  9.000E+00
      21     1     1     2   511   501  9.156293304E+00  5.744459968E+00 -8.536385766E+01  8.604548054E+01  0.000000000E+00  0.00000E+00  9.000E+00
#rwgt            1           1  0.15193832908168572               10      429736           0
</event>
<event>
      5   9999  3.79277E-02  3.63359E+01 -1.00000E+00  1.47476E-01
      21    -1     0     0   512   501  0.000000000E+00  0.000000000E+00  5.624466435E+02  5.624466435E+02  0.000000000E+00  0.00000E+00  9.000E+00
      21    -1     0     0   501   502  0.000000000E+00  0.000000000E+00 -1.038234573E+02  1.038234573E+02  0.000000000E+00  0.00000E+00  9.000E+00
      25     1     1     2     0     0 -1.719206690E+02 -9.739286678E+01  2.310172315E+02  3.286883755E+02  1.250000000E+02  0.00000E+00  9.000E+00
      25     1     1     2     0     0  1.364514380E+02  1.052814450E+02  1.914947837E+02  2.863536795E+02  1.250000000E+02  0.00000E+00  9.000E+00
      21     1     1     2   512   502  3.546923103E+01 -7.888578183E+00  3.611117094E+01  5.122804585E+01  4.768371582E-07  0.00000E+00  9.000E+00
#rwgt            1           1   2.6152085504032727E-002          10      430004           0
</event>
<event>
      5   9999  3.79277E-02  4.79768E+01 -1.00000E+00  1.40107E-01
      21    -1     0     0   502   511  0.000000000E+00  0.000000000E+00  1.065517031E+02  1.065517031E+02  0.000000000E+00  0.00000E+00  9.000E+00
      21    -1     0     0   501   502  0.000000000E+00  0.000000000E+00 -5.919759133E+02  5.919759133E+02  0.000000000E+00  0.00000E+00  9.000E+00
      25     1     1     2     0     0 -5.259565744E+00 -1.235056201E+02 -1.450840384E+02  2.279378850E+02  1.250000000E+02  0.00000E+00  9.000E+00
      25     1     1     2     0     0 -3.557578472E+01  1.486898574E+02 -3.662239379E+02  4.160760542E+02  1.250000000E+02  0.00000E+00  9.000E+00
      21     1     1     2   501   511  4.083535046E+01 -2.518423727E+01  2.588376609E+01  5.451367719E+01  7.539457465E-07  0.00000E+00  9.000E+00
#rwgt            1           1  0.12381637967896000               10      430180           0
</event>
<event>
      5   9999  3.79277E-02  4.64729E+01 -1.00000E+00  1.40913E-01
      21    -1     0     0   512   501  0.000000000E+00  0.000000000E+00  1.073688637E+03  1.073688637E+03  0.000000000E+00  0.00000E+00  9.000E+00
      21    -1     0     0   501   502  0.000000000E+00  0.000000000E+00 -4.948601805E+02  4.948601805E+02  0.000000000E+00  0.00000E+00  9.000E+00
      25     1     1     2     0     0  7.267615897E+01  7.083369696E+01 -3.885127554E+02  4.205548689E+02  1.250000000E+02  0.00000E+00  9.000E+00
      25     1     1     2     0     0 -2.844017532E+01 -5.658923810E+01 -3.511433112E+01  1.444617655E+02  1.250000000E+02  0.00000E+00  9.000E+00
      21     1     1     2   512   502 -4.423598365E+01 -1.424445886E+01  1.002455543E+03  1.003532183E+03  1.078959322E-05  0.00000E+00  9.000E+00
#rwgt            1           1   4.7656134465630363E-002          10      430355           0
</event>
<event>
      5   9999  3.79277E-02  1.96085E+02 -1.00000E+00  1.11961E-01
       2    -1     0     0   502     0  0.000000000E+00  0.000000000E+00  1.264251436E+03  1.264251436E+03  0.000000000E+00  0.00000E+00  9.000E+00
      21    -1     0     0   501   502  0.000000000E+00  0.000000000E+00 -1.395862356E+02  1.395862356E+02  0.000000000E+00  0.00000E+00  9.000E+00
      25     1     1     2     0     0  2.443729140E+01  3.090141847E+01  3.073393304E+02  3.341175585E+02  1.250000000E+02  0.00000E+00  9.000E+00
      25     1     1     2     0     0  7.325700051E+01  1.391141669E+02 -2.723317626E+01  2.026967820E+02  1.250000000E+02  0.00000E+00  9.000E+00
       2     1     1     2   501     0 -9.769429191E+01 -1.700155854E+02  8.445590468E+02  8.670233316E+02  0.000000000E+00  0.00000E+00  9.000E+00
#rwgt            1           1   1.0714504984196424E-002          10      430457           0
</event>
<event>
      5   9999  3.79277E-02  1.29102E+01 -1.00000E+00  1.83750E-01
      21    -1     0     0   502   501  0.000000000E+00  0.000000000E+00  1.536167891E+02  1.536167891E+02  0.000000000E+00  0.00000E+00  9.000E+00
      21    -1     0     0   511   502  0.000000000E+00  0.000000000E+00 -1.036071416E+03  1.036071416E+03  0.000000000E+00  0.00000E+00  9.000E+00
      25     1     1     2     0     0 -1.704549873E+02  4.602987831E+01 -1.299260582E+02  2.523478413E+02  1.250000000E+02  0.00000E+00  9.000E+00
      25     1     1     2     0     0  1.807977691E+02 -3.830333703E+01 -4.241583822E+01  2.271102866E+02  1.250000000E+02  0.00000E+00  9.000E+00
      21     1     1     2   511   501 -1.034278185E+01 -7.726541280E+00 -7.101127304E+02  7.102300771E+02  0.000000000E+00  0.00000E+00  9.000E+00
#rwgt            1           1   2.9487813182570394E-002          10      430591           0
</event>
<event>
      5   9999  3.79277E-02  1.26195E+02 -1.00000E+00  1.19448E-01
      21    -1     0     0   502   501  0.000000000E+00  0.000000000E+00  3.829732081E+02  3.829732081E+02  0.000000000E+00  0.00000E+00  9.000E+00
      21    -1     0     0   512   502  0.000000000E+00  0.000000000E+00 -2.899337446E+02  2.899337446E+02  0.000000000E+00  0.00000E+00  9.000E+00
      25     1     1     2     0     0 -1.416348013E+02 -1.080479165E+02 -2.895896114E+01  2.195413187E+02  1.250000000E+02  0.00000E+00  9.000E+00
      25     1     1     2     0     0  7.843125715E+01  2.172752500E+02  1.759318965E+02  3.161281837E+02  1.250000000E+02  0.00000E+00  9.000E+00
      21     1     1     2   512   501  6.320354416E+01 -1.092273335E+02 -5.393347188E+01  1.372374503E+02  2.132480600E-06  0.00000E+00  9.000E+00
#rwgt            1           1   4.3154777050487127E-002          10      430712           0
</event>
<event>
      5   9999  3.79277E-02  3.79349E+01 -1.00000E+00  1.46282E-01
      21    -1     0     0   502   501  0.000000000E+00  0.000000000E+00  9.711611256E+01  9.711611256E+01  0.000000000E+00  0.00000E+00  9.000E+00
      21    -1     0     0   501   511  0.000000000E+00  0.000000000E+00 -9.034559136E+02  9.034559136E+02  0.000000000E+00  0.00000E+00  9.000E+00
      25     1     1     2     0     0 -1.315357665E+02  1.739199136E+02 -4.604407155E+02  5.245764450E+02  1.250000000E+02  0.00000E+00  9.000E+00
      25     1     1     2     0     0  1.598206001E+02 -1.486409543E+02 -1.891065958E+02  3.146793004E+02  1.250000000E+02  0.00000E+00  9.000E+00
      21     1     1     2   502   511 -2.828483359E+01 -2.527895926E+01 -1.567924898E+02  1.613162808E+02  0.000000000E+00  0.00000E+00  9.000E+00
#rwgt            1           1  0.11090009367353504               10      430811           0
</event>
<event>
      5   9999  3.79277E-02  6.30053E+01 -1.00000E+00  1.33579E-01
      21    -1     0     0   502   501  0.000000000E+00  0.000000000E+00  1.121745273E+03  1.121745273E+03  0.000000000E+00  0.00000E+00  9.000E+00
      21    -1     0     0   501   512  0.000000000E+00  0.000000000E+00 -5.330325016E+01  5.330325016E+01  0.000000000E+00  0.00000E+00  9.000E+00
      25     1     1     2     0     0 -8.356034484E+01  1.545920395E+02  7.530276872E+02  7.832986197E+02  1.250000000E+02  0.00000E+00  9.000E+00
      25     1     1     2     0     0  5.477011414E+01 -9.854926665E+01  2.450708779E+02  2.973154193E+02  1.250000000E+02  0.00000E+00  9.000E+00
      21     1     1     2   502   512  2.879023070E+01 -5.604277284E+01  7.034345806E+01  9.443448450E+01  1.348699152E-06  0.00000E+00  9.000E+00
#rwgt            1           1  0.21807938200481763               10      431056           0
</event>
<event>
      5   9999  3.79277E-02  4.69547E+01 -1.00000E+00  1.40651E-01
      21    -1     0     0   502   501  0.000000000E+00  0.000000000E+00  3.772051852E+02  3.772051852E+02  0.000000000E+00  0.00000E+00  9.000E+00
      21    -1     0     0   501   511  0.000000000E+00  0.000000000E+00 -2.244476223E+02  2.244476223E+02  0.000000000E+00  0.00000E+00  9.000E+00
      25     1     1     2     0     0  2.365124624E+01 -7.487010595E+01 -1.818782949E+01  1.487303310E+02  1.250000000E+02  0.00000E+00  9.000E+00
      25     1     1     2     0     0 -5.327403632E+00  1.181018164E+02  2.831307129E+02  3.313071397E+02  1.250000000E+02  0.00000E+00  9.000E+00
      21     1     1     2   502   511 -1.832384261E+01 -4.323171043E+01 -1.121853206E+02  1.216153368E+02  2.336015456E-06  0.00000E+00  9.000E+00
#rwgt            1           1   4.1776756760388105E-002          10      431215           0
</event>
<event>
      5   9999  3.79277E-02  6.11956E+01 -1.00000E+00  1.34247E-01
      21    -1     0     0   502   501  0.000000000E+00  0.000000000E+00  2.241406334E+02  2.241406334E+02  0.000000000E+00  0.00000E+00  9.000E+00
      21    -1     0     0   512   502  0.000000000E+00  0.000000000E+00 -2.945568874E+02  2.945568874E+02  0.000000000E+00  0.00000E+00  9.000E+00
      25     1     1     2     0     0 -1.193522149E+02 -1.261479910E+02 -3.118968309E+01  2.162315037E+02  1.250000000E+02  0.00000E+00  9.000E+00
      25     1     1     2     0     0  8.582528808E+01  7.495374188E+01  6.532764335E+01  1.813194542E+02  1.250000000E+02  0.00000E+00  9.000E+00
      21     1     1     2   512   501  3.352692684E+01  5.119424916E+01 -1.045542143E+02  1.211465629E+02  1.348699152E-06  0.00000E+00  9.000E+00
#rwgt            1           1   4.0605742520158396E-002          10      431335           0
</event>
<event>
      5   9999  3.79277E-02  1.42817E+01 -1.00000E+00  1.79415E-01
      21    -1     0     0   511   501  0.000000000E+00  0.000000000E+00  1.387705354E+02  1.387705354E+02  0.000000000E+00  0.00000E+00  9.000E+00
      21    -1     0     0   501   502  0.000000000E+00  0.000000000E+00 -6.165533646E+02  6.165533646E+02  0.000000000E+00  0.00000E+00  9.000E+00
      25     1     1     2     0     0  2.321995098E+02 -1.033957938E+00 -1.924129833E+02  3.264436208E+02  1.250000000E+02  0.00000E+00  9.000E+00
      25     1     1     2     0     0 -2.210444739E+02 -7.884068291E+00 -3.097557602E+02  4.006200805E+02  1.250000000E+02  0.00000E+00  9.000E+00
      21     1     1     2   511   502 -1.115503591E+01  8.918026229E+00  2.438591421E+01  2.826019868E+01  3.371747881E-07  0.00000E+00  9.000E+00
#rwgt            1           1   3.7515073132847188E-002          10      431407           0
</event>
<event>
      5   9999  3.79277E-02  6.15864E+01 -1.00000E+00  1.34101E-01
      21    -1     0     0   502   501  0.000000000E+00  0.000000000E+00  1.493934442E+02  1.493934442E+02  0.000000000E+00  0.00000E+00  9.000E+00
      21    -1     0     0   501   512  0.000000000E+00  0.000000000E+00 -1.078881116E+03  1.078881116E+03  0.000000000E+00  0.00000E+00  9.000E+00
      25     1     1     2     0     0  2.246173818E+02 -2.857592046E+02 -5.200527944E+02  6.466770447E+02  1.250000000E+02  0.00000E+00  9.000E+00
      25     1     1     2     0     0 -1.633434167E+02  2.795638593E+02 -3.141186573E+02  4.681159622E+02  1.250000000E+02  0.00000E+00  9.000E+00
      21     1     1     2   502   512 -6.127396512E+01  6.195345254E+00 -9.531621955E+01  1.134815527E+02  1.348699152E-06  0.00000E+00  9.000E+00
#rwgt            1           1   3.6192819350943276E-002          10      431689           0
</event>
<event>
      5   9999 -3.79277E-02  4.17980E+01 -1.00000E+00  1.43666E-01
      21    -1     0     0   502   511  0.000000000E+00  0.000000000E+00  9.072452276E+02  9.072452276E+02  0.000000000E+00  0.00000E+00  9.000E+00
      21    -1     0     0   501   502  0.000000000E+00  0.000000000E+00 -1.156073060E+02  1.156073060E+02  0.000000000E+00  0.00000E+00  9.000E+00
      25     1     1     2     0     0 -2.516745385E+02  3.324814304E+01  1.695566190E+02  3.298787041E+02  1.250000000E+02  0.00000E+00  9.000E+00
      25     1     1     2     0     0  2.138013150E+02 -1.556515328E+01  4.306173624E+02  4.970005926E+02  1.250000000E+02  0.00000E+00  9.000E+00
      21     1     1     2   501   511  3.787322355E+01 -1.768298976E+01  1.914639402E+02  1.959732369E+02  0.000000000E+00  0.00000E+00  9.000E+00
#rwgt            1           1 -0.21917064945083761               10      431795           0
</event>
<event>
      5   9999  3.79277E-02  6.24600E+01 -1.00000E+00  1.33777E-01
      21    -1     0     0   502   501  0.000000000E+00  0.000000000E+00  4.250667835E+02  4.250667835E+02  0.000000000E+00  0.00000E+00  9.000E+00
      21    -1     0     0   512   502  0.000000000E+00  0.000000000E+00 -1.197166971E+02  1.197166971E+02  0.000000000E+00  0.00000E+00  9.000E+00
      25     1     1     2     0     0 -9.685056526E+01 -4.766549370E+01  1.039266792E+02  1.951353016E+02  1.250000000E+02  0.00000E+00  9.000E+00
      25     1     1     2     0     0  1.588326491E+02  5.537712512E+01  1.960195592E+02  2.869548815E+02  1.250000000E+02  0.00000E+00  9.000E+00
      21     1     1     2   512   501 -6.198208385E+01 -7.711631425E+00  5.403848023E+00  6.269329750E+01  9.573923590E-07  0.00000E+00  9.000E+00
#rwgt            1           1   2.5182885873382198E-002          10      432089           0
</event>
<event>
      5   9999  3.79277E-02  6.21871E+01 -1.00000E+00  1.33878E-01
      21    -1     0     0   502   511  0.000000000E+00  0.000000000E+00  6.263898447E+02  6.263898447E+02  0.000000000E+00  0.00000E+00  9.000E+00
      21    -1     0     0   501   502  0.000000000E+00  0.000000000E+00 -1.214569071E+02  1.214569071E+02  0.000000000E+00  0.00000E+00  9.000E+00
      25     1     1     2     0     0  8.889582030E+01  1.729209492E+01  1.851870439E+02  2.410824022E+02  1.250000000E+02  0.00000E+00  9.000E+00
      25     1     1     2     0     0 -1.508919700E+02 -1.242210942E+01  1.629926713E+01  1.970110695E+02  1.250000000E+02  0.00000E+00  9.000E+00
      21     1     1     2   501   511  6.199614968E+01 -4.869985505E+00  3.034466265E+02  3.097532800E+02  0.000000000E+00  0.00000E+00  9.000E+00
#rwgt            1           1   3.2572474059474827E-003          10      432161           0
</event>
<event>
      5   9999  3.79277E-02  3.17267E+01 -1.00000E+00  1.51371E-01
      21    -1     0     0   502   501  0.000000000E+00  0.000000000E+00  2.322778330E+02  2.322778330E+02  0.000000000E+00  0.00000E+00  9.000E+00
      21    -1     0     0   512   502  0.000000000E+00  0.000000000E+00 -2.513438105E+02  2.513438105E+02  0.000000000E+00  0.00000E+00  9.000E+00
      25     1     1     2     0     0  1.672181231E+01  2.046537097E+01 -1.541062334E+02  2.001803726E+02  1.250000000E+02  0.00000E+00  9.000E+00
      25     1     1     2     0     0 -4.812002314E+01 -1.591177297E+01  1.821435634E+02  2.266495066E+02  1.250000000E+02  0.00000E+00  9.000E+00
      21     1     1     2   512   501  3.139821083E+01 -4.553597996E+00 -4.710330761E+01  5.679176424E+01  9.536743164E-07  0.00000E+00  9.000E+00
#rwgt            1           1   5.1515165889803344E-002          10      432309           0
</event>
<event>
      5   9999  3.79277E-02  3.47931E+01 -1.00000E+00  1.48699E-01
      21    -1     0     0   502   511  0.000000000E+00  0.000000000E+00  2.141551705E+02  2.141551705E+02  0.000000000E+00  0.00000E+00  9.000E+00
      21    -1     0     0   501   502  0.000000000E+00  0.000000000E+00 -2.142163798E+02  2.142163798E+02  0.000000000E+00  0.00000E+00  9.000E+00
      25     1     1     2     0     0 -1.544069024E+02 -6.438850564E+01 -1.515626419E+01  2.093850126E+02  1.250000000E+02  0.00000E+00  9.000E+00
      25     1     1     2     0     0  1.205258413E+02  5.647431673E+01  4.629005562E+00  1.826533727E+02  1.250000000E+02  0.00000E+00  9.000E+00
      21     1     1     2   501   511  3.388106111E+01  7.914188902E+00  1.046604928E+01  3.633316495E+01  9.078709013E-07  0.00000E+00  9.000E+00
#rwgt            1           1  0.26423961789600181               10      432505           0
</event>
<event>
      5   9999 -3.79277E-02  2.19179E+01 -1.00000E+00  1.63153E-01
      21    -1     0     0   512   501  0.000000000E+00  0.000000000E+00  1.037086837E+02  1.037086837E+02  0.000000000E+00  0.00000E+00  9.000E+00
      21    -1     0     0   501   502  0.000000000E+00  0.000000000E+00 -4.501620858E+02  4.501620858E+02  0.000000000E+00  0.00000E+00  9.000E+00
      25     1     1     2     0     0 -1.223841096E+01 -1.494036694E+02 -1.121642264E+02  2.251156343E+02  1.250000000E+02  0.00000E+00  9.000E+00
      25     1     1     2     0     0  3.159306330E+01  1.596891881E+02 -2.260921693E+02  3.053545930E+02  1.250000000E+02  0.00000E+00  9.000E+00
      21     1     1     2   512   502 -1.935465234E+01 -1.028551872E+01 -8.197006474E+00  2.340054226E+01  2.384185791E-07  0.00000E+00  9.000E+00
#rwgt            1           1 -0.14865977301460953               10      432667           0
</event>
<event>
      5   9999  3.79277E-02  2.31550E+01 -1.00000E+00  1.61286E-01
      21    -1     0     0   502   501  0.000000000E+00  0.000000000E+00  4.550443810E+02  4.550443810E+02  0.000000000E+00  0.00000E+00  9.000E+00
      21    -1     0     0   511   502  0.000000000E+00  0.000000000E+00 -1.387801180E+02  1.387801180E+02  0.000000000E+00  0.00000E+00  9.000E+00
      25     1     1     2     0     0 -8.903797095E+01 -3.026188919E+00  1.153922480E+02  1.920346036E+02  1.250000000E+02  0.00000E+00  9.000E+00
      25     1     1     2     0     0  9.327142635E+01 -1.973850557E+01  2.790330658E+02  3.202711654E+02  1.250000000E+02  0.00000E+00  9.000E+00
      21     1     1     2   511   501 -4.233455401E+00  2.276469449E+01 -7.816105087E+01  8.151872995E+01  1.907348633E-06  0.00000E+00  9.000E+00
#rwgt            1           1   4.7155060763842099E-002          10      433056           0
</event>
<event>
      5   9999  3.79277E-02  1.96479E+01 -1.00000E+00  1.67008E-01
      21    -1     0     0   502   501  0.000000000E+00  0.000000000E+00  1.426464128E+02  1.426464128E+02  0.000000000E+00  0.00000E+00  9.000E+00
      21    -1     0     0   512   502  0.000000000E+00  0.000000000E+00 -3.430599772E+02  3.430599772E+02  0.000000000E+00  0.00000E+00  9.000E+00
      25     1     1     2     0     0  1.133378661E+00  1.112524821E+02 -2.323640153E+02  2.863501963E+02  1.250000000E+02  0.00000E+00  9.000E+00
      25     1     1     2     0     0  1.839808637E+01 -1.091162911E+02  4.830667899E+01  1.737912247E+02  1.250000000E+02  0.00000E+00  9.000E+00
      21     1     1     2   512   501 -1.953146503E+01 -2.136191060E+00 -1.635622807E+01  2.556496890E+01  4.129530925E-07  0.00000E+00  9.000E+00
#rwgt            1           1   5.0614760697162024E-002          10      433268           0
</event>
<event>
      5   9999  3.79277E-02  1.81563E+01 -1.00000E+00  1.69911E-01
      21    -1     0     0   502   501  0.000000000E+00  0.000000000E+00  3.290074910E+02  3.290074910E+02  0.000000000E+00  0.00000E+00  9.000E+00
       1    -1     0     0   501     0  0.000000000E+00  0.000000000E+00 -3.839820475E+02  3.839820475E+02  0.000000000E+00  0.00000E+00  9.000E+00
      25     1     1     2     0     0 -9.200645851E+00  1.531188014E+02  2.111305982E+02  2.893633507E+02  1.250000000E+02  0.00000E+00  9.000E+00
      25     1     1     2     0     0  8.160220091E+00 -1.349923653E+02 -2.971631888E+01  1.865411147E+02  1.250000000E+02  0.00000E+00  9.000E+00
       1     1     1     2   502     0  1.040425760E+00 -1.812643611E+01 -2.363888359E+02  2.370850731E+02  2.697398305E-06  0.00000E+00  9.000E+00
#rwgt            1           1   4.7508248438977579E-002          10      433580           0
</event>
<event>
      5   9999 -3.79277E-02  5.24321E+01 -1.00000E+00  1.37909E-01
      21    -1     0     0   502   501  0.000000000E+00  0.000000000E+00  8.103667694E+01  8.103667694E+01  0.000000000E+00  0.00000E+00  9.000E+00
      21    -1     0     0   511   502  0.000000000E+00  0.000000000E+00 -9.586333709E+02  9.586333709E+02  0.000000000E+00  0.00000E+00  9.000E+00
      25     1     1     2     0     0 -1.000464658E+02 -9.866210416E+01 -2.223839859E+02  2.912441301E+02  1.250000000E+02  0.00000E+00  9.000E+00
      25     1     1     2     0     0  1.037217757E+02  4.635902098E+01 -1.119647759E+02  2.026535878E+02  1.250000000E+02  0.00000E+00  9.000E+00
      21     1     1     2   511   501 -3.675309927E+00  5.230308318E+01 -5.432479321E+02  5.457723300E+02  1.078959322E-05  0.00000E+00  9.000E+00
#rwgt            1           1 -0.13377382892686504               10      433766           0
</event>
<event>
      5   9999  3.79277E-02  4.66573E+01 -1.00000E+00  1.40812E-01
      21    -1     0     0   502   501  0.000000000E+00  0.000000000E+00  2.608044226E+02  2.608044226E+02  0.000000000E+00  0.00000E+00  9.000E+00
      21    -1     0     0   501   512  0.000000000E+00  0.000000000E+00 -2.899689010E+02  2.899689010E+02  0.000000000E+00  0.00000E+00  9.000E+00
      25     1     1     2     0     0  6.563552583E+01  1.197461242E+02 -1.376771092E+02  2.307100841E+02  1.250000000E+02  0.00000E+00  9.000E+00
      25     1     1     2     0     0 -6.434222256E+01 -7.310675974E+01  1.767615238E+02  2.373903035E+02  1.250000000E+02  0.00000E+00  9.000E+00
      21     1     1     2   502   512 -1.293303277E+00 -4.663936441E+01 -6.824889299E+01  8.267293596E+01  1.348699152E-06  0.00000E+00  9.000E+00
#rwgt            1           1   3.6194760848008177E-002          10      433858           0
</event>
<event>
      5   9999  3.79277E-02  8.73013E+01 -1.00000E+00  1.26540E-01
      21    -1     0     0   502   511  0.000000000E+00  0.000000000E+00  1.625603531E+03  1.625603531E+03  0.000000000E+00  0.00000E+00  9.000E+00
      21    -1     0     0   501   502  0.000000000E+00  0.000000000E+00 -5.237084906E+01  5.237084906E+01  0.000000000E+00  0.00000E+00  9.000E+00
      25     1     1     2     0     0  4.378102911E+01  7.321012528E-01  1.078329691E+03  1.086433264E+03  1.250000000E+02  0.00000E+00  9.000E+00
      25     1     1     2     0     0 -1.168831962E+02  4.699207261E+01  1.399532267E+02  2.260129246E+02  1.250000000E+02  0.00000E+00  9.000E+00
      21     1     1     2   501   511  7.310216712E+01 -4.772417387E+01  3.549497640E+02  3.655281913E+02  5.394796609E-06  0.00000E+00  9.000E+00
#rwgt            1           1   5.3579199877817806E-002          10      433958           0
</event>
<event>
      5   9999  3.79277E-02  3.95928E+01 -1.00000E+00  1.45116E-01
      21    -1     0     0   502   501  0.000000000E+00  0.000000000E+00  4.897006770E+02  4.897006770E+02  0.000000000E+00  0.00000E+00  9.000E+00
       5    -1     0     0   501     0  0.000000000E+00  0.000000000E+00 -1.198176451E+02  1.198176451E+02  0.000000000E+00  0.00000E+00  9.000E+00
      25     1     1     2     0     0  1.141941153E+02  6.934631723E+01  1.426812627E+02  2.320175649E+02  1.250000000E+02  0.00000E+00  9.000E+00
      25     1     1     2     0     0 -1.501065671E+02 -5.267649636E+01  2.576240677E+02  3.275697712E+02  1.250000000E+02  0.00000E+00  9.000E+00
       5     1     1     2   502     0  3.591245175E+01 -1.666982086E+01 -3.042229845E+01  4.993098598E+01  4.768371582E-07  0.00000E+00  9.000E+00
#rwgt            1           1   4.2957123371450787E-002          10      434171           0
</event>
<event>
      5   9999  3.79277E-02  2.43318E+01 -1.00000E+00  1.59637E-01
      21    -1     0     0   502   501  0.000000000E+00  0.000000000E+00  5.396347563E+02  5.396347563E+02  0.000000000E+00  0.00000E+00  9.000E+00
      21    -1     0     0   511   502  0.000000000E+00  0.000000000E+00 -1.471486811E+02  1.471486811E+02  0.000000000E+00  0.00000E+00  9.000E+00
      25     1     1     2     0     0  1.142162053E+02 -1.659450628E+02  5.258187783E+01  2.428434872E+02  1.250000000E+02  0.00000E+00  9.000E+00
      25     1     1     2     0     0 -1.248007623E+02  1.878540217E+02  3.268818722E+02  4.163425538E+02  1.250000000E+02  0.00000E+00  9.000E+00
      21     1     1     2   511   501  1.058455700E+01 -2.190895892E+01  1.302232517E+01  2.759739627E+01  3.769728732E-07  0.00000E+00  9.000E+00
#rwgt            1           1  0.11715615685714546               10      434385           0
</event>
<event>
      5   9999  3.79277E-02  2.89069E+01 -1.00000E+00  1.54168E-01
      21    -1     0     0   512   501  0.000000000E+00  0.000000000E+00  3.505578481E+01  3.505578481E+01  0.000000000E+00  0.00000E+00  9.000E+00
      21    -1     0     0   501   502  0.000000000E+00  0.000000000E+00 -2.210396727E+03  2.210396727E+03  0.000000000E+00  0.00000E+00  9.000E+00
      25     1     1     2     0     0  9.037038850E+01 -1.641391350E+02 -1.438396050E+03  1.455924675E+03  1.250000000E+02  0.00000E+00  9.000E+00
      25     1     1     2     0     0 -8.100700942E+01  1.914875699E+02 -7.088600120E+02  7.492243600E+02  1.250000000E+02  0.00000E+00  9.000E+00
      21     1     1     2   512   502 -9.363379079E+00 -2.734843492E+01 -2.808488085E+01  4.030347743E+01  1.011524364E-06  0.00000E+00  9.000E+00
#rwgt            1           1   8.1516496647516631E-002          10      434559           0
</event>
<event>
      5   9999  3.79277E-02  1.31707E+01 -1.00000E+00  1.82875E-01
      21    -1     0     0   511   501  0.000000000E+00  0.000000000E+00  7.687938214E+02  7.687938214E+02  0.000000000E+00  0.00000E+00  9.000E+00
      21    -1     0     0   501   502  0.000000000E+00  0.000000000E+00 -7.495906203E+01  7.495906203E+01  0.000000000E+00  0.00000E+00  9.000E+00
      25     1     1     2     0     0  9.722554724E+01  1.612934702E+02  4.528838980E+02  5.061592790E+02  1.250000000E+02  0.00000E+00  9.000E+00
      25     1     1     2     0     0 -8.559867728E+01 -1.551061764E+02  2.014681636E+02  2.959720941E+02  1.250000000E+02  0.00000E+00  9.000E+00
      21     1     1     2   511   502 -1.162686996E+01 -6.187293824E+00  3.948269769E+01  4.162151038E+01  0.000000000E+00  0.00000E+00  9.000E+00
#rwgt            1           1   3.1011041442161838E-002          10      434776           0
</event>
<event>
      5   9999  3.79277E-02  4.75113E+01 -1.00000E+00  1.40353E-01
      21    -1     0     0   502   501  0.000000000E+00  0.000000000E+00  2.804318300E+02  2.804318300E+02  0.000000000E+00  0.00000E+00  9.000E+00
       2    -1     0     0   501     0  0.000000000E+00  0.000000000E+00 -7.766974058E+02  7.766974058E+02  0.000000000E+00  0.00000E+00  9.000E+00
      25     1     1     2     0     0  2.014748684E+01 -7.611166763E+01  8.324590097E+00  1.479635292E+02  1.250000000E+02  0.00000E+00  9.000E+00
      25     1     1     2     0     0 -6.305421007E+01  9.651608971E+01  1.655610776E+02  2.373323817E+02  1.250000000E+02  0.00000E+00  9.000E+00
       2     1     1     2   502     0  4.290672323E+01 -2.040442208E+01 -6.701512435E+02  6.718333249E+02  1.078959322E-05  0.00000E+00  9.000E+00
#rwgt            1           1   4.4081774761380678E-002          10      435088           0
</event>
<event>
      5   9999  3.79277E-02  1.31366E+02 -1.00000E+00  1.18723E-01
      21    -1     0     0   502   501  0.000000000E+00  0.000000000E+00  1.758345912E+03  1.758345912E+03  0.000000000E+00  0.00000E+00  9.000E+00
      21    -1     0     0   501   511  0.000000000E+00  0.000000000E+00 -5.047757564E+01  5.047757564E+01  0.000000000E+00  0.00000E+00  9.000E+00
      25     1     1     2     0     0 -8.837931909E+01  1.353189790E+02  9.744407322E+02  9.956313930E+02  1.250000000E+02  0.00000E+00  9.000E+00
      25     1     1     2     0     0  1.766817092E+02 -3.805755108E+01  4.691749268E+02  5.180877488E+02  1.250000000E+02  0.00000E+00  9.000E+00
      21     1     1     2   502   511 -8.830239011E+01 -9.726142789E+01  2.642526777E+02  2.951043462E+02  5.394796609E-06  0.00000E+00  9.000E+00
#rwgt            1           1   5.5848994521532143E-002          10      435261           0
</event>
<event>
      5   9999  3.79277E-02  9.55113E+01 -1.00000E+00  1.24732E-01
      21    -1     0     0   502   501  0.000000000E+00  0.000000000E+00  3.120658179E+02  3.120658179E+02  0.000000000E+00  0.00000E+00  9.000E+00
      21    -1     0     0   501   512  0.000000000E+00  0.000000000E+00 -2.750026682E+02  2.750026682E+02  0.000000000E+00  0.00000E+00  9.000E+00
      25     1     1     2     0     0  7.352154079E+01 -1.891885567E+02 -4.406155887E+01  2.424131760E+02  1.250000000E+02  0.00000E+00  9.000E+00
      25     1     1     2     0     0  2.195459879E+01  1.917800865E+02  9.368566110E+01  2.483215840E+02  1.250000000E+02  0.00000E+00  9.000E+00
      21     1     1     2   502   512 -9.547613958E+01 -2.591529794E+00 -1.256095251E+01  9.633372610E+01  1.305872339E-06  0.00000E+00  9.000E+00
#rwgt            1           1   3.1972494497212331E-002          10      435361           0
</event>
<event>
      5   9999  3.79277E-02  3.98164E+01 -1.00000E+00  1.44964E-01
      21    -1     0     0   502   501  0.000000000E+00  0.000000000E+00  9.117524913E+02  9.117524913E+02  0.000000000E+00  0.00000E+00  9.000E+00
      21    -1     0     0   501   511  0.000000000E+00  0.000000000E+00 -1.022407551E+02  1.022407551E+02  0.000000000E+00  0.00000E+00  9.000E+00
      25     1     1     2     0     0 -3.442477213E+01  7.239887789E+01  7.804728872E+02  7.944744112E+02  1.250000000E+02  0.00000E+00  9.000E+00
      25     1     1     2     0     0  3.540356092E+01 -1.122032573E+02  2.522489214E+00  1.716809425E+02  1.250000000E+02  0.00000E+00  9.000E+00
      21     1     1     2   502   511 -9.787887832E-01  3.980437938E+01  2.651635977E+01  4.783789273E+01  3.371747881E-07  0.00000E+00  9.000E+00
#rwgt            1           1   4.4963275038641691E-002          10      435418           0
</event>
<event>
      5   9999  3.79277E-02  1.72038E+02 -1.00000E+00  1.14082E-01
      21    -1     0     0   512   501  0.000000000E+00  0.000000000E+00  6.747471923E+02  6.747471923E+02  0.000000000E+00  0.00000E+00  9.000E+00
      21    -1     0     0   501   502  0.000000000E+00  0.000000000E+00 -3.303678269E+02  3.303678269E+02  0.000000000E+00  0.00000E+00  9.000E+00
      25     1     1     2     0     0 -6.513260833E+01  8.374953165E+01 -2.511563465E+02  2.999345781E+02  1.250000000E+02  0.00000E+00  9.000E+00
      25     1     1     2     0     0 -1.058514705E+02 -6.473404843E+01  4.373091117E+02  4.714438355E+02  1.250000000E+02  0.00000E+00  9.000E+00
      21     1     1     2   512   502  1.709840788E+02 -1.901548322E+01  1.582266003E+02  2.337366057E+02  0.000000000E+00  0.00000E+00  9.000E+00
#rwgt            1           1   5.1917836061444185E-002          10      435561           0
</event>
<event>
      5   9999  3.79277E-02  1.81169E+01 -1.00000E+00  1.69992E-01
      21    -1     0     0   502   501  0.000000000E+00  0.000000000E+00  2.041793342E+02  2.041793342E+02  0.000000000E+00  0.00000E+00  9.000E+00
      21    -1     0     0   501   511  0.000000000E+00  0.000000000E+00 -2.045551912E+02  2.045551912E+02  0.000000000E+00  0.00000E+00  9.000E+00
      25     1     1     2     0     0 -1.026266880E+02  4.745107377E+01  7.985951897E+01  1.865110835E+02  1.250000000E+02  0.00000E+00  9.000E+00
      25     1     1     2     0     0  1.189873405E+02 -5.523252291E+01 -5.171579679E+01  1.884360434E+02  1.250000000E+02  0.00000E+00  9.000E+00
      21     1     1     2   502   511 -1.636065259E+01  7.781449142E+00 -2.851957922E+01  3.378739858E+01  3.371747881E-07  0.00000E+00  9.000E+00
#rwgt            1           1   3.7070490747836950E-002          10      435607           0
</event>
<event>
      5   9999  3.79277E-02  1.39940E+02 -1.00000E+00  1.17601E-01
      21    -1     0     0   502   501  0.000000000E+00  0.000000000E+00  2.334950393E+02  2.334950393E+02  0.000000000E+00  0.00000E+00  9.000E+00
       2    -1     0     0   501     0  0.000000000E+00  0.000000000E+00 -8.304941410E+02  8.304941410E+02  0.000000000E+00  0.00000E+00  9.000E+00
      25     1     1     2     0     0 -1.319146815E+02 -9.722668322E+01 -8.204433033E+01  2.218350361E+02  1.250000000E+02  0.00000E+00  9.000E+00
      25     1     1     2     0     0  2.645518666E+02  5.260961136E+01  1.140717145E+01  2.975072854E+02  1.250000000E+02  0.00000E+00  9.000E+00
       2     1     1     2   502     0 -1.326371851E+02  4.461707186E+01 -5.263619428E+02  5.446468588E+02  7.629394531E-06  0.00000E+00  9.000E+00
#rwgt            1           1   3.8878054787152741E-002          10      435745           0
</event>
<event>
      5   9999  3.79277E-02  1.31094E+02 -1.00000E+00  1.18761E-01
      21    -1     0     0   502   501  0.000000000E+00  0.000000000E+00  3.597086914E+01  3.597086914E+01  0.000000000E+00  0.00000E+00  9.000E+00
      21    -1     0     0   511   502  0.000000000E+00  0.000000000E+00 -2.151830449E+03  2.151830449E+03  0.000000000E+00  0.00000E+00  9.000E+00
      25     1     1     2     0     0 -3.259590612E+01  2.759064774E+00 -1.526855503E+02  2.000199560E+02  1.250000000E+02  0.00000E+00  9.000E+00
      25     1     1     2     0     0  2.468726789E+01  1.280958282E+02 -1.122377140E+03  1.136826040E+03  1.250000000E+02  0.00000E+00  9.000E+00
      21     1     1     2   511   501  7.908638229E+00 -1.308548930E+02 -8.407968894E+02  8.509553213E+02  1.525878906E-05  0.00000E+00  9.000E+00
#rwgt            1           1   6.6779909510548977E-002          10      435795           0
</event>
<event>
      5   9999 -3.79277E-02  9.50430E+01 -1.00000E+00  1.24829E-01
      21    -1     0     0   502   501  0.000000000E+00  0.000000000E+00  7.659784621E+01  7.659784621E+01  0.000000000E+00  0.00000E+00  9.000E+00
      21    -1     0     0   501   512  0.000000000E+00  0.000000000E+00 -1.299052668E+03  1.299052668E+03  0.000000000E+00  0.00000E+00  9.000E+00
      25     1     1     2     0     0 -1.008492859E+02  1.448966562E+02 -5.172846441E+02  5.606906656E+02  1.250000000E+02  0.00000E+00  9.000E+00
      25     1     1     2     0     0  1.940625849E+02 -1.634558786E+02 -3.650264606E+02  4.617872108E+02  1.250000000E+02  0.00000E+00  9.000E+00
      21     1     1     2   502   512 -9.321329897E+01  1.855922236E+01 -3.401437171E+02  3.531726379E+02  3.814697266E-06  0.00000E+00  9.000E+00
#rwgt            1           1 -0.13945382258914030               10      435825           0
</event>
<event>
      5   9999  3.79277E-02  1.43749E+02 -1.00000E+00  1.17131E-01
      21    -1     0     0   502   511  0.000000000E+00  0.000000000E+00  1.204092503E+02  1.204092503E+02  0.000000000E+00  0.00000E+00  9.000E+00
      21    -1     0     0   501   502  0.000000000E+00  0.000000000E+00 -1.040669057E+03  1.040669057E+03  0.000000000E+00  0.00000E+00  9.000E+00
      25     1     1     2     0     0  7.709025076E+01  1.400209456E+02 -5.500855401E+02  5.863172123E+02  1.250000000E+02  0.00000E+00  9.000E+00
      25     1     1     2     0     0 -2.207385606E+02 -1.454031185E+02 -2.128892524E+02  3.616827516E+02  1.250000000E+02  0.00000E+00  9.000E+00
      21     1     1     2   501   511  1.436483098E+02  5.382172941E+00 -1.572850138E+02  2.130783430E+02  2.697398305E-06  0.00000E+00  9.000E+00
#rwgt            1           1  0.13699716470287934               10      435947           0
</event>
<event>
      5   9999  3.79277E-02  5.69073E+01 -1.00000E+00  1.35943E-01
      21    -1     0     0   502   501  0.000000000E+00  0.000000000E+00  2.542283107E+02  2.542283107E+02  0.000000000E+00  0.00000E+00  9.000E+00
       1    -1     0     0   501     0  0.000000000E+00  0.000000000E+00 -1.965640809E+03  1.965640809E+03  0.000000000E+00  0.00000E+00  9.000E+00
      25     1     1     2     0     0 -3.221782319E+01 -1.647307337E+02 -7.497105087E+00  2.094168316E+02  1.250000000E+02  0.00000E+00  9.000E+00
      25     1     1     2     0     0  7.490217472E+01  1.270944667E+02  9.165271771E+01  2.139826159E+02  1.250000000E+02  0.00000E+00  9.000E+00
       1     1     1     2   502     0 -4.268435153E+01  3.763626705E+01 -1.795568111E+03  1.796469672E+03  2.157918644E-05  0.00000E+00  9.000E+00
#rwgt            1           1   4.8407246072673750E-002          10      436017           0
</event>
<event>
      5   9999  3.79277E-02  3.25288E+01 -1.00000E+00  1.50638E-01
      21    -1     0     0   502   511  0.000000000E+00  0.000000000E+00  1.665823830E+02  1.665823830E+02  0.000000000E+00  0.00000E+00  9.000E+00
      21    -1     0     0   501   502  0.000000000E+00  0.000000000E+00 -4.355554884E+02  4.355554884E+02  0.000000000E+00  0.00000E+00  9.000E+00
      25     1     1     2     0     0  7.888899469E-01  2.192158405E+02 -2.009127308E+02  3.225633775E+02  1.250000000E+02  0.00000E+00  9.000E+00
      25     1     1     2     0     0 -2.630632404E+01 -1.990419854E+02 -7.094814530E+01  2.469177474E+02  1.250000000E+02  0.00000E+00  9.000E+00
      21     1     1     2   501   511  2.551743410E+01 -2.017385511E+01  2.887770778E+00  3.265674651E+01  3.862822472E-07  0.00000E+00  9.000E+00
#rwgt            1           1   2.5869729249800095E-002          10      436174           0
</event>
<event>
      5   9999  3.79277E-02  2.16894E+02 -1.00000E+00  1.10381E-01
      21    -1     0     0   502   501  0.000000000E+00  0.000000000E+00  1.497042737E+03  1.497042737E+03  0.000000000E+00  0.00000E+00  9.000E+00
      21    -1     0     0   501   512  0.000000000E+00  0.000000000E+00 -1.020552581E+02  1.020552581E+02  0.000000000E+00  0.00000E+00  9.000E+00
      25     1     1     2     0     0 -5.401350161E+01  8.022148157E+01  3.097465102E+02  3.477367468E+02  1.250000000E+02  0.00000E+00  9.000E+00
      25     1     1     2     0     0  1.959314086E+02 -2.442407078E+02  9.165421968E+02  9.765844760E+02  1.250000000E+02  0.00000E+00  9.000E+00
      21     1     1     2   502   512 -1.419179070E+02  1.640192262E+02  1.686987715E+02  2.747767719E+02  7.136645101E-06  0.00000E+00  9.000E+00
#rwgt            1           1   3.5851619540070469E-002          10      436284           0
</event>
<event>
      5   9999  3.79277E-02  2.28884E+01 -1.00000E+00  1.61676E-01
      21    -1     0     0   502   501  0.000000000E+00  0.000000000E+00  8.623010207E+02  8.623010207E+02  0.000000000E+00  0.00000E+00  9.000E+00
      21    -1     0     0   501   511  0.000000000E+00  0.000000000E+00 -6.048688081E+01  6.048688081E+01  0.000000000E+00  0.00000E+00  9.000E+00
      25     1     1     2     0     0 -4.848314794E+00  1.463028929E+02  5.875001905E+02  6.182309572E+02  1.250000000E+02  0.00000E+00  9.000E+00
      25     1     1     2     0     0  2.015015043E+01 -1.292813638E+02  2.157907830E+02  2.816209538E+02  1.250000000E+02  0.00000E+00  9.000E+00
      21     1     1     2   502   511 -1.530183564E+01 -1.702152903E+01 -1.476833546E+00  2.293599053E+01  6.799241630E-07  0.00000E+00  9.000E+00
#rwgt            1           1   3.9607855703931369E-002          10      436371           0
</event>
<event>
      5   9999  3.79277E-02  6.81918E+00 -1.00000E+00  2.17173E-01
      21    -1     0     0   502   501  0.000000000E+00  0.000000000E+00  1.289201314E+02  1.289201314E+02  0.000000000E+00  0.00000E+00  9.000E+00
      21    -1     0     0   501   512  0.000000000E+00  0.000000000E+00 -4.018074133E+02  4.018074133E+02  0.000000000E+00  0.00000E+00  9.000E+00
      25     1     1     2     0     0  1.161888964E+02  3.434149331E+01 -2.959420622E+02  3.433451645E+02  1.250000000E+02  0.00000E+00  9.000E+00
      25     1     1     2     0     0 -1.218946373E+02 -3.060709530E+01  2.730387754E+01  1.793477031E+02  1.250000000E+02  0.00000E+00  9.000E+00
      21     1     1     2   502   512  5.705740939E+00 -3.734398011E+00 -4.249097286E+00  8.034677088E+00  1.192092896E-07  0.00000E+00  9.000E+00
#rwgt            1           1   4.4532683060885404E-002          10      436545           0
</event>
<event>
      5   9999  3.79277E-02  8.12620E+01 -1.00000E+00  1.28021E-01
      21    -1     0     0   502   511  0.000000000E+00  0.000000000E+00  2.525164866E+03  2.525164866E+03  0.000000000E+00  0.00000E+00  9.000E+00
      21    -1     0     0   501   502  0.000000000E+00  0.000000000E+00 -6.173387333E+01  6.173387333E+01  0.000000000E+00  0.00000E+00  9.000E+00
      25     1     1     2     0     0 -2.149143506E+02 -7.127720075E+01  5.060129631E+02  5.682805084E+02  1.250000000E+02  0.00000E+00  9.000E+00
      25     1     1     2     0     0  1.468663158E+02  2.685895176E+01  2.905157759E+02  3.497363780E+02  1.250000000E+02  0.00000E+00  9.000E+00
      21     1     1     2   501   511  6.804803473E+01  4.441824900E+01  1.666902253E+03  1.668881852E+03  2.157918644E-05  0.00000E+00  9.000E+00
#rwgt            1           1  0.16135568479210546               10      436801           0
</event>
<event>
      5   9999  3.79277E-02  3.76723E+01 -1.00000E+00  1.46474E-01
      21    -1     0     0   512   501  0.000000000E+00  0.000000000E+00  4.344462236E+01  4.344462236E+01  0.000000000E+00  0.00000E+00  9.000E+00
      21    -1     0     0   501   502  0.000000000E+00  0.000000000E+00 -8.166525026E+02  8.166525026E+02  0.000000000E+00  0.00000E+00  9.000E+00
      25     1     1     2     0     0 -6.560320979E+01 -1.061498660E+02 -3.425462124E+02  3.854017161E+02  1.250000000E+02  0.00000E+00  9.000E+00
      25     1     1     2     0     0  6.099421590E+01  6.876057948E+01 -3.874849876E+02  4.173942109E+02  1.250000000E+02  0.00000E+00  9.000E+00
      21     1     1     2   512   502  4.608993892E+00  3.738928647E+01 -4.317668020E+01  5.730119790E+01  9.536743164E-07  0.00000E+00  9.000E+00
#rwgt            1           1   2.0179248339609584E-002          10      436882           0
</event>
<event>
      5   9999  3.79277E-02  4.59104E+01 -1.00000E+00  1.41223E-01
      21    -1     0     0   502   501  0.000000000E+00  0.000000000E+00  3.843183323E+02  3.843183323E+02  0.000000000E+00  0.00000E+00  9.000E+00
       2    -1     0     0   501     0  0.000000000E+00  0.000000000E+00 -7.797188708E+02  7.797188708E+02  0.000000000E+00  0.00000E+00  9.000E+00
      25     1     1     2     0     0  1.256054594E+02  1.573561895E+01  3.164146972E+02  3.629980740E+02  1.250000000E+02  0.00000E+00  9.000E+00
      25     1     1     2     0     0 -1.397045865E+02 -5.942744729E+01 -1.779923850E+02  2.652457014E+02  1.250000000E+02  0.00000E+00  9.000E+00
       2     1     1     2   502     0  1.409912707E+01  4.369182834E+01 -5.338228507E+02  5.357934277E+02  0.000000000E+00  0.00000E+00  9.000E+00
#rwgt            1           1   3.6439917694893423E-002          10      436990           0
</event>
<event>
      5   9999  3.79277E-02  1.14847E+02 -1.00000E+00  1.21183E-01
      21    -1     0     0   502   511  0.000000000E+00  0.000000000E+00  9.301562777E+02  9.301562777E+02  0.000000000E+00  0.00000E+00  9.000E+00
      21    -1     0     0   501   502  0.000000000E+00  0.000000000E+00 -1.547732306E+03  1.547732306E+03  0.000000000E+00  0.00000E+00  9.000E+00
      25     1     1     2     0     0 -1.938043333E+01  4.048595293E+01 -1.154226283E+03  1.161842513E+03  1.250000000E+02  0.00000E+00  9.000E+00
      25     1     1     2     0     0  1.315422642E+02 -1.579688189E+01 -3.645684665E+02  4.075390478E+02  1.250000000E+02  0.00000E+00  9.000E+00
      21     1     1     2   501   511 -1.121618308E+02 -2.468907104E+01  9.012187211E+02  9.085070225E+02  1.078959322E-05  0.00000E+00  9.000E+00
#rwgt            1           1   4.9539618705070190E-002          10      437239           0
</event>
<event>
      5   9999  3.79277E-02  2.46400E+01 -1.00000E+00  1.59224E-01
      21    -1     0     0   502   501  0.000000000E+00  0.000000000E+00  2.708078472E+02  2.708078472E+02  0.000000000E+00  0.00000E+00  9.000E+00
      21    -1     0     0   512   502  0.000000000E+00  0.000000000E+00 -7.517750369E+02  7.517750369E+02  0.000000000E+00  0.00000E+00  9.000E+00
      25     1     1     2     0     0  2.041330933E+02 -5.978402456E+01 -2.013003182E+02  3.184199546E+02  1.250000000E+02  0.00000E+00  9.000E+00
      25     1     1     2     0     0 -2.283304719E+02  5.513450773E+01  1.283375165E+02  2.954151934E+02  1.250000000E+02  0.00000E+00  9.000E+00
      21     1     1     2   512   501  2.419737858E+01  4.649516823E+00 -4.080043880E+02  4.087477361E+02  0.000000000E+00  0.00000E+00  9.000E+00
#rwgt            1           1   2.7552277650831805E-002          10      437333           0
</event>
<event>
      5   9999  3.79277E-02  1.93310E+01 -1.00000E+00  1.67597E-01
      21    -1     0     0   511   501  0.000000000E+00  0.000000000E+00  5.664903732E+02  5.664903732E+02  0.000000000E+00  0.00000E+00  9.000E+00
      21    -1     0     0   501   502  0.000000000E+00  0.000000000E+00 -4.885584664E+02  4.885584664E+02  0.000000000E+00  0.00000E+00  9.000E+00
      25     1     1     2     0     0  6.232205019E+01 -1.638463622E+02 -1.116050215E+02  2.425084518E+02  1.250000000E+02  0.00000E+00  9.000E+00
      25     1     1     2     0     0 -5.742836481E+01  1.825476942E+02 -2.693395304E+02  3.532569325E+02  1.250000000E+02  0.00000E+00  9.000E+00
      21     1     1     2   511   502 -4.893685383E+00 -1.870133200E+01  4.588764587E+02  4.592834553E+02  5.394796609E-06  0.00000E+00  9.000E+00
#rwgt            1           1   3.7598479683853617E-002          10      437688           0
</event>
<event>
      5   9999  3.79277E-02  3.16057E+01 -1.00000E+00  1.51484E-01
      21    -1     0     0   512   501  0.000000000E+00  0.000000000E+00  1.369167446E+02  1.369167446E+02  0.000000000E+00  0.00000E+00  9.000E+00
      21    -1     0     0   501   502  0.000000000E+00  0.000000000E+00 -4.174165089E+02  4.174165089E+02  0.000000000E+00  0.00000E+00  9.000E+00
      25     1     1     2     0     0 -1.265606850E+02  2.028982792E+01 -9.956344683E+01  2.048588881E+02  1.250000000E+02  0.00000E+00  9.000E+00
      25     1     1     2     0     0  1.549285672E+02 -6.354891030E+00 -2.216139367E+02  2.979613776E+02  1.250000000E+02  0.00000E+00  9.000E+00
      21     1     1     2   512   502 -2.836788215E+01 -1.393493689E+01  4.067761931E+01  5.151298784E+01  1.261592536E-06  0.00000E+00  9.000E+00
#rwgt            1           1   3.7609612711409245E-002          10      437863           0
</event>
<event>
      5   9999  3.79277E-02  8.35273E+01 -1.00000E+00  1.27449E-01
      21    -1     0     0   502   511  0.000000000E+00  0.000000000E+00  2.727230376E+02  2.727230376E+02  0.000000000E+00  0.00000E+00  9.000E+00
      21    -1     0     0   501   502  0.000000000E+00  0.000000000E+00 -5.382958226E+02  5.382958226E+02  0.000000000E+00  0.00000E+00  9.000E+00
      25     1     1     2     0     0 -5.238264640E+00  5.466325371E+01 -9.007856638E+01  1.635685142E+02  1.250000000E+02  0.00000E+00  9.000E+00
      25     1     1     2     0     0  6.382049554E+01  4.876020047E+00 -3.914636124E+02  4.158913212E+02  1.250000000E+02  0.00000E+00  9.000E+00
      21     1     1     2   501   511 -5.858223090E+01 -5.953927375E+01  2.159693938E+02  2.315590247E+02  2.697398305E-06  0.00000E+00  9.000E+00
#rwgt            1           1   3.9061617153218237E-002          10      438001           0
</event>
<event>
      5   9999  3.79277E-02  9.10010E+01 -1.00000E+00  1.25698E-01
      21    -1     0     0   502   512  0.000000000E+00  0.000000000E+00  2.496231997E+02  2.496231997E+02  0.000000000E+00  0.00000E+00  9.000E+00
      21    -1     0     0   501   502  0.000000000E+00  0.000000000E+00 -3.044880277E+02  3.044880277E+02  0.000000000E+00  0.00000E+00  9.000E+00
      25     1     1     2     0     0  1.341138257E+02  6.509190069E+01 -5.622914025E+01  2.025097282E+02  1.250000000E+02  0.00000E+00  9.000E+00
      25     1     1     2     0     0 -2.219559003E+02 -4.132333943E+01 -1.753372846E+01  2.586589873E+02  1.250000000E+02  0.00000E+00  9.000E+00
      21     1     1     2   501   512  8.784207458E+01 -2.376856125E+01  1.889804070E+01  9.294251187E+01  9.536743164E-07  0.00000E+00  9.000E+00
#rwgt            1           1   4.3040455623832075E-002          10      438123           0
</event>
<event>
      5   9999  3.79277E-02  3.02984E+01 -1.00000E+00  1.52742E-01
      21    -1     0     0   511   501  0.000000000E+00  0.000000000E+00  2.720801291E+02  2.720801291E+02  0.000000000E+00  0.00000E+00  9.000E+00
      21    -1     0     0   501   502  0.000000000E+00  0.000000000E+00 -6.310354321E+02  6.310354321E+02  0.000000000E+00  0.00000E+00  9.000E+00
      25     1     1     2     0     0 -2.282435646E+01 -8.264604074E+01 -4.199416129E+01  1.572889980E+02  1.250000000E+02  0.00000E+00  9.000E+00
      25     1     1     2     0     0  3.685125962E+01  1.095019353E+02 -5.165904044E+02  5.439111463E+02  1.250000000E+02  0.00000E+00  9.000E+00
      21     1     1     2   511   502 -1.402690317E+01 -2.685589459E+01  1.996292627E+02  2.019154170E+02  0.000000000E+00  0.00000E+00  9.000E+00
#rwgt            1           1   4.1797594241732024E-002          10      438287           0
</event>
<event>
      5   9999  3.79277E-02  4.21764E+01 -1.00000E+00  1.43427E-01
      21    -1     0     0   512   501  0.000000000E+00  0.000000000E+00  4.865704350E+02  4.865704350E+02  0.000000000E+00  0.00000E+00  9.000E+00
      21    -1     0     0   501   502  0.000000000E+00  0.000000000E+00 -2.430591663E+02  2.430591663E+02  0.000000000E+00  0.00000E+00  9.000E+00
      25     1     1     2     0     0 -1.539288243E+02 -1.175494905E+02  3.054508493E+02  3.826711212E+02  1.250000000E+02  0.00000E+00  9.000E+00
      25     1     1     2     0     0  1.448476016E+02  7.636238563E+01 -1.462831317E+02  2.526574682E+02  1.250000000E+02  0.00000E+00  9.000E+00
      21     1     1     2   512   502  9.081222731E+00  4.118710486E+01  8.434355119E+01  9.430101188E+01  9.536743164E-07  0.00000E+00  9.000E+00
#rwgt            1           1   3.4967054645221339E-002          10      438441           0
</event>
<event>
      5   9999  3.79277E-02  8.17393E+00 -1.00000E+00  2.06457E-01
      21    -1     0     0   502   511  0.000000000E+00  0.000000000E+00  3.291246296E+02  3.291246296E+02  0.000000000E+00  0.00000E+00  9.000E+00
      21    -1     0     0   501   502  0.000000000E+00  0.000000000E+00 -1.156408158E+02  1.156408158E+02  0.000000000E+00  0.00000E+00  9.000E+00
      25     1     1     2     0     0 -1.360545704E+02  3.494390260E+00  1.604704816E+02  2.447423796E+02  1.250000000E+02  0.00000E+00  9.000E+00
      25     1     1     2     0     0  1.345563537E+02  4.541060522E+00  4.633439820E+01  1.894674379E+02  1.250000000E+02  0.00000E+00  9.000E+00
      21     1     1     2   501   511  1.498216693E+00 -8.035450782E+00  6.678933928E+00  1.055562793E+01  0.000000000E+00  0.00000E+00  9.000E+00
#rwgt            1           1   3.5791469854228042E-002          10      438578           0
</event>
<event>
      5   9999  3.79277E-02  6.79573E+01 -1.00000E+00  1.31875E-01
      21    -1     0     0   502   501  0.000000000E+00  0.000000000E+00  1.799934867E+02  1.799934867E+02  0.000000000E+00  0.00000E+00  9.000E+00
      21    -1     0     0   512   502  0.000000000E+00  0.000000000E+00 -6.010832840E+02  6.010832840E+02  0.000000000E+00  0.00000E+00  9.000E+00
      25     1     1     2     0     0  9.776659085E+01 -1.751839672E+02 -9.304606680E+01  2.540281464E+02  1.250000000E+02  0.00000E+00  9.000E+00
      25     1     1     2     0     0 -1.656343786E+02  1.716966330E+02 -9.707814560E+01  2.862929400E+02  1.250000000E+02  0.00000E+00  9.000E+00
      21     1     1     2   512   501  6.786778775E+01  3.487334176E+00 -2.309655849E+02  2.407556843E+02  0.000000000E+00  0.00000E+00  9.000E+00
#rwgt            2          11   1.2512821336954549E-003          10      438768           0
</event>
<event>
      5   9999  3.79277E-02  6.92071E+01 -1.00000E+00  1.31472E-01
      21    -1     0     0   502   511  0.000000000E+00  0.000000000E+00  3.529332102E+02  3.529332102E+02  0.000000000E+00  0.00000E+00  9.000E+00
      21    -1     0     0   501   502  0.000000000E+00  0.000000000E+00 -6.265059571E+02  6.265059571E+02  0.000000000E+00  0.00000E+00  9.000E+00
      25     1     1     2     0     0  1.410516050E+02  1.449608466E+01 -3.656827521E+02  4.116485964E+02  1.250000000E+02  0.00000E+00  9.000E+00
      25     1     1     2     0     0 -1.275190271E+02 -8.236727834E+01 -1.923217537E+02  2.750602257E+02  1.250000000E+02  0.00000E+00  9.000E+00
      21     1     1     2   501   511 -1.353257789E+01  6.787119369E+01  2.844317588E+02  2.927303452E+02  3.814697266E-06  0.00000E+00  9.000E+00
#rwgt            1           1   4.8780835316576350E-002          10      438833           0
</event>
<event>
      5   9999  3.79277E-02  1.83051E+01 -1.00000E+00  1.69606E-01
      21    -1     0     0   512   501  0.000000000E+00  0.000000000E+00  1.715875252E+03  1.715875252E+03  0.000000000E+00  0.00000E+00  9.000E+00
      21    -1     0     0   501   502  0.000000000E+00  0.000000000E+00 -3.873141130E+02  3.873141130E+02  0.000000000E+00  0.00000E+00  9.000E+00
      25     1     1     2     0     0  2.640319088E+01  1.122281649E+02 -1.039364536E+02  1.992989611E+02  1.250000000E+02  0.00000E+00  9.000E+00
      25     1     1     2     0     0 -1.672737737E+01 -9.668929904E+01 -2.088533887E+02  2.624373519E+02  1.250000000E+02  0.00000E+00  9.000E+00
      21     1     1     2   512   502 -9.675813511E+00 -1.553886590E+01  1.641350981E+03  1.641453052E+03  2.157918644E-05  0.00000E+00  9.000E+00
#rwgt            1           1   3.9209073046357561E-002          10      438927           0
</event>
<event>
      5   9999  3.79277E-02  1.85517E+02 -1.00000E+00  1.12850E-01
      21    -1     0     0   502   501  0.000000000E+00  0.000000000E+00  1.022856224E+03  1.022856224E+03  0.000000000E+00  0.00000E+00  9.000E+00
      21    -1     0     0   501   511  0.000000000E+00  0.000000000E+00 -1.212219776E+02  1.212219776E+02  0.000000000E+00  0.00000E+00  9.000E+00
      25     1     1     2     0     0 -1.831814304E+02 -1.538216773E+02  4.166274556E+02  4.964070725E+02  1.250000000E+02  0.00000E+00  9.000E+00
      25     1     1     2     0     0  2.055680882E+02 -3.033933620E+01  2.503426021E+02  3.485328286E+02  1.250000000E+02  0.00000E+00  9.000E+00
      21     1     1     2   502   511 -2.238665785E+01  1.841610135E+02  2.346641885E+02  2.991383003E+02  3.814697266E-06  0.00000E+00  9.000E+00
#rwgt            2          11   2.2219474171304297E-003          10      439196           0
</event>
<event>
      5   9999  3.79277E-02  1.18772E+02 -1.00000E+00  1.20558E-01
      21    -1     0     0   502   501  0.000000000E+00  0.000000000E+00  7.660609886E+02  7.660609886E+02  0.000000000E+00  0.00000E+00  9.000E+00
      21    -1     0     0   501   512  0.000000000E+00  0.000000000E+00 -1.539304271E+02  1.539304271E+02  0.000000000E+00  0.00000E+00  9.000E+00
      25     1     1     2     0     0  1.599111616E+02  9.839896196E+01  4.114741866E+02  4.692440107E+02  1.250000000E+02  0.00000E+00  9.000E+00
      25     1     1     2     0     0 -1.371142504E+02 -2.149627516E+02  1.276700181E+02  3.113421523E+02  1.250000000E+02  0.00000E+00  9.000E+00
      21     1     1     2   502   512 -2.279691123E+01  1.165637897E+02  7.298635673E+01  1.394052527E+02  2.861022949E-06  0.00000E+00  9.000E+00
#rwgt            1           1   3.7425118463881468E-002          10      439246           0
</event>
<event>
      5   9999  4.78779E-02  7.07336E+01 -1.00000E+00  1.30992E-01
      21    -1     0     0   502   511  0.000000000E+00  0.000000000E+00  1.615881614E+02  1.615881614E+02  0.000000000E+00  0.00000E+00  9.000E+00
      21    -1     0     0   501   502  0.000000000E+00  0.000000000E+00 -6.737635348E+02  6.737635348E+02  0.000000000E+00  0.00000E+00  9.000E+00
      25     1     1     2     0     0  1.175425470E+02 -1.917513755E+02 -2.851940629E+02  3.841165108E+02  1.250000000E+02  0.00000E+00  9.000E+00
      25     1     1     2     0     0 -1.689831851E+02  2.403013412E+02 -1.858482768E+02  3.694111983E+02  1.250000000E+02  0.00000E+00  9.000E+00
      21     1     1     2   501   511  5.144063807E+01 -4.854996568E+01 -4.113303373E+01  8.182398717E+01  6.743495762E-07  0.00000E+00  9.000E+00
#rwgt            1           1  0.36935689521976195               10      439331           0
</event>
<event>
      5   9999  3.79277E-02  4.86290E+01 -1.00000E+00  1.39768E-01
      21    -1     0     0   512   501  0.000000000E+00  0.000000000E+00  2.561781757E+02  2.561781757E+02  0.000000000E+00  0.00000E+00  9.000E+00
      21    -1     0     0   501   502  0.000000000E+00  0.000000000E+00 -4.134490005E+02  4.134490005E+02  0.000000000E+00  0.00000E+00  9.000E+00
      25     1     1     2     0     0 -1.798646223E+02 -1.617630924E+02 -2.251884831E+02  3.533460532E+02  1.250000000E+02  0.00000E+00  9.000E+00
      25     1     1     2     0     0  1.930089879E+02  1.149442753E+02  3.989609069E+01  2.601564027E+02  1.250000000E+02  0.00000E+00  9.000E+00
      21     1     1     2   512   502 -1.314436558E+01  4.681881706E+01  2.802156760E+01  5.612472029E+01  9.536743164E-07  0.00000E+00  9.000E+00
#rwgt            1           1   3.3171424956305678E-002          10      439395           0
</event>
<event>
      5   9999  3.79277E-02  6.19719E+01 -1.00000E+00  1.33957E-01
      21    -1     0     0   502   501  0.000000000E+00  0.000000000E+00  2.647737317E+02  2.647737317E+02  0.000000000E+00  0.00000E+00  9.000E+00
      21    -1     0     0   511   502  0.000000000E+00  0.000000000E+00 -5.003413361E+02  5.003413361E+02  0.000000000E+00  0.00000E+00  9.000E+00
      25     1     1     2     0     0 -1.089067037E+02 -5.165569139E+01 -1.338387522E+01  1.741640281E+02  1.250000000E+02  0.00000E+00  9.000E+00
      25     1     1     2     0     0  1.036741409E+02  1.134062421E+02  1.276664497E+02  2.356544623E+02  1.250000000E+02  0.00000E+00  9.000E+00
      21     1     1     2   511   501  5.232562842E+00 -6.175055071E+01 -3.498501789E+02  3.552965774E+02  6.607249480E-06  0.00000E+00  9.000E+00
#rwgt            1           1   4.3957602053633034E-002          10      439637           0
</event>
<event>
      5   9999  3.79277E-02  5.04837E+01 -1.00000E+00  1.38837E-01
      21    -1     0     0   512   501  0.000000000E+00  0.000000000E+00  2.559452915E+02  2.559452915E+02  0.000000000E+00  0.00000E+00  9.000E+00
      21    -1     0     0   501   502  0.000000000E+00  0.000000000E+00 -6.955617579E+02  6.955617579E+02  0.000000000E+00  0.00000E+00  9.000E+00
      25     1     1     2     0     0  2.345894261E+01 -1.534613648E+02 -4.662843338E+02  5.070964331E+02  1.250000000E+02  0.00000E+00  9.000E+00
      25     1     1     2     0     0 -5.330514767E+01  1.127451282E+02 -1.677454146E+02  2.435496393E+02  1.250000000E+02  0.00000E+00  9.000E+00
      21     1     1     2   512   502  2.984620506E+01  4.071623661E+01  1.944132820E+02  2.008609770E+02  2.697398305E-06  0.00000E+00  9.000E+00
#rwgt            2          11   3.1111182298655940E-003          10      439749           0
</event>
<event>
      5   9999  3.79277E-02  2.07340E+01 -1.00000E+00  1.65088E-01
      21    -1     0     0   502   501  0.000000000E+00  0.000000000E+00  2.498037799E+02  2.498037799E+02  0.000000000E+00  0.00000E+00  9.000E+00
      21    -1     0     0   511   502  0.000000000E+00  0.000000000E+00 -1.722296646E+02  1.722296646E+02  0.000000000E+00  0.00000E+00  9.000E+00
      25     1     1     2     0     0  1.610521079E+01 -3.344713551E+01 -7.356562659E+01  1.497163655E+02  1.250000000E+02  0.00000E+00  9.000E+00
      25     1     1     2     0     0 -1.636650747E+01  5.417952264E+01  1.863721323E+02  2.314365030E+02  1.250000000E+02  0.00000E+00  9.000E+00
      21     1     1     2   511   501  2.612966761E-01 -2.073238713E+01 -3.523239046E+01  4.088057594E+01  4.768371582E-07  0.00000E+00  9.000E+00
#rwgt            1           1   4.2304099513761788E-002          10      439769           0
</event>
<event>
      5   9999  3.79277E-02  6.04820E+01 -1.00000E+00  1.34518E-01
      21    -1     0     0   512   501  0.000000000E+00  0.000000000E+00  1.047375526E+02  1.047375526E+02  0.000000000E+00  0.00000E+00  9.000E+00
      21    -1     0     0   501   502  0.000000000E+00  0.000000000E+00 -1.076970611E+03  1.076970611E+03  0.000000000E+00  0.00000E+00  9.000E+00
      25     1     1     2     0     0  9.950452307E+01  1.934832756E+02 -1.680331871E+02  3.019885428E+02  1.250000000E+02  0.00000E+00  9.000E+00
      25     1     1     2     0     0 -6.328442661E+01 -2.419205927E+02 -7.421987671E+02  7.931043448E+02  1.250000000E+02  0.00000E+00  9.000E+00
      21     1     1     2   512   502 -3.622009646E+01  4.843731716E+01 -6.200110388E+01  8.661527558E+01  1.168007728E-06  0.00000E+00  9.000E+00
#rwgt            2          11   4.1878450334662063E-003          10      440024           0
</event>
<event>
      5   9999  3.79277E-02  2.15057E+01 -1.00000E+00  1.63809E-01
      21    -1     0     0   502   501  0.000000000E+00  0.000000000E+00  1.144754092E+03  1.144754092E+03  0.000000000E+00  0.00000E+00  9.000E+00
      21    -1     0     0   501   511  0.000000000E+00  0.000000000E+00 -4.490958348E+02  4.490958348E+02  0.000000000E+00  0.00000E+00  9.000E+00
      25     1     1     2     0     0  1.822062371E+02 -6.422308307E+01  5.252558881E+02  5.734478749E+02  1.250000000E+02  0.00000E+00  9.000E+00
      25     1     1     2     0     0 -1.815393930E+02  4.272768554E+01  5.739405132E+02  6.162912615E+02  1.250000000E+02  0.00000E+00  9.000E+00
      21     1     1     2   502   511 -6.668440736E-01  2.149539754E+01 -4.035381443E+02  4.041107902E+02  9.344061824E-06  0.00000E+00  9.000E+00
#rwgt            1           1   4.4241472492690975E-002          10      440134           0
</event>
<event>
      5   9999  3.79277E-02  9.55433E+01 -1.00000E+00  1.24725E-01
      21    -1     0     0   512   501  0.000000000E+00  0.000000000E+00  1.706394757E+02  1.706394757E+02  0.000000000E+00  0.00000E+00  9.000E+00
      21    -1     0     0   501   502  0.000000000E+00  0.000000000E+00 -5.913509107E+02  5.913509107E+02  0.000000000E+00  0.00000E+00  9.000E+00
      25     1     1     2     0     0 -6.156011465E+01 -1.184360241E+02 -4.832022837E+02  5.166489974E+02  1.250000000E+02  0.00000E+00  9.000E+00
      25     1     1     2     0     0 -9.929909003E+00  5.505066805E+01  1.251398695E+01  1.375164682E+02  1.250000000E+02  0.00000E+00  9.000E+00
      21     1     1     2   512   502  7.149002365E+01  6.338535607E+01  4.997686180E+01  1.078249209E+02  1.784161275E-06  0.00000E+00  9.000E+00
#rwgt            1           1   4.4245880483163462E-002          10      440378           0
</event>
<event>
      5   9999  3.79277E-02  2.22713E+01 -1.00000E+00  1.62605E-01
       2    -1     0     0   502     0  0.000000000E+00  0.000000000E+00  1.505270699E+03  1.505270699E+03  0.000000000E+00  0.00000E+00  9.000E+00
      21    -1     0     0   501   502  0.000000000E+00  0.000000000E+00 -3.872002500E+02  3.872002500E+02  0.000000000E+00  0.00000E+00  9.000E+00
      25     1     1     2     0     0 -3.732083596E+02 -4.964484473E+02  6.876370262E+01  6.372589641E+02  1.250000000E+02  0.00000E+00  9.000E+00
      25     1     1     2     0     0  3.693430010E+02  4.745151645E+02  8.183382739E+02  1.023172236E+03  1.250000000E+02  0.00000E+00  9.000E+00
       2     1     1     2   501     0  3.865358653E+00  2.193328281E+01  2.309684720E+02  2.320397486E+02  0.000000000E+00  0.00000E+00  9.000E+00
#rwgt            1           1   1.5617966386056578E-002          10      440479           0
</event>
<event>
      5   9999  3.79277E-02  1.64312E+02 -1.00000E+00  1.14846E-01
      21    -1     0     0   502   511  0.000000000E+00  0.000000000E+00  2.888835751E+02  2.888835751E+02  0.000000000E+00  0.00000E+00  9.000E+00
      21    -1     0     0   501   502  0.000000000E+00  0.000000000E+00 -3.787559594E+02  3.787559594E+02  0.000000000E+00  0.00000E+00  9.000E+00
      25     1     1     2     0     0  1.011995532E+02  5.142398708E+01  2.561595038E+01  1.707833509E+02  1.250000000E+02  0.00000E+00  9.000E+00
      25     1     1     2     0     0 -2.216515932E+02  6.033308106E+01 -1.830248371E+02  3.192062037E+02  1.250000000E+02  0.00000E+00  9.000E+00
      21     1     1     2   501   511  1.204520400E+02 -1.117570681E+02  6.753650243E+01  1.776499800E+02  3.303624740E-06  0.00000E+00  9.000E+00
#rwgt            1           1   3.5053753664968205E-002          10      440814           0
</event>
<event>
      5   9999  3.79277E-02  5.58636E+01 -1.00000E+00  1.36382E-01
      21    -1     0     0   502   512  0.000000000E+00  0.000000000E+00  6.303972986E+02  6.303972986E+02  0.000000000E+00  0.00000E+00  9.000E+00
      21    -1     0     0   501   502  0.000000000E+00  0.000000000E+00 -2.511866239E+02  2.511866239E+02  0.000000000E+00  0.00000E+00  9.000E+00
      25     1     1     2     0     0  5.525203193E+01  3.192582150E+02  2.446131139E+02  4.247813207E+02  1.250000000E+02  0.00000E+00  9.000E+00
      25     1     1     2     0     0 -1.069687462E+02 -3.403798007E+02  9.986759731E+01  3.910233476E+02  1.250000000E+02  0.00000E+00  9.000E+00
      21     1     1     2   501   512  5.171671428E+01  2.112158569E+01  3.472996354E+01  6.577925422E+01  9.536743164E-07  0.00000E+00  9.000E+00
#rwgt            1           1   4.7731906557035103E-002          10      440892           0
</event>
<event>
      5   9999 -3.79277E-02  7.40559E+01 -1.00000E+00  1.29994E-01
      21    -1     0     0   502   501  0.000000000E+00  0.000000000E+00  2.410997817E+02  2.410997817E+02  0.000000000E+00  0.00000E+00  9.000E+00
       2    -1     0     0   501     0  0.000000000E+00  0.000000000E+00 -1.427472089E+03  1.427472089E+03  0.000000000E+00  0.00000E+00  9.000E+00
      25     1     1     2     0     0  1.635666178E+02 -3.560726468E+01 -1.473700607E+02  2.556655051E+02  1.250000000E+02  0.00000E+00  9.000E+00
      25     1     1     2     0     0 -1.881255731E+02  1.054723702E+02  1.021178314E+02  2.693857895E+02  1.250000000E+02  0.00000E+00  9.000E+00
       2     1     1     2   502     0  2.455895532E+01 -6.986510547E+01 -1.141120078E+03  1.143520576E+03  1.525878906E-05  0.00000E+00  9.000E+00
#rwgt            1           1 -0.26910549591241217               10      441066           0
</event>
<event>
      5   9999  3.79277E-02  3.59689E+01 -1.00000E+00  1.47760E-01
      21    -1     0     0   502   501  0.000000000E+00  0.000000000E+00  1.021774235E+02  1.021774235E+02  0.000000000E+00  0.00000E+00  9.000E+00
      21    -1     0     0   501   511  0.000000000E+00  0.000000000E+00 -1.035524012E+03  1.035524012E+03  0.000000000E+00  0.00000E+00  9.000E+00
      25     1     1     2     0     0 -1.708510570E+02 -1.135522918E-01 -5.673693239E+01  2.191670050E+02  1.250000000E+02  0.00000E+00  9.000E+00
      25     1     1     2     0     0  1.835545782E+02  3.376447727E+01 -6.204187938E+02  6.598308896E+02  1.250000000E+02  0.00000E+00  9.000E+00
      21     1     1     2   502   511 -1.270352114E+01 -3.365092498E+01 -2.561908625E+02  2.587035412E+02  3.814697266E-06  0.00000E+00  9.000E+00
#rwgt            1           1   3.4897702090393667E-002          10      441168           0
</event>
<event>
      5   9999  3.79277E-02  1.77180E+01 -1.00000E+00  1.70831E-01
      21    -1     0     0   512   501  0.000000000E+00  0.000000000E+00  7.721388183E+01  7.721388183E+01  0.000000000E+00  0.00000E+00  9.000E+00
      21    -1     0     0   501   502  0.000000000E+00  0.000000000E+00 -9.387822662E+02  9.387822662E+02  0.000000000E+00  0.00000E+00  9.000E+00
      25     1     1     2     0     0 -9.120329802E+01 -7.218526923E+01 -1.745734241E+02  2.441917998E+02  1.250000000E+02  0.00000E+00  9.000E+00
      25     1     1     2     0     0  9.041940390E+01  5.448462654E+01 -7.178308007E+02  7.362406547E+02  1.250000000E+02  0.00000E+00  9.000E+00
      21     1     1     2   512   502  7.838941206E-01  1.770064268E+01  3.083584049E+01  3.556369357E+01  8.920806376E-07  0.00000E+00  9.000E+00
#rwgt            1           1   4.3229443834540603E-002          10      441326           0
</event>
<event>
      5   9999  3.79277E-02  3.18221E+01 -1.00000E+00  1.51282E-01
      21    -1     0     0   502   501  0.000000000E+00  0.000000000E+00  2.249919008E+02  2.249919008E+02  0.000000000E+00  0.00000E+00  9.000E+00
      21    -1     0     0   501   511  0.000000000E+00  0.000000000E+00 -2.899081161E+02  2.899081161E+02  0.000000000E+00  0.00000E+00  9.000E+00
      25     1     1     2     0     0 -1.329298770E+02  5.236376729E+01  1.252862158E+02  2.274509886E+02  1.250000000E+02  0.00000E+00  9.000E+00
      25     1     1     2     0     0  1.313844314E+02 -2.057923615E+01 -1.720067548E+02  2.507921400E+02  1.250000000E+02  0.00000E+00  9.000E+00
      21     1     1     2   502   511  1.545445566E+00 -3.178453114E+01 -1.819567639E+01  3.665688832E+01  5.331201500E-07  0.00000E+00  9.000E+00
#rwgt            1           1   4.4954791858686498E-002          10      441504           0
</event>
<event>
      5   9999 -3.79277E-02  9.49402E+01 -1.00000E+00  1.24851E-01
      21    -1     0     0   502   501  0.000000000E+00  0.000000000E+00  7.762958343E+01  7.762958343E+01  0.000000000E+00  0.00000E+00  9.000E+00
       2    -1     0     0   501     0  0.000000000E+00  0.000000000E+00 -2.211590217E+03  2.211590217E+03  0.000000000E+00  0.00000E+00  9.000E+00
      25     1     1     2     0     0 -9.431423889E-01 -1.817352259E+02 -2.116516603E+02  3.056959391E+02  1.250000000E+02  0.00000E+00  9.000E+00
      25     1     1     2     0     0 -7.732689075E+01  1.280002772E+02 -2.957624434E+02  3.542088959E+02  1.250000000E+02  0.00000E+00  9.000E+00
       2     1     1     2   502     0  7.827003314E+01  5.373494872E+01 -1.626546530E+03  1.629314965E+03  3.051757812E-05  0.00000E+00  9.000E+00
#rwgt            1           1  -5.5604437422241963E-002          10      441614           0
</event>
<event>
      5   9999  3.79277E-02  2.89778E+01 -1.00000E+00  1.54093E-01
      21    -1     0     0   502   501  0.000000000E+00  0.000000000E+00  5.173588331E+02  5.173588331E+02  0.000000000E+00  0.00000E+00  9.000E+00
      21    -1     0     0   501   511  0.000000000E+00  0.000000000E+00 -1.277713977E+02  1.277713977E+02  0.000000000E+00  0.00000E+00  9.000E+00
      25     1     1     2     0     0 -4.953993580E+01 -3.355937838E+01  4.454261731E+02  4.664867767E+02  1.250000000E+02  0.00000E+00  9.000E+00
      25     1     1     2     0     0  2.747669894E+01  5.234577643E+01 -3.409990013E+01  1.424178798E+02  1.250000000E+02  0.00000E+00  9.000E+00
      21     1     1     2   502   511  2.206323687E+01 -1.878639805E+01 -2.173883765E+01  3.622557432E+01  2.384185791E-07  0.00000E+00  9.000E+00
#rwgt            1           1   5.1825999503108219E-002          10      441720           0
</event>
<event>
      5   9999  3.79277E-02  6.87956E+01 -1.00000E+00  1.31604E-01
      21    -1     0     0   502   501  0.000000000E+00  0.000000000E+00  8.720568208E+01  8.720568208E+01  0.000000000E+00  0.00000E+00  9.000E+00
      21    -1     0     0   512   502  0.000000000E+00  0.000000000E+00 -1.327936471E+03  1.327936471E+03  0.000000000E+00  0.00000E+00  9.000E+00
      25     1     1     2     0     0  1.575444639E+02  1.149912297E+02 -1.564568513E+02  2.795478266E+02  1.250000000E+02  0.00000E+00  9.000E+00
      25     1     1     2     0     0 -1.421754386E+02 -1.820481415E+02 -7.599729459E+02  8.040766504E+02  1.250000000E+02  0.00000E+00  9.000E+00
      21     1     1     2   512   501 -1.536902530E+01  6.705691179E+01 -3.243009912E+02  3.315176756E+02  7.629394531E-06  0.00000E+00  9.000E+00
#rwgt            1           1   3.4015910898006117E-002          10      442129           0
</event>
<event>
      5   9999  3.79277E-02  3.14217E+01 -1.00000E+00  1.51656E-01
      21    -1     0     0   502   501  0.000000000E+00  0.000000000E+00  2.513171060E+01  2.513171060E+01  0.000000000E+00  0.00000E+00  9.000E+00
      21    -1     0     0   511   502  0.000000000E+00  0.000000000E+00 -2.330793721E+03  2.330793721E+03  0.000000000E+00  0.00000E+00  9.000E+00
      25     1     1     2     0     0 -2.608440142E+01 -1.000762632E+02 -1.017113144E+03  1.029970778E+03  1.250000000E+02  0.00000E+00  9.000E+00
      25     1     1     2     0     0  5.042616605E+01  8.020659189E+01 -3.149060194E+02  3.518049128E+02  1.250000000E+02  0.00000E+00  9.000E+00
      21     1     1     2   511   501 -2.434176463E+01  1.986967127E+01 -9.736428469E+02  9.741497414E+02  0.000000000E+00  0.00000E+00  9.000E+00
#rwgt            1           1  0.11509770059012239               10      442223           0
</event>
<event>
      5   9999  3.79277E-02  1.14198E+01 -1.00000E+00  1.89320E-01
      21    -1     0     0   502   501  0.000000000E+00  0.000000000E+00  9.528545281E+01  9.528545281E+01  0.000000000E+00  0.00000E+00  9.000E+00
      21    -1     0     0   501   512  0.000000000E+00  0.000000000E+00 -3.743683874E+02  3.743683874E+02  0.000000000E+00  0.00000E+00  9.000E+00
      25     1     1     2     0     0  9.114054336E+01  3.162889038E+00 -1.962798707E+02  2.499347718E+02  1.250000000E+02  0.00000E+00  9.000E+00
      25     1     1     2     0     0 -1.016613219E+02  1.278454029E+00 -2.775534762E+01  1.634992910E+02  1.250000000E+02  0.00000E+00  9.000E+00
      21     1     1     2   502   512  1.052077857E+01 -4.441343068E+00 -5.504771626E+01  5.621977744E+01  1.168007728E-06  0.00000E+00  9.000E+00
#rwgt            1           1   3.5928748041300189E-002          10      442341           0
</event>
<event>
      5   9999  3.79277E-02  6.33346E+01 -1.00000E+00  1.33460E-01
      21    -1     0     0   502   501  0.000000000E+00  0.000000000E+00  1.049338254E+02  1.049338254E+02  0.000000000E+00  0.00000E+00  9.000E+00
      21    -1     0     0   501   511  0.000000000E+00  0.000000000E+00 -1.296203382E+03  1.296203382E+03  0.000000000E+00  0.00000E+00  9.000E+00
      25     1     1     2     0     0 -5.313570697E+01  4.540425372E+00  4.898734732E+01  1.444603026E+02  1.250000000E+02  0.00000E+00  9.000E+00
      25     1     1     2     0     0  1.791897956E+01  4.810040776E+01 -9.521357888E+02  9.616768165E+02  1.250000000E+02  0.00000E+00  9.000E+00
      21     1     1     2   502   511  3.521672741E+01 -5.264083313E+01 -2.881211152E+02  2.950000885E+02  0.000000000E+00  0.00000E+00  9.000E+00
#rwgt            1           1   5.0616557592292437E-002          10      442483           0
</event>
<event>
      5   9999  3.79277E-02  1.34163E+02 -1.00000E+00  1.18347E-01
      21    -1     0     0   512   501  0.000000000E+00  0.000000000E+00  1.647253037E+02  1.647253037E+02  0.000000000E+00  0.00000E+00  9.000E+00
      21    -1     0     0   501   502  0.000000000E+00  0.000000000E+00 -1.448226969E+03  1.448226969E+03  0.000000000E+00  0.00000E+00  9.000E+00
      25     1     1     2     0     0 -8.492418135E+01 -1.291526532E+02 -3.775322628E+02  4.266709902E+02  1.250000000E+02  0.00000E+00  9.000E+00
      25     1     1     2     0     0 -1.423008434E+01  3.877520102E+01 -1.008731125E+03  1.017285355E+03  1.250000000E+02  0.00000E+00  9.000E+00
      21     1     1     2   512   502  9.915426569E+01  9.037745214E+01  1.027617217E+02  1.689959281E+02  5.223489356E-06  0.00000E+00  9.000E+00
#rwgt            1           1   4.9748324971338471E-002          10      442678           0
</event>
<event>
      5   9999  3.79277E-02  4.94287E+01 -1.00000E+00  1.39361E-01
      21    -1     0     0   502   501  0.000000000E+00  0.000000000E+00  8.613043655E+02  8.613043655E+02  0.000000000E+00  0.00000E+00  9.000E+00
       2    -1     0     0   501     0  0.000000000E+00  0.000000000E+00 -4.982820248E+02  4.982820248E+02  0.000000000E+00  0.00000E+00  9.000E+00
      25     1     1     2     0     0  1.793853847E+02 -1.204681881E+02  5.212422099E+02  5.779361055E+02  1.250000000E+02  0.00000E+00  9.000E+00
      25     1     1     2     0     0 -2.002920902E+02  7.567857043E+01  2.607323266E+02  3.597923200E+02  1.250000000E+02  0.00000E+00  9.000E+00
       2     1     1     2   502     0  2.090670543E+01  4.478961772E+01 -4.189521957E+02  4.218579648E+02  7.629394531E-06  0.00000E+00  9.000E+00
#rwgt            1           1   4.3880895726329527E-002          10      442730           0
</event>
<event>
      5   9999  3.79277E-02  3.86557E+01 -1.00000E+00  1.45767E-01
      21    -1     0     0   502   511  0.000000000E+00  0.000000000E+00  3.152035583E+02  3.152035583E+02  0.000000000E+00  0.00000E+00  9.000E+00
      21    -1     0     0   501   502  0.000000000E+00  0.000000000E+00 -2.333012367E+02  2.333012367E+02  0.000000000E+00  0.00000E+00  9.000E+00
      25     1     1     2     0     0 -1.645989840E+02 -1.451698624E+02  5.815009512E+01  2.591786026E+02  1.250000000E+02  0.00000E+00  9.000E+00
      25     1     1     2     0     0  1.802972162E+02  1.098452537E+02  2.824865220E+00  2.453692031E+02  1.250000000E+02  0.00000E+00  9.000E+00
      21     1     1     2   501   511 -1.569823227E+01  3.532460864E+01  2.092736123E+01  4.395698944E+01  4.129530925E-07  0.00000E+00  9.000E+00
#rwgt            1           1   3.3791245276073349E-002          10      442857           0
</event>
<event>
      5   9999  3.79277E-02  3.70475E+01 -1.00000E+00  1.46936E-01
      21    -1     0     0   512   501  0.000000000E+00  0.000000000E+00  3.660410590E+02  3.660410590E+02  0.000000000E+00  0.00000E+00  9.000E+00
      21    -1     0     0   501   502  0.000000000E+00  0.000000000E+00 -2.132410029E+02  2.132410029E+02  0.000000000E+00  0.00000E+00  9.000E+00
      25     1     1     2     0     0 -1.914434470E+02 -3.893049644E+01  1.138856072E+02  2.583817108E+02  1.250000000E+02  0.00000E+00  9.000E+00
      25     1     1     2     0     0  1.566175312E+02  5.156658609E+01 -5.986701599E+01  2.154001473E+02  1.250000000E+02  0.00000E+00  9.000E+00
      21     1     1     2   512   502  3.482591579E+01 -1.263608965E+01  9.878146495E+01  1.055002037E+02  1.348699152E-06  0.00000E+00  9.000E+00
#rwgt            1           1   4.6366894105390459E-002          10      443040           0
</event>
<event>
      5   9999  3.79277E-02  9.67477E+01 -1.00000E+00  1.24477E-01
       1    -1     0     0   502     0  0.000000000E+00  0.000000000E+00  1.816173218E+03  1.816173218E+03  0.000000000E+00  0.00000E+00  9.000E+00
      21    -1     0     0   501   502  0.000000000E+00  0.000000000E+00 -1.396998016E+02  1.396998016E+02  0.000000000E+00  0.00000E+00  9.000E+00
      25     1     1     2     0     0  1.282677649E+02  1.441439364E+02  1.514725390E+02  2.753162254E+02  1.250000000E+02  0.00000E+00  9.000E+00
      25     1     1     2     0     0 -1.416446074E+02 -4.832549347E+01  4.856304281E+01  2.009525249E+02  1.250000000E+02  0.00000E+00  9.000E+00
       1     1     1     2   501     0  1.337684253E+01 -9.581844294E+01  1.476437835E+03  1.479604269E+03  0.000000000E+00  0.00000E+00  9.000E+00
#rwgt            1           1   3.5854700724096397E-002          10      443235           0
</event>
<event>
      5   9999  3.79277E-02  4.20634E+01 -1.00000E+00  1.43498E-01
      21    -1     0     0   502   511  0.000000000E+00  0.000000000E+00  3.561503606E+02  3.561503606E+02  0.000000000E+00  0.00000E+00  9.000E+00
      21    -1     0     0   501   502  0.000000000E+00  0.000000000E+00 -2.315821591E+02  2.315821591E+02  0.000000000E+00  0.00000E+00  9.000E+00
      25     1     1     2     0     0 -1.294079385E+02  1.019981907E+02 -7.148007732E+01  2.188251514E+02  1.250000000E+02  0.00000E+00  9.000E+00
      25     1     1     2     0     0  1.009349603E+02 -1.329597018E+02  4.664832274E+01  2.136988875E+02  1.250000000E+02  0.00000E+00  9.000E+00
      21     1     1     2   501   511  2.847297816E+01  3.096151107E+01  1.493999560E+02  1.552084808E+02  0.000000000E+00  0.00000E+00  9.000E+00
#rwgt            1           1   3.8675789765610397E-002          10      443292           0
</event>
<event>
      5   9999  3.79277E-02  2.35616E+01 -1.00000E+00  1.60703E-01
      21    -1     0     0   502   501  0.000000000E+00  0.000000000E+00  3.849020631E+02  3.849020631E+02  0.000000000E+00  0.00000E+00  9.000E+00
       2    -1     0     0   501     0  0.000000000E+00  0.000000000E+00 -1.090476901E+03  1.090476901E+03  0.000000000E+00  0.00000E+00  9.000E+00
      25     1     1     2     0     0  2.763988534E+02  1.086688160E+02 -1.165921572E+02  3.426718092E+02  1.250000000E+02  0.00000E+00  9.000E+00
      25     1     1     2     0     0 -2.542009417E+02 -1.007692354E+02  1.885010696E+02  3.548664690E+02  1.250000000E+02  0.00000E+00  9.000E+00
       2     1     1     2   502     0 -2.219791164E+01 -7.899580618E+00 -7.774837503E+02  7.778406859E+02  1.078959322E-05  0.00000E+00  9.000E+00
#rwgt            1           1   3.8278357454619411E-002          10      443438           0
</event>
<event>
      5   9999  3.79277E-02  4.53199E+01 -1.00000E+00  1.41555E-01
       1    -1     0     0   502     0  0.000000000E+00  0.000000000E+00  1.922103375E+02  1.922103375E+02  0.000000000E+00  0.00000E+00  9.000E+00
      21    -1     0     0   501   502  0.000000000E+00  0.000000000E+00 -6.859253347E+02  6.859253347E+02  0.000000000E+00  0.00000E+00  9.000E+00
      25     1     1     2     0     0  5.178121607E+01 -2.343948959E+02 -2.811096818E+02  3.902177786E+02  1.250000000E+02  0.00000E+00  9.000E+00
      25     1     1     2     0     0 -8.594736030E+00  2.206535114E+02 -2.979065934E+02  3.913249033E+02  1.250000000E+02  0.00000E+00  9.000E+00
       1     1     1     2   501     0 -4.318648004E+01  1.374138449E+01  8.530127808E+01  9.659299016E+01  1.348699152E-06  0.00000E+00  9.000E+00
#rwgt            1           1   3.2142606519656780E-002          10      443799           0
</event>
<event>
      5   9999  3.79277E-02  4.32622E+01 -1.00000E+00  1.42760E-01
      21    -1     0     0   502   501  0.000000000E+00  0.000000000E+00  1.118346711E+03  1.118346711E+03  0.000000000E+00  0.00000E+00  9.000E+00
      21    -1     0     0   501   511  0.000000000E+00  0.000000000E+00 -9.739203435E+01  9.739203435E+01  0.000000000E+00  0.00000E+00  9.000E+00
      25     1     1     2     0     0 -9.778904844E+01 -5.477155237E+01  8.916262638E+01  1.900989082E+02  1.250000000E+02  0.00000E+00  9.000E+00
      25     1     1     2     0     0  8.762492671E+01  9.682280315E+01  9.581015242E+02  9.750058019E+02  1.250000000E+02  0.00000E+00  9.000E+00
      21     1     1     2   502   511  1.016412173E+01 -4.205125078E+01 -2.630947426E+01  5.063403498E+01  1.305872339E-06  0.00000E+00  9.000E+00
#rwgt            1           1   2.6661329778184389E-002          10      443912           0
</event>
<event>
      5   9999 -3.79277E-02  1.89341E+01 -1.00000E+00  1.68356E-01
      21    -1     0     0   502   501  0.000000000E+00  0.000000000E+00  5.631143980E+01  5.631143980E+01  0.000000000E+00  0.00000E+00  9.000E+00
      21    -1     0     0   512   502  0.000000000E+00  0.000000000E+00 -7.021163961E+02  7.021163961E+02  0.000000000E+00  0.00000E+00  9.000E+00
      25     1     1     2     0     0  2.303275904E+01 -8.454049891E+01 -5.271969942E+02  5.488526894E+02  1.250000000E+02  0.00000E+00  9.000E+00
      25     1     1     2     0     0 -2.185959486E+01  6.564274146E+01 -7.352809717E+01  1.606804047E+02  1.250000000E+02  0.00000E+00  9.000E+00
      21     1     1     2   512   501 -1.173164184E+00  1.889775745E+01 -4.507986495E+01  4.889474179E+01  0.000000000E+00  0.00000E+00  9.000E+00
#rwgt            1           1  -3.9255722188610370E-002          10      444050           0
</event>
<event>
      5   9999  3.79277E-02  6.46766E+01 -1.00000E+00  1.32984E-01
      21    -1     0     0   502   511  0.000000000E+00  0.000000000E+00  1.420425485E+02  1.420425485E+02  0.000000000E+00  0.00000E+00  9.000E+00
      21    -1     0     0   501   502  0.000000000E+00  0.000000000E+00 -1.023949068E+03  1.023949068E+03  0.000000000E+00  0.00000E+00  9.000E+00
      25     1     1     2     0     0  1.133763627E+02 -6.229225883E+01 -8.130131721E+02  8.326763736E+02  1.250000000E+02  0.00000E+00  9.000E+00
      25     1     1     2     0     0 -4.881141028E+01  6.609134862E+01 -1.616465749E+02  2.202390413E+02  1.250000000E+02  0.00000E+00  9.000E+00
      21     1     1     2   501   511 -6.456495239E+01 -3.799089789E+00  9.275322744E+01  1.130762016E+02  0.000000000E+00  0.00000E+00  9.000E+00
#rwgt            1           1   4.5538883045558351E-002          10      444200           0
</event>
<event>
      5   9999  3.79277E-02  2.97551E+01 -1.00000E+00  1.53288E-01
      21    -1     0     0   502   512  0.000000000E+00  0.000000000E+00  1.959487607E+03  1.959487607E+03  0.000000000E+00  0.00000E+00  9.000E+00
      21    -1     0     0   501   502  0.000000000E+00  0.000000000E+00 -2.067412475E+01  2.067412475E+01  0.000000000E+00  0.00000E+00  9.000E+00
      25     1     1     2     0     0 -4.859299127E+01  7.064820082E+01  1.278508760E+03  1.287463435E+03  1.250000000E+02  0.00000E+00  9.000E+00
      25     1     1     2     0     0  7.799575371E+01 -7.521363874E+01  4.342173400E+02  4.646613039E+02  1.250000000E+02  0.00000E+00  9.000E+00
      21     1     1     2   501   512 -2.940276244E+01  4.565437925E+00  2.260873830E+02  2.280369936E+02  2.697398305E-06  0.00000E+00  9.000E+00
#rwgt            1           1  0.11084158314631286               10      444236           0
</event>
<event>
      5   9999  3.79277E-02  4.41905E+01 -1.00000E+00  1.42207E-01
       2    -1     0     0   502     0  0.000000000E+00  0.000000000E+00  4.297767408E+03  4.297767408E+03  0.000000000E+00  0.00000E+00  9.000E+00
      21    -1     0     0   501   502  0.000000000E+00  0.000000000E+00 -5.062435788E+01  5.062435788E+01  0.000000000E+00  0.00000E+00  9.000E+00
      25     1     1     2     0     0 -8.971058533E+01 -1.146962941E+02  3.102413277E+02  3.647984518E+02  1.250000000E+02  0.00000E+00  9.000E+00
      25     1     1     2     0     0  1.144789378E+02  7.809944165E+01  3.519575464E+02  3.983767870E+02  1.250000000E+02  0.00000E+00  9.000E+00
       2     1     1     2   501     0 -2.476835242E+01  3.659685244E+01  3.584944176E+03  3.585216527E+03  4.315837288E-05  0.00000E+00  9.000E+00
#rwgt            1           1   4.1203673646403101E-002          10      444359           0
</event>
<event>
      5   9999  3.79277E-02  6.54284E+01 -1.00000E+00  1.32724E-01
       1    -1     0     0   502     0  0.000000000E+00  0.000000000E+00  1.335186135E+03  1.335186135E+03  0.000000000E+00  0.00000E+00  9.000E+00
      21    -1     0     0   501   502  0.000000000E+00  0.000000000E+00 -1.183744674E+02  1.183744674E+02  0.000000000E+00  0.00000E+00  9.000E+00
      25     1     1     2     0     0  3.550772606E+00  9.493263870E+01  4.002784846E+02  4.299682303E+02  1.250000000E+02  0.00000E+00  9.000E+00
      25     1     1     2     0     0 -3.512362607E+01 -1.522390903E+02 -4.320595897E+00  2.001351475E+02  1.250000000E+02  0.00000E+00  9.000E+00
       1     1     1     2   501     0  3.157285346E+01  5.730645158E+01  8.208537793E+02  8.234572250E+02  1.078959322E-05  0.00000E+00  9.000E+00
#rwgt            1           1   4.2778502790464461E-002          10      444498           0
</event>
<event>
      5   9999  3.79277E-02  9.94799E+00 -1.00000E+00  1.96019E-01
      21    -1     0     0   502   501  0.000000000E+00  0.000000000E+00  4.720088604E+02  4.720088604E+02  0.000000000E+00  0.00000E+00  9.000E+00
      21    -1     0     0   501   511  0.000000000E+00  0.000000000E+00 -1.796650166E+02  1.796650166E+02  0.000000000E+00  0.00000E+00  9.000E+00
      25     1     1     2     0     0  2.089289302E+02  1.030205469E+02  6.222911065E+01  2.715915926E+02  1.250000000E+02  0.00000E+00  9.000E+00
      25     1     1     2     0     0 -2.152687881E+02 -9.535446576E+01  2.450827041E+02  3.621100069E+02  1.250000000E+02  0.00000E+00  9.000E+00
      21     1     1     2   502   511  6.339857931E+00 -7.666081183E+00 -1.496797098E+01  1.797227739E+01  2.920019320E-07  0.00000E+00  9.000E+00
#rwgt            1           1   2.7443459574650199E-002          10      444563           0
</event>
<event>
      5   9999  3.79277E-02  1.30434E+01 -1.00000E+00  1.83300E-01
      21    -1     0     0   502   512  0.000000000E+00  0.000000000E+00  1.074975458E+02  1.074975458E+02  0.000000000E+00  0.00000E+00  9.000E+00
      21    -1     0     0   501   502  0.000000000E+00  0.000000000E+00 -7.748069588E+02  7.748069588E+02  0.000000000E+00  0.00000E+00  9.000E+00
      25     1     1     2     0     0  8.375614861E+01 -2.268312576E+02 -3.427634706E+02  4.376977366E+02  1.250000000E+02  0.00000E+00  9.000E+00
      25     1     1     2     0     0 -9.566320701E+01  2.321559852E+02 -3.275387539E+02  4.312244033E+02  1.250000000E+02  0.00000E+00  9.000E+00
      21     1     1     2   501   512  1.190705840E+01 -5.324727607E+00  2.992811540E+00  1.338236469E+01  3.397987560E-07  0.00000E+00  9.000E+00
#rwgt            1           1   3.3227326614556532E-002          10      444851           0
</event>
<event>
      5   9999  3.79277E-02  3.51710E+01 -1.00000E+00  1.48393E-01
      -1    -1     0     0     0   501  0.000000000E+00  0.000000000E+00  7.563223963E+02  7.563223963E+02  0.000000000E+00  0.00000E+00  9.000E+00
      21    -1     0     0   501   502  0.000000000E+00  0.000000000E+00 -5.682568488E+01  5.682568488E+01  0.000000000E+00  0.00000E+00  9.000E+00
      25     1     1     2     0     0 -5.496602205E+00  1.269893005E+02  1.774651261E+02  2.515459522E+02  1.250000000E+02  0.00000E+00  9.000E+00
      25     1     1     2     0     0  3.679903112E+01 -1.109532689E+02  4.136340420E+02  4.476415053E+02  1.250000000E+02  0.00000E+00  9.000E+00
      -1     1     1     2     0   502 -3.130242892E+01 -1.603603157E+01  1.083975432E+02  1.139606237E+02  1.348699152E-06  0.00000E+00  9.000E+00
#rwgt            1           1   3.8325503038289702E-002          10      445026           0
</event>
<event>
      5   9999  3.79277E-02  8.94890E+01 -1.00000E+00  1.26037E-01
      21    -1     0     0   502   501  0.000000000E+00  0.000000000E+00  2.492433014E+02  2.492433014E+02  0.000000000E+00  0.00000E+00  9.000E+00
       2    -1     0     0   501     0  0.000000000E+00  0.000000000E+00 -3.240828552E+03  3.240828552E+03  0.000000000E+00  0.00000E+00  9.000E+00
      25     1     1     2     0     0  8.653123642E+01 -2.080499793E+01 -2.407554974E+02  2.854973071E+02  1.250000000E+02  0.00000E+00  9.000E+00
      25     1     1     2     0     0 -2.715354276E+01  8.775697402E+01  1.995977836E+02  2.527901830E+02  1.250000000E+02  0.00000E+00  9.000E+00
       2     1     1     2   502     0 -5.937769367E+01 -6.695197609E+01 -2.950427537E+03  2.951784363E+03  4.315837288E-05  0.00000E+00  9.000E+00
#rwgt            1           1   4.1042222441058353E-002          10      445163           0
</event>
<event>
      5   9999 -3.79277E-02  5.41117E+00 -1.00000E+00  2.32672E-01
      21    -1     0     0   511   501  0.000000000E+00  0.000000000E+00  2.093579247E+03  2.093579247E+03  0.000000000E+00  0.00000E+00  9.000E+00
      21    -1     0     0   501   502  0.000000000E+00  0.000000000E+00 -3.702990853E+02  3.702990853E+02  0.000000000E+00  0.00000E+00  9.000E+00
      25     1     1     2     0     0 -7.825979335E+01 -9.851952937E+01 -8.028410687E+01  1.946823843E+02  1.250000000E+02  0.00000E+00  9.000E+00
      25     1     1     2     0     0  8.333706787E+01  1.003909053E+02 -1.977534488E+02  2.678709153E+02  1.250000000E+02  0.00000E+00  9.000E+00
      21     1     1     2   511   502 -5.077274522E+00 -1.871375930E+00  2.001317717E+03  2.001325032E+03  0.000000000E+00  0.00000E+00  9.000E+00
#rwgt            1           1  -8.4271279485899811E-002          10      445303           0
</event>
<event>
      5   9999  3.79277E-02  2.42914E+01 -1.00000E+00  1.59692E-01
      21    -1     0     0   502   501  0.000000000E+00  0.000000000E+00  1.625016116E+01  1.625016116E+01  0.000000000E+00  0.00000E+00  9.000E+00
      21    -1     0     0   512   502  0.000000000E+00  0.000000000E+00 -1.967087604E+03  1.967087604E+03  0.000000000E+00  0.00000E+00  9.000E+00
      25     1     1     2     0     0  6.547727994E+01 -2.545025870E+01 -8.226983977E+02  8.351003793E+02  1.250000000E+02  0.00000E+00  9.000E+00
      25     1     1     2     0     0 -8.661790747E+01  3.741463354E+01 -6.185147961E+02  6.380345364E+02  1.250000000E+02  0.00000E+00  9.000E+00
      21     1     1     2   512   501  2.114062753E+01 -1.196437484E+01 -5.096242489E+02  5.102028493E+02  7.629394531E-06  0.00000E+00  9.000E+00
#rwgt            1           1   3.2191022844562656E-002          10      445783           0
</event>
<event>
      5   9999  3.79277E-02  1.08237E+02 -1.00000E+00  1.22301E-01
      21    -1     0     0   502   501  0.000000000E+00  0.000000000E+00  2.308693186E+02  2.308693186E+02  0.000000000E+00  0.00000E+00  9.000E+00
      21    -1     0     0   501   511  0.000000000E+00  0.000000000E+00 -7.208737802E+02  7.208737802E+02  0.000000000E+00  0.00000E+00  9.000E+00
      25     1     1     2     0     0  2.831911438E+01 -1.657199246E+02  5.741183633E+01  2.172238123E+02  1.250000000E+02  0.00000E+00  9.000E+00
      25     1     1     2     0     0 -1.201789551E+02  1.084749494E+02 -3.098716029E+01  2.068695241E+02  1.250000000E+02  0.00000E+00  9.000E+00
      21     1     1     2   502   511  9.185984076E+01  5.724497520E+01 -5.164291376E+02  5.276497624E+02  0.000000000E+00  0.00000E+00  9.000E+00
#rwgt            1           1   4.5507989494972284E-002          10      445913           0
</event>
<event>
      5   9999  3.79277E-02  2.67716E+01 -1.00000E+00  1.56556E-01
      21    -1     0     0   502   501  0.000000000E+00  0.000000000E+00  1.165973557E+03  1.165973557E+03  0.000000000E+00  0.00000E+00  9.000E+00
      -4    -1     0     0     0   502  0.000000000E+00  0.000000000E+00 -1.435941401E+02  1.435941401E+02  0.000000000E+00  0.00000E+00  9.000E+00
      25     1     1     2     0     0 -1.153149299E+02  1.454448006E+01  1.082317958E+03  1.095694409E+03  1.250000000E+02  0.00000E+00  9.000E+00
      25     1     1     2     0     0  8.906500915E+01 -9.285327173E+00 -6.264282492E+00  1.538929316E+02  1.250000000E+02  0.00000E+00  9.000E+00
      -4     1     1     2     0   501  2.624992075E+01 -5.259152889E+00 -5.367425927E+01  5.998035626E+01  1.507891493E-06  0.00000E+00  9.000E+00
#rwgt            1           1   6.9992791392089110E-002          10      446014           0
</event>
<event>
      5   9999  3.79277E-02  7.05676E+01 -1.00000E+00  1.31043E-01
      21    -1     0     0   502   511  0.000000000E+00  0.000000000E+00  3.519803052E+02  3.519803052E+02  0.000000000E+00  0.00000E+00  9.000E+00
      21    -1     0     0   501   502  0.000000000E+00  0.000000000E+00 -1.661793761E+03  1.661793761E+03  0.000000000E+00  0.00000E+00  9.000E+00
      25     1     1     2     0     0  1.906649652E+02  1.284970869E+02 -1.338495335E+03  1.363839944E+03  1.250000000E+02  0.00000E+00  9.000E+00
      25     1     1     2     0     0 -2.205722795E+02 -6.458039866E+01 -2.503549768E+02  3.621123759E+02  1.250000000E+02  0.00000E+00  9.000E+00
      21     1     1     2   501   511  2.990731429E+01 -6.391668824E+01  2.790368563E+02  2.878217464E+02  7.629394531E-06  0.00000E+00  9.000E+00
#rwgt            1           1   4.1883499760545798E-002          10      446189           0
</event>
<event>
      5   9999  3.79277E-02  3.84966E+01 -1.00000E+00  1.45880E-01
      21    -1     0     0   512   501  0.000000000E+00  0.000000000E+00  6.227277360E+02  6.227277360E+02  0.000000000E+00  0.00000E+00  9.000E+00
      21    -1     0     0   501   502  0.000000000E+00  0.000000000E+00 -5.012376826E+02  5.012376826E+02  0.000000000E+00  0.00000E+00  9.000E+00
      25     1     1     2     0     0  2.683945980E+02 -1.571857934E+02  4.893371642E+01  3.387662062E+02  1.250000000E+02  0.00000E+00  9.000E+00
      25     1     1     2     0     0 -3.040756518E+02  1.716375183E+02 -2.583981259E+02  4.520133086E+02  1.250000000E+02  0.00000E+00  9.000E+00
      21     1     1     2   512   502  3.568105376E+01 -1.445172490E+01  3.309544629E+02  3.331859038E+02  7.629394531E-06  0.00000E+00  9.000E+00
#rwgt            1           1   3.1258417536821917E-002          10      446254           0
</event>
<event>
      5   9999  3.79277E-02  1.48297E+01 -1.00000E+00  1.77852E-01
      21    -1     0     0   511   501  0.000000000E+00  0.000000000E+00  2.537535520E+02  2.537535520E+02  0.000000000E+00  0.00000E+00  9.000E+00
      21    -1     0     0   501   502  0.000000000E+00  0.000000000E+00 -1.980099457E+02  1.980099457E+02  0.000000000E+00  0.00000E+00  9.000E+00
      25     1     1     2     0     0  1.593389933E+01 -9.803946857E+01 -1.211918153E+02  2.004447122E+02  1.250000000E+02  0.00000E+00  9.000E+00
      25     1     1     2     0     0 -3.155819298E+00  1.055654698E+02  1.628407874E+02  2.308595886E+02  1.250000000E+02  0.00000E+00  9.000E+00
      21     1     1     2   511   502 -1.277808004E+01 -7.526001196E+00  1.409463417E+01  2.045919685E+01  3.769728732E-07  0.00000E+00  9.000E+00
#rwgt            1           1   3.6108569339942553E-002          10      446424           0
</event>
<event>
      5   9999  3.79277E-02  1.81858E+01 -1.00000E+00  1.69850E-01
      21    -1     0     0   512   501  0.000000000E+00  0.000000000E+00  4.885061591E+01  4.885061591E+01  0.000000000E+00  0.00000E+00  9.000E+00
      21    -1     0     0   501   502  0.000000000E+00  0.000000000E+00 -1.358933002E+03  1.358933002E+03  0.000000000E+00  0.00000E+00  9.000E+00
      25     1     1     2     0     0  1.698276157E+01 -1.056376009E+02 -1.156380551E+03  1.168027695E+03  1.250000000E+02  0.00000E+00  9.000E+00
      25     1     1     2     0     0  1.192741202E+00  1.062489109E+02 -1.472812786E+02  2.204700177E+02  1.250000000E+02  0.00000E+00  9.000E+00
      21     1     1     2   512   502 -1.817550277E+01 -6.113100447E-01 -6.420556478E+00  1.928590538E+01  2.230201594E-07  0.00000E+00  9.000E+00
#rwgt            1           1   4.1695512943538342E-002          10      446684           0
</event>
<event>
      5   9999  3.79277E-02  4.87607E+01 -1.00000E+00  1.39700E-01
      21    -1     0     0   502   501  0.000000000E+00  0.000000000E+00  6.163644904E+02  6.163644904E+02  0.000000000E+00  0.00000E+00  9.000E+00
      21    -1     0     0   511   502  0.000000000E+00  0.000000000E+00 -9.246218485E+01  9.246218485E+01  0.000000000E+00  0.00000E+00  9.000E+00
      25     1     1     2     0     0  5.294360465E+01 -3.864906168E+01  5.104795847E+02  5.296330632E+02  1.250000000E+02  0.00000E+00  9.000E+00
      25     1     1     2     0     0 -3.473217511E+01 -6.583159289E+00  1.114432840E+01  1.303796688E+02  1.250000000E+02  0.00000E+00  9.000E+00
      21     1     1     2   511   501 -1.821142954E+01  4.523222097E+01  2.278392391E+00  4.881394321E+01  1.383161710E-06  0.00000E+00  9.000E+00
#rwgt            1           1   4.2725445064653221E-002          10      446851           0
</event>
<event>
      5   9999  3.79277E-02  5.25570E+01 -1.00000E+00  1.37851E-01
      21    -1     0     0   502   501  0.000000000E+00  0.000000000E+00  5.595123940E+02  5.595123940E+02  0.000000000E+00  0.00000E+00  9.000E+00
      21    -1     0     0   501   512  0.000000000E+00  0.000000000E+00 -1.324326416E+02  1.324326416E+02  0.000000000E+00  0.00000E+00  9.000E+00
      25     1     1     2     0     0 -1.506995972E+02  9.216505404E+01  5.222331033E+01  2.226141054E+02  1.250000000E+02  0.00000E+00  9.000E+00
      25     1     1     2     0     0  1.385026998E+02 -4.104290604E+01  3.701825838E+02  4.165665173E+02  1.250000000E+02  0.00000E+00  9.000E+00
      21     1     1     2   502   512  1.219689745E+01 -5.112214800E+01  4.673858316E+00  5.276441296E+01  1.087682700E-06  0.00000E+00  9.000E+00
#rwgt            1           1   3.8783378177458985E-002          10      446983           0
</event>
<event>
      5   9999  3.79277E-02  7.71119E+01 -1.00000E+00  1.29127E-01
      21    -1     0     0   502   501  0.000000000E+00  0.000000000E+00  3.033627046E+01  3.033627046E+01  0.000000000E+00  0.00000E+00  9.000E+00
       2    -1     0     0   501     0  0.000000000E+00  0.000000000E+00 -2.586878721E+03  2.586878721E+03  0.000000000E+00  0.00000E+00  9.000E+00
      25     1     1     2     0     0  8.603641577E+01 -1.299911200E+02 -5.212951506E+02  5.582773416E+02  1.250000000E+02  0.00000E+00  9.000E+00
      25     1     1     2     0     0 -2.650699292E+01  1.790063119E+02 -1.187855049E+03  1.208044079E+03  1.250000000E+02  0.00000E+00  9.000E+00
       2     1     1     2   502     0 -5.952942285E+01 -4.901519184E+01 -8.473922511E+02  8.508935706E+02  1.525878906E-05  0.00000E+00  9.000E+00
#rwgt            1           1   2.6964561758196115E-002          10      447144           0
</event>
<event>
      5   9999  3.79277E-02  3.16451E+01 -1.00000E+00  1.51447E-01
      21    -1     0     0   502   511  0.000000000E+00  0.000000000E+00  1.510730101E+02  1.510730101E+02  0.000000000E+00  0.00000E+00  9.000E+00
      21    -1     0     0   501   502  0.000000000E+00  0.000000000E+00 -2.602060431E+02  2.602060431E+02  0.000000000E+00  0.00000E+00  9.000E+00
      25     1     1     2     0     0 -8.854828642E+01  4.174479337E+01 -1.145166307E+02  1.957612973E+02  1.250000000E+02  0.00000E+00  9.000E+00
      25     1     1     2     0     0  8.009386396E+01 -7.223967877E+01 -3.026170575E+01  1.678522239E+02  1.250000000E+02  0.00000E+00  9.000E+00
      21     1     1     2   501   511  8.454422457E+00  3.049488540E+01  3.564530344E+01  4.766553212E+01  6.743495762E-07  0.00000E+00  9.000E+00
#rwgt            1           1   4.1163813447779342E-002          10      447283           0
</event>
<event>
      5   9999  3.79277E-02  4.59568E+01 -1.00000E+00  1.41198E-01
      21    -1     0     0   502   501  0.000000000E+00  0.000000000E+00  9.071964862E+01  9.071964862E+01  0.000000000E+00  0.00000E+00  9.000E+00
      21    -1     0     0   512   502  0.000000000E+00  0.000000000E+00 -7.410798551E+02  7.410798551E+02  0.000000000E+00  0.00000E+00  9.000E+00
      25     1     1     2     0     0 -5.304834428E+01  4.978938192E+01 -1.804813279E+02  2.312825525E+02  1.250000000E+02  0.00000E+00  9.000E+00
      25     1     1     2     0     0  9.619970968E+01 -3.397849604E+01 -3.743250969E+01  1.656354887E+02  1.250000000E+02  0.00000E+00  9.000E+00
      21     1     1     2   512   501 -4.315136541E+01 -1.581088588E+01 -4.324463688E+02  4.348814624E+02  5.394796609E-06  0.00000E+00  9.000E+00
#rwgt            1           1   3.6194344175527859E-002          10      447389           0
</event>
<event>
      5   9999  3.79277E-02  1.10294E+02 -1.00000E+00  1.21944E-01
      21    -1     0     0   502   501  0.000000000E+00  0.000000000E+00  2.064869969E+02  2.064869969E+02  0.000000000E+00  0.00000E+00  9.000E+00
      21    -1     0     0   511   502  0.000000000E+00  0.000000000E+00 -7.170550548E+02  7.170550548E+02  0.000000000E+00  0.00000E+00  9.000E+00
      25     1     1     2     0     0  1.408844852E+02 -1.982036984E+02  5.653476831E+01  2.792030162E+02  1.250000000E+02  0.00000E+00  9.000E+00
      25     1     1     2     0     0 -6.215756169E+01  1.209590902E+02 -2.674878962E+02  3.250683598E+02  1.250000000E+02  0.00000E+00  9.000E+00
      21     1     1     2   511   501 -7.872692349E+01  7.724460825E+01 -2.996149301E+02  3.192706756E+02  3.814697266E-06  0.00000E+00  9.000E+00
#rwgt            2          11   1.5091991555287508E-003          10      447641           0
</event>
<event>
      5   9999  3.79277E-02  1.22037E+02 -1.00000E+00  1.20059E-01
      21    -1     0     0   512   501  0.000000000E+00  0.000000000E+00  6.114869122E+02  6.114869122E+02  0.000000000E+00  0.00000E+00  9.000E+00
      21    -1     0     0   501   502  0.000000000E+00  0.000000000E+00 -3.392535486E+02  3.392535486E+02  0.000000000E+00  0.00000E+00  9.000E+00
      25     1     1     2     0     0 -1.119337576E+02  2.553674375E+02 -6.944398128E+01  3.133514971E+02  1.250000000E+02  0.00000E+00  9.000E+00
      25     1     1     2     0     0  1.204080547E+02 -3.771099446E+02  2.482703348E+02  4.837077310E+02  1.250000000E+02  0.00000E+00  9.000E+00
      21     1     1     2   512   502 -8.474297037E+00  1.217425071E+02  9.340701001E+01  1.536812326E+02  2.336015456E-06  0.00000E+00  9.000E+00
#rwgt            1           1   3.3490334469807856E-002          10      447781           0
</event>
<event>
      5   9999  3.79277E-02  5.06224E+01 -1.00000E+00  1.38770E-01
      21    -1     0     0   502   501  0.000000000E+00  0.000000000E+00  1.236557113E+02  1.236557113E+02  0.000000000E+00  0.00000E+00  9.000E+00
       2    -1     0     0   501     0  0.000000000E+00  0.000000000E+00 -7.181573677E+02  7.181573677E+02  0.000000000E+00  0.00000E+00  9.000E+00
      25     1     1     2     0     0 -8.821039803E+01 -1.829510033E+02 -3.830014302E+02  4.511842633E+02  1.250000000E+02  0.00000E+00  9.000E+00
      25     1     1     2     0     0  1.314521096E+02  2.092716755E+02 -1.886106372E+02  3.350720277E+02  1.250000000E+02  0.00000E+00  9.000E+00
       2     1     1     2   502     0 -4.324171160E+01 -2.632067218E+01 -2.288958908E+01  5.555678802E+01  4.768371582E-07  0.00000E+00  9.000E+00
#rwgt            1           1   4.3878928333317690E-002          10      447952           0
</event>
<event>
      5   9999  3.79277E-02  9.07069E+01 -1.00000E+00  1.25764E-01
      21    -1     0     0   502   511  0.000000000E+00  0.000000000E+00  6.432576073E+02  6.432576073E+02  0.000000000E+00  0.00000E+00  9.000E+00
      21    -1     0     0   501   502  0.000000000E+00  0.000000000E+00 -1.958426932E+02  1.958426932E+02  0.000000000E+00  0.00000E+00  9.000E+00
      25     1     1     2     0     0 -6.991095952E+00 -1.315274502E+02 -1.115814971E+02  2.131285435E+02  1.250000000E+02  0.00000E+00  9.000E+00
      25     1     1     2     0     0 -6.903013183E+01  8.204504116E+01  2.185718752E+02  2.736698970E+02  1.250000000E+02  0.00000E+00  9.000E+00
      21     1     1     2   501   511  7.602122778E+01  4.948240905E+01  3.404245360E+02  3.523018600E+02  0.000000000E+00  0.00000E+00  9.000E+00
#rwgt            1           1   3.5862419977351449E-002          10      448087           0
</event>
<event>
      5   9999  3.79277E-02  1.03182E+01 -1.00000E+00  1.94197E-01
      21    -1     0     0   502   501  0.000000000E+00  0.000000000E+00  1.176432267E+02  1.176432267E+02  0.000000000E+00  0.00000E+00  9.000E+00
      21    -1     0     0   501   512  0.000000000E+00  0.000000000E+00 -8.238680187E+02  8.238680187E+02  0.000000000E+00  0.00000E+00  9.000E+00
      25     1     1     2     0     0  1.989541290E+02  1.879099293E+02 -2.784573390E+02  4.099467974E+02  1.250000000E+02  0.00000E+00  9.000E+00
      25     1     1     2     0     0 -1.959072259E+02 -1.977680258E+02 -4.114339182E+02  5.122447679E+02  1.250000000E+02  0.00000E+00  9.000E+00
      21     1     1     2   502   512 -3.046903086E+00  9.858096422E+00 -1.633353470E+01  1.931968010E+01  4.129530925E-07  0.00000E+00  9.000E+00
#rwgt            1           1   7.6364133451176749E-002          10      448129           0
</event>
<event>
      5   9999  3.79277E-02  4.85278E+01 -1.00000E+00  1.39820E-01
       1    -1     0     0   502     0  0.000000000E+00  0.000000000E+00  1.085851259E+03  1.085851259E+03  0.000000000E+00  0.00000E+00  9.000E+00
      21    -1     0     0   501   502  0.000000000E+00  0.000000000E+00 -1.362702820E+02  1.362702820E+02  0.000000000E+00  0.00000E+00  9.000E+00
      25     1     1     2     0     0 -4.297999128E+01  1.638783133E+02  2.798050368E+01  2.123941850E+02  1.250000000E+02  0.00000E+00  9.000E+00
      25     1     1     2     0     0 -2.640404013E+00 -1.804231468E+02  2.355984609E+02  3.220110532E+02  1.250000000E+02  0.00000E+00  9.000E+00
       1     1     1     2   501     0  4.562039529E+01  1.654483353E+01  6.860020124E+02  6.877163027E+02  0.000000000E+00  0.00000E+00  9.000E+00
#rwgt            1           1   4.4245961943048785E-002          10      448363           0
</event>
<event>
      5   9999  3.79277E-02  9.87835E+01 -1.00000E+00  1.24067E-01
      21    -1     0     0   502   501  0.000000000E+00  0.000000000E+00  3.147055258E+03  3.147055258E+03  0.000000000E+00  0.00000E+00  9.000E+00
      21    -1     0     0   501   511  0.000000000E+00  0.000000000E+00 -2.983639219E+01  2.983639219E+01  0.000000000E+00  0.00000E+00  9.000E+00
      25     1     1     2     0     0  1.047794216E+02  2.260392678E+02  2.001548563E+03  2.020864698E+03  1.250000000E+02  0.00000E+00  9.000E+00
      25     1     1     2     0     0 -3.511322999E+01 -1.560050486E+02  7.939291960E+02  8.194626790E+02  1.250000000E+02  0.00000E+00  9.000E+00
      21     1     1     2   502   511 -6.966619160E+01 -7.003421921E+01  3.217411072E+02  3.365642735E+02  3.814697266E-06  0.00000E+00  9.000E+00
#rwgt            1           1   4.5398541708918293E-002          10      448483           0
</event>
<event>
      5   9999  3.79277E-02  2.07521E+01 -1.00000E+00  1.65057E-01
      21    -1     0     0   502   512  0.000000000E+00  0.000000000E+00  7.334238513E+01  7.334238513E+01  0.000000000E+00  0.00000E+00  9.000E+00
      21    -1     0     0   501   502  0.000000000E+00  0.000000000E+00 -1.252769050E+03  1.252769050E+03  0.000000000E+00  0.00000E+00  9.000E+00
      25     1     1     2     0     0 -1.073402822E+02 -2.941749034E+00 -1.393324613E+02  2.157988064E+02  1.250000000E+02  0.00000E+00  9.000E+00
      25     1     1     2     0     0  9.674833868E+01  2.078717894E+01 -1.065583455E+03  1.077443942E+03  1.250000000E+02  0.00000E+00  9.000E+00
      21     1     1     2   501   512  1.059194348E+01 -1.784542991E+01  2.548925158E+01  3.286868695E+01  1.430511475E-06  0.00000E+00  9.000E+00
#rwgt            1           1   4.5579309628272294E-002          10      448580           0
</event>
<event>
      5   9999  3.79277E-02  5.16049E+01 -1.00000E+00  1.38297E-01
      21    -1     0     0   502   501  0.000000000E+00  0.000000000E+00  2.452882636E+02  2.452882636E+02  0.000000000E+00  0.00000E+00  9.000E+00
      21    -1     0     0   501   511  0.000000000E+00  0.000000000E+00 -2.342793151E+02  2.342793151E+02  0.000000000E+00  0.00000E+00  9.000E+00
      25     1     1     2     0     0 -1.081945605E+02  5.496189250E+01  7.739254248E+01  1.906344098E+02  1.250000000E+02  0.00000E+00  9.000E+00
      25     1     1     2     0     0  1.390456162E+02 -1.359428418E+01  1.977102939E+01  1.885056539E+02  1.250000000E+02  0.00000E+00  9.000E+00
      21     1     1     2   502   511 -3.085105563E+01 -4.136760832E+01 -8.615462335E+01  1.004275150E+02  9.536743164E-07  0.00000E+00  9.000E+00
#rwgt            1           1   3.9543639450972043E-002          10      448845           0
</event>
<event>
      5   9999  3.79277E-02  1.26878E+01 -1.00000E+00  1.84519E-01
      21    -1     0     0   502   501  0.000000000E+00  0.000000000E+00  3.176758464E+02  3.176758464E+02  0.000000000E+00  0.00000E+00  9.000E+00
       4    -1     0     0   501     0  0.000000000E+00  0.000000000E+00 -2.336226922E+02  2.336226922E+02  0.000000000E+00  0.00000E+00  9.000E+00
      25     1     1     2     0     0 -6.814345012E+01 -1.290508388E+02 -5.838803451E+01  2.008278152E+02  1.250000000E+02  0.00000E+00  9.000E+00
      25     1     1     2     0     0  7.393192323E+01  1.177604450E+02  2.103222423E+02  2.814141028E+02  1.250000000E+02  0.00000E+00  9.000E+00
       4     1     1     2   502     0 -5.788473113E+00  1.129039379E+01 -6.788105355E+01  6.905662057E+01  9.536743164E-07  0.00000E+00  9.000E+00
#rwgt            1           1   4.2237057798378025E-002          10      448931           0
</event>
<event>
      5   9999  3.79277E-02  1.10232E+01 -1.00000E+00  1.90990E-01
      21    -1     0     0   502   501  0.000000000E+00  0.000000000E+00  2.045279780E+03  2.045279780E+03  0.000000000E+00  0.00000E+00  9.000E+00
      21    -1     0     0   511   502  0.000000000E+00  0.000000000E+00 -2.893938013E+01  2.893938013E+01  0.000000000E+00  0.00000E+00  9.000E+00
      25     1     1     2     0     0 -1.766655678E+02  6.202396269E+01  1.192539669E+03  1.213603541E+03  1.250000000E+02  0.00000E+00  9.000E+00
      25     1     1     2     0     0  1.740043325E+02 -5.132679821E+01  8.198030871E+02  8.488898924E+02  1.250000000E+02  0.00000E+00  9.000E+00
      21     1     1     2   511   501  2.661235361E+00 -1.069716449E+01  3.997644627E+00  1.172572660E+01  4.440446027E-07  0.00000E+00  9.000E+00
#rwgt            1           1  0.62308805289094904               10      449219           0
</event>
<event>
      5   9999  3.79277E-02  6.97139E+01 -1.00000E+00  1.31311E-01
      21    -1     0     0   502   501  0.000000000E+00  0.000000000E+00  7.774049053E+01  7.774049053E+01  0.000000000E+00  0.00000E+00  9.000E+00
       1    -1     0     0   501     0  0.000000000E+00  0.000000000E+00 -1.642819734E+03  1.642819734E+03  0.000000000E+00  0.00000E+00  9.000E+00
      25     1     1     2     0     0  1.455064378E+02  1.682921391E+02 -9.322853292E+02  9.665791755E+02  1.250000000E+02  0.00000E+00  9.000E+00
      25     1     1     2     0     0 -1.952000011E+02 -1.193985946E+02 -2.378319030E+02  3.529136990E+02  1.250000000E+02  0.00000E+00  9.000E+00
       1     1     1     2   502     0  4.969356330E+01 -4.889354457E+01 -3.949620110E+02  4.010673498E+02  0.000000000E+00  0.00000E+00  9.000E+00
#rwgt            1           1   3.6661211040741853E-002          10      449456           0
</event>
<event>
      5   9999  3.79277E-02  4.68019E+01 -1.00000E+00  1.40733E-01
       2    -1     0     0   502     0  0.000000000E+00  0.000000000E+00  1.286162785E+03  1.286162785E+03  0.000000000E+00  0.00000E+00  9.000E+00
      21    -1     0     0   501   502  0.000000000E+00  0.000000000E+00 -9.150704730E+01  9.150704730E+01  0.000000000E+00  0.00000E+00  9.000E+00
      25     1     1     2     0     0  5.766284375E+01 -1.400103567E+02  7.747803475E+01  2.110823285E+02  1.250000000E+02  0.00000E+00  9.000E+00
      25     1     1     2     0     0 -7.875484808E+01  9.823063517E+01  3.034046554E+02  3.514697266E+02  1.250000000E+02  0.00000E+00  9.000E+00
       2     1     1     2   501     0  2.109200433E+01  4.177972157E+01  8.137730473E+02  8.151177770E+02  0.000000000E+00  0.00000E+00  9.000E+00
#rwgt            1           1   3.7944659769387323E-002          10      449540           0
</event>
<event>
      5   9999  3.79277E-02  7.76634E+01 -1.00000E+00  1.28976E-01
       2    -1     0     0   502     0  0.000000000E+00  0.000000000E+00  6.638726236E+02  6.638726236E+02  0.000000000E+00  0.00000E+00  9.000E+00
      21    -1     0     0   501   502  0.000000000E+00  0.000000000E+00 -1.441574922E+02  1.441574922E+02  0.000000000E+00  0.00000E+00  9.000E+00
      25     1     1     2     0     0  1.227263597E+02 -1.340524342E+02  8.769980847E+01  2.373774860E+02  1.250000000E+02  0.00000E+00  9.000E+00
      25     1     1     2     0     0 -1.978210934E+02  1.142435459E+02  2.071315764E+02  3.327360256E+02  1.250000000E+02  0.00000E+00  9.000E+00
       2     1     1     2   501     0  7.509473368E+01  1.980888832E+01  2.248837465E+02  2.379166042E+02  2.697398305E-06  0.00000E+00  9.000E+00
#rwgt            1           1   3.0813406884320740E-002          10      449617           0
</event>
<event>
      5   9999  3.79277E-02  1.79786E+01 -1.00000E+00  1.70280E-01
       2    -1     0     0   502     0  0.000000000E+00  0.000000000E+00  2.274256509E+03  2.274256509E+03  0.000000000E+00  0.00000E+00  9.000E+00
      21    -1     0     0   501   502  0.000000000E+00  0.000000000E+00 -1.553598951E+02  1.553598951E+02  0.000000000E+00  0.00000E+00  9.000E+00
      25     1     1     2     0     0  1.157479392E+02  1.351645474E+02  2.102340986E+02  3.024738278E+02  1.250000000E+02  0.00000E+00  9.000E+00
      25     1     1     2     0     0 -9.966576957E+01 -1.271275275E+02 -1.368416848E+01  2.047118226E+02  1.250000000E+02  0.00000E+00  9.000E+00
       2     1     1     2   501     0 -1.608216963E+01 -8.037019944E+00  1.922346684E+03  1.922430754E+03  3.737624730E-05  0.00000E+00  9.000E+00
#rwgt            1           1   2.9173374078258374E-002          10      449705           0
</event>
<event>
      5   9999  3.79277E-02  1.14468E+01 -1.00000E+00  1.89209E-01
      21    -1     0     0   502   511  0.000000000E+00  0.000000000E+00  2.842953135E+02  2.842953135E+02  0.000000000E+00  0.00000E+00  9.000E+00
      21    -1     0     0   501   502  0.000000000E+00  0.000000000E+00 -2.224041670E+02  2.224041670E+02  0.000000000E+00  0.00000E+00  9.000E+00
      25     1     1     2     0     0 -1.568566584E+02  1.621209924E+01  1.645230178E+02  2.599224247E+02  1.250000000E+02  0.00000E+00  9.000E+00
      25     1     1     2     0     0  1.454202103E+02 -1.572449940E+01 -1.194244207E+02  2.264541669E+02  1.250000000E+02  0.00000E+00  9.000E+00
      21     1     1     2   501   511  1.143644807E+01 -4.875998386E-01  1.679254940E+01  2.032288891E+01  3.371747881E-07  0.00000E+00  9.000E+00
#rwgt            1           1   4.2841936683476717E-002          10      449919           0
</event>
<event>
      5   9999  3.79277E-02  2.42794E+01 -1.00000E+00  1.59708E-01
      21    -1     0     0   502   512  0.000000000E+00  0.000000000E+00  1.309624870E+02  1.309624870E+02  0.000000000E+00  0.00000E+00  9.000E+00
      21    -1     0     0   501   502  0.000000000E+00  0.000000000E+00 -3.100290053E+02  3.100290053E+02  0.000000000E+00  0.00000E+00  9.000E+00
      25     1     1     2     0     0 -1.046079274E+02  5.337301305E+01 -5.674058708E+00  1.716062118E+02  1.250000000E+02  0.00000E+00  9.000E+00
      25     1     1     2     0     0  8.313204224E+01 -4.204707704E+01 -1.854541046E+02  2.422748812E+02  1.250000000E+02  0.00000E+00  9.000E+00
      21     1     1     2   501   512  2.147588516E+01 -1.132593602E+01  1.206164496E+01  2.711039929E+01  4.768371582E-07  0.00000E+00  9.000E+00
#rwgt            1           1   4.5734314747432135E-002          10      450112           0
</event>
<event>
      5   9999  3.79277E-02  1.52808E+01 -1.00000E+00  1.76628E-01
      21    -1     0     0   502   511  0.000000000E+00  0.000000000E+00  3.216614748E+02  3.216614748E+02  0.000000000E+00  0.00000E+00  9.000E+00
      21    -1     0     0   501   502  0.000000000E+00  0.000000000E+00 -1.384116278E+02  1.384116278E+02  0.000000000E+00  0.00000E+00  9.000E+00
      25     1     1     2     0     0  4.480076593E+01 -1.095471494E+02  1.324851599E+01  1.726505423E+02  1.250000000E+02  0.00000E+00  9.000E+00
      25     1     1     2     0     0 -5.891849083E+01  1.036996774E+02  7.024996848E+01  1.865075594E+02  1.250000000E+02  0.00000E+00  9.000E+00
      21     1     1     2   501   511  1.411772490E+01  5.847471968E+00  9.975136250E+01  1.009150009E+02  0.000000000E+00  0.00000E+00  9.000E+00
#rwgt            1           1   2.8650517277556842E-002          10      450277           0
</event>
<event>
      5   9999  3.79277E-02  6.74711E+01 -1.00000E+00  1.32035E-01
      21    -1     0     0   502   512  0.000000000E+00  0.000000000E+00  5.111794293E+02  5.111794293E+02  0.000000000E+00  0.00000E+00  9.000E+00
      21    -1     0     0   501   502  0.000000000E+00  0.000000000E+00 -4.916152008E+02  4.916152008E+02  0.000000000E+00  0.00000E+00  9.000E+00
      25     1     1     2     0     0 -1.096566891E+01 -3.947123590E+02  1.360511252E+01  4.144010030E+02  1.250000000E+02  0.00000E+00  9.000E+00
      25     1     1     2     0     0 -5.608453829E+01  3.871873574E+02 -1.348257253E+02  4.322759551E+02  1.250000000E+02  0.00000E+00  9.000E+00
      21     1     1     2   501   512  6.705020720E+01  7.525001547E+00  1.407848413E+02  1.561176719E+02  1.907348633E-06  0.00000E+00  9.000E+00
#rwgt            1           1   3.8420900347482280E-002          10      450512           0
</event>
<event>
      5   9999  3.79277E-02  2.37029E+01 -1.00000E+00  1.60504E-01
      21    -1     0     0   511   501  0.000000000E+00  0.000000000E+00  6.912062206E+01  6.912062206E+01  0.000000000E+00  0.00000E+00  9.000E+00
      21    -1     0     0   501   502  0.000000000E+00  0.000000000E+00 -6.714632463E+02  6.714632463E+02  0.000000000E+00  0.00000E+00  9.000E+00
      25     1     1     2     0     0 -6.746148941E+01 -5.911907590E+01 -8.185621089E+01  1.742743726E+02  1.250000000E+02  0.00000E+00  9.000E+00
      25     1     1     2     0     0  8.989927441E+01  5.147883113E+01 -5.175614877E+02  5.424268090E+02  1.250000000E+02  0.00000E+00  9.000E+00
      21     1     1     2   511   502 -2.243778500E+01  7.640244766E+00 -2.924925671E+00  2.388268674E+01  1.788139343E-07  0.00000E+00  9.000E+00
#rwgt            1           1   4.4027983980806804E-002          10      450586           0
</event>
<event>
      5   9999  3.79277E-02  7.29375E+01 -1.00000E+00  1.30323E-01
      21    -1     0     0   502   501  0.000000000E+00  0.000000000E+00  5.968282346E+01  5.968282346E+01  0.000000000E+00  0.00000E+00  9.000E+00
      21    -1     0     0   512   502  0.000000000E+00  0.000000000E+00 -1.263469913E+03  1.263469913E+03  0.000000000E+00  0.00000E+00  9.000E+00
      25     1     1     2     0     0 -1.300994372E+02 -8.389137097E+01 -6.727038671E+02  7.015120230E+02  1.250000000E+02  0.00000E+00  9.000E+00
      25     1     1     2     0     0  1.572751522E+02  1.620562207E+01 -2.049467971E+02  2.874478828E+02  1.250000000E+02  0.00000E+00  9.000E+00
      21     1     1     2   512   501 -2.717571506E+01  6.768574890E+01 -3.261364257E+02  3.341928310E+02  0.000000000E+00  0.00000E+00  9.000E+00
#rwgt            1           1   4.1566706041464285E-002          10      450697           0
</event>
<event>
      5   9999  3.79277E-02  9.95401E+00 -1.00000E+00  1.95989E-01
      21    -1     0     0   502   511  0.000000000E+00  0.000000000E+00  1.027558789E+02  1.027558789E+02  0.000000000E+00  0.00000E+00  9.000E+00
      21    -1     0     0   501   502  0.000000000E+00  0.000000000E+00 -4.915338833E+02  4.915338833E+02  0.000000000E+00  0.00000E+00  9.000E+00
      25     1     1     2     0     0  1.419393098E+01  1.370173639E+02 -3.662774548E+01  1.895832730E+02  1.250000000E+02  0.00000E+00  9.000E+00
      25     1     1     2     0     0 -6.995369762E+00 -1.301425563E+02 -3.509428827E+02  3.946795245E+02  1.250000000E+02  0.00000E+00  9.000E+00
      21     1     1     2   501   511 -7.198561216E+00 -6.874807583E+00 -1.207376166E+00  1.002696465E+01  1.043081284E-07  0.00000E+00  9.000E+00
#rwgt            1           1   3.4351704213932494E-002          10      450791           0
</event>
<event>
      5   9999  3.79277E-02  2.32797E+01 -1.00000E+00  1.61105E-01
      21    -1     0     0   502   501  0.000000000E+00  0.000000000E+00  4.981310538E+02  4.981310538E+02  0.000000000E+00  0.00000E+00  9.000E+00
      21    -1     0     0   512   502  0.000000000E+00  0.000000000E+00 -1.539280189E+02  1.539280189E+02  0.000000000E+00  0.00000E+00  9.000E+00
      25     1     1     2     0     0  3.709990286E+01 -2.233962536E+02  1.917182950E+02  3.219676902E+02  1.250000000E+02  0.00000E+00  9.000E+00
      25     1     1     2     0     0 -6.033108228E+01  2.248987774E+02  1.554731895E+02  3.066206324E+02  1.250000000E+02  0.00000E+00  9.000E+00
      21     1     1     2   512   501  2.323117942E+01 -1.502523811E+00 -2.988449616E+00  2.347075002E+01  3.424026159E-07  0.00000E+00  9.000E+00
#rwgt            1           1   3.7486067603073776E-002          10      451075           0
</event>
<event>
      5   9999  3.79277E-02  2.01107E+02 -1.00000E+00  1.11561E-01
      21    -1     0     0   502   501  0.000000000E+00  0.000000000E+00  1.075539078E+03  1.075539078E+03  0.000000000E+00  0.00000E+00  9.000E+00
      21    -1     0     0   511   502  0.000000000E+00  0.000000000E+00 -1.558140276E+02  1.558140276E+02  0.000000000E+00  0.00000E+00  9.000E+00
      25     1     1     2     0     0  2.997921635E+02 -6.401058395E+01  6.828887012E+02  7.589036002E+02  1.250000000E+02  0.00000E+00  9.000E+00
      25     1     1     2     0     0 -1.463797132E+02 -6.602275196E+01  1.528595355E+02  2.545133824E+02  1.250000000E+02  0.00000E+00  9.000E+00
      21     1     1     2   511   501 -1.534124503E+02  1.300333359E+02  8.397681316E+01  2.179361226E+02  3.568322551E-06  0.00000E+00  9.000E+00
#rwgt            1           1   2.9928492960855223E-002          10      451273           0
</event>
<event>
      5   9999  3.79277E-02  6.38360E+01 -1.00000E+00  1.33281E-01
      21    -1     0     0   502   501  0.000000000E+00  0.000000000E+00  1.091414057E+03  1.091414057E+03  0.000000000E+00  0.00000E+00  9.000E+00
      21    -1     0     0   512   502  0.000000000E+00  0.000000000E+00 -1.788863264E+02  1.788863264E+02  0.000000000E+00  0.00000E+00  9.000E+00
      25     1     1     2     0     0 -5.461309813E+01 -1.033335854E+02  9.021667178E+02  9.182538904E+02  1.250000000E+02  0.00000E+00  9.000E+00
      25     1     1     2     0     0  1.229441935E+00  6.833035819E+01  1.448553975E+02  2.031714438E+02  1.250000000E+02  0.00000E+00  9.000E+00
      21     1     1     2   512   501  5.338365619E+01  3.500322725E+01 -1.344943849E+02  1.488750491E+02  4.264961200E-06  0.00000E+00  9.000E+00
#rwgt            1           1   5.4125874950484279E-002          10      451405           0
</event>
<event>
      5   9999 -3.79277E-02  1.86141E+01 -1.00000E+00  1.68984E-01
      21    -1     0     0   502   511  0.000000000E+00  0.000000000E+00  6.414519095E+02  6.414519095E+02  0.000000000E+00  0.00000E+00  9.000E+00
      21    -1     0     0   501   502  0.000000000E+00  0.000000000E+00 -6.750409389E+01  6.750409389E+01  0.000000000E+00  0.00000E+00  9.000E+00
      25     1     1     2     0     0 -7.476314382E+01  1.256629558E+02  2.983231578E+02  3.549681854E+02  1.250000000E+02  0.00000E+00  9.000E+00
      25     1     1     2     0     0  9.275246993E+01 -1.304451286E+02  2.459703726E+02  3.189755108E+02  1.250000000E+02  0.00000E+00  9.000E+00
      21     1     1     2   501   511 -1.798932611E+01  4.782172852E+00  2.965428511E+01  3.501230721E+01  5.840038640E-07  0.00000E+00  9.000E+00
#rwgt            1           1 -0.28833310344129925               10      451510           0
</event>
<event>
      5   9999 -3.80263E-02  4.09769E+01 -1.00000E+00  1.44193E-01
      21    -1     0     0   502   512  0.000000000E+00  0.000000000E+00  4.385302431E+02  4.385302431E+02  0.000000000E+00  0.00000E+00  9.000E+00
      21    -1     0     0   501   502  0.000000000E+00  0.000000000E+00 -8.074122302E+02  8.074122302E+02  0.000000000E+00  0.00000E+00  9.000E+00
      25     1     1     2     0     0  1.654494240E+02 -3.926166139E+02 -1.890092218E+02  4.825668900E+02  1.250000000E+02  0.00000E+00  9.000E+00
      25     1     1     2     0     0 -1.357834688E+02  4.208838408E+02 -3.567670220E+02  5.817972722E+02  1.250000000E+02  0.00000E+00  9.000E+00
      21     1     1     2   501   512 -2.966595514E+01 -2.826722692E+01  1.768942567E+02  1.815783111E+02  1.907348633E-06  0.00000E+00  9.000E+00
#rwgt            1           1 -0.96474429956387542               10      451675           0
</event>
<event>
      5   9999  3.79277E-02  1.02110E+02 -1.00000E+00  1.23421E-01
      21    -1     0     0   502   501  0.000000000E+00  0.000000000E+00  1.345872968E+02  1.345872968E+02  0.000000000E+00  0.00000E+00  9.000E+00
      21    -1     0     0   501   511  0.000000000E+00  0.000000000E+00 -1.815088515E+03  1.815088515E+03  0.000000000E+00  0.00000E+00  9.000E+00
      25     1     1     2     0     0  9.508233975E+01  8.418515084E+01 -2.771165847E+02  3.294637954E+02  1.250000000E+02  0.00000E+00  9.000E+00
      25     1     1     2     0     0  5.326244915E+00 -6.562465524E+01  5.983915026E+01  1.534297499E+02  1.250000000E+02  0.00000E+00  9.000E+00
      21     1     1     2   502   511 -1.004085847E+02 -1.856049559E+01 -1.463223783E+03  1.466782266E+03  2.157918644E-05  0.00000E+00  9.000E+00
#rwgt            2          11   1.1237606506816536E-003          10      451903           0
</event>
<event>
      5   9999 -3.79277E-02  8.30166E+01 -1.00000E+00  1.27576E-01
      21    -1     0     0   512   501  0.000000000E+00  0.000000000E+00  4.219824760E+02  4.219824760E+02  0.000000000E+00  0.00000E+00  9.000E+00
      21    -1     0     0   501   502  0.000000000E+00  0.000000000E+00 -1.536523817E+02  1.536523817E+02  0.000000000E+00  0.00000E+00  9.000E+00
      25     1     1     2     0     0 -1.165590468E+02  2.002383055E+01  3.349213910E+01  1.753102637E+02  1.250000000E+02  0.00000E+00  9.000E+00
      25     1     1     2     0     0  1.969153629E+02 -4.087145942E+01  1.434305645E+02  2.768455583E+02  1.250000000E+02  0.00000E+00  9.000E+00
      21     1     1     2   512   502 -8.035631607E+01  2.084762887E+01  9.140739079E+01  1.234790357E+02  1.348699152E-06  0.00000E+00  9.000E+00
#rwgt            1           1  -7.2384018604071870E-002          10      451923           0
</event>
<event>
      5   9999  3.79277E-02  1.93402E+01 -1.00000E+00  1.67580E-01
      21    -1     0     0   502   511  0.000000000E+00  0.000000000E+00  1.501356546E+02  1.501356546E+02  0.000000000E+00  0.00000E+00  9.000E+00
      21    -1     0     0   501   502  0.000000000E+00  0.000000000E+00 -5.230959232E+02  5.230959232E+02  0.000000000E+00  0.00000E+00  9.000E+00
      25     1     1     2     0     0 -1.209411338E+02 -5.266211659E+01  2.708821195E+01  1.837357548E+02  1.250000000E+02  0.00000E+00  9.000E+00
      25     1     1     2     0     0  1.069552396E+02  3.930411328E+01 -4.252935314E+02  4.576940293E+02  1.250000000E+02  0.00000E+00  9.000E+00
      21     1     1     2   501   511  1.398589417E+01  1.335800331E+01  2.524505087E+01  3.180179369E+01  6.743495762E-07  0.00000E+00  9.000E+00
#rwgt            1           1   3.5895517143778319E-003          10      452060           0
</event>
<event>
      5   9999  3.79277E-02  3.35383E+01 -1.00000E+00  1.49751E-01
      21    -1     0     0   502   501  0.000000000E+00  0.000000000E+00  4.441867881E+02  4.441867881E+02  0.000000000E+00  0.00000E+00  9.000E+00
      21    -1     0     0   512   502  0.000000000E+00  0.000000000E+00 -1.713620251E+02  1.713620251E+02  0.000000000E+00  0.00000E+00  9.000E+00
      25     1     1     2     0     0 -9.442682410E+01  4.038352143E+01  3.614890304E+02  3.960386004E+02  1.250000000E+02  0.00000E+00  9.000E+00
      25     1     1     2     0     0  7.957446799E+01 -7.045390671E+01 -8.750569373E+01  1.859518630E+02  1.250000000E+02  0.00000E+00  9.000E+00
      21     1     1     2   512   501  1.485235611E+01  3.007038528E+01 -1.158573664E+00  3.355834987E+01  6.846430902E-07  0.00000E+00  9.000E+00
#rwgt            1           1   3.9366098872966604E-002          10      452262           0
</event>
<event>
      5   9999  3.79277E-02  4.59141E+01 -1.00000E+00  1.41221E-01
      21    -1     0     0   502   501  0.000000000E+00  0.000000000E+00  8.798198454E+01  8.798198454E+01  0.000000000E+00  0.00000E+00  9.000E+00
      21    -1     0     0   501   511  0.000000000E+00  0.000000000E+00 -1.048369077E+03  1.048369077E+03  0.000000000E+00  0.00000E+00  9.000E+00
      25     1     1     2     0     0  8.493321714E+01 -3.195173491E+01 -3.047996729E+02  3.417051439E+02  1.250000000E+02  0.00000E+00  9.000E+00
      25     1     1     2     0     0 -5.206480846E+01  6.401068411E+01 -1.291191448E+01  1.503323967E+02  1.250000000E+02  0.00000E+00  9.000E+00
      21     1     1     2   502   511 -3.286840867E+01 -3.205894919E+01 -6.426755048E+02  6.443135207E+02  7.629394531E-06  0.00000E+00  9.000E+00
#rwgt            1           1   3.6912735484693572E-002          10      452412           0
</event>
<event>
      5   9999  3.79277E-02  3.64047E+01 -1.00000E+00  1.47423E-01
      21    -1     0     0   502   501  0.000000000E+00  0.000000000E+00  3.735180630E+02  3.735180630E+02  0.000000000E+00  0.00000E+00  9.000E+00
      21    -1     0     0   501   512  0.000000000E+00  0.000000000E+00 -8.114926127E+02  8.114926127E+02  0.000000000E+00  0.00000E+00  9.000E+00
      25     1     1     2     0     0 -1.160600965E+02  1.323995272E+02 -1.977722317E+02  2.928112642E+02  1.250000000E+02  0.00000E+00  9.000E+00
      25     1     1     2     0     0  1.343914792E+02 -1.638521044E+02  2.788483700E+02  3.718736281E+02  1.250000000E+02  0.00000E+00  9.000E+00
      21     1     1     2   502   512 -1.833138264E+01  3.145257727E+01 -5.190506880E+02  5.203257835E+02  0.000000000E+00  0.00000E+00  9.000E+00
#rwgt            1           1   4.2236300425587077E-002          10      452579           0
</event>
<event>
      5   9999  3.79277E-02  5.87110E+01 -1.00000E+00  1.35209E-01
      21    -1     0     0   502   511  0.000000000E+00  0.000000000E+00  2.332285075E+02  2.332285075E+02  0.000000000E+00  0.00000E+00  9.000E+00
      21    -1     0     0   501   502  0.000000000E+00  0.000000000E+00 -1.747958892E+02  1.747958892E+02  0.000000000E+00  0.00000E+00  9.000E+00
      25     1     1     2     0     0  3.537505897E+01  1.264063358E+02 -2.060063738E+01  1.824262667E+02  1.250000000E+02  0.00000E+00  9.000E+00
      25     1     1     2     0     0 -2.002795156E+01 -6.973667145E+01  2.675864719E+01  1.469875756E+02  1.250000000E+02  0.00000E+00  9.000E+00
      21     1     1     2   501   511 -1.534710741E+01 -5.666966434E+01  5.227460851E+01  7.861055436E+01  9.536743164E-07  0.00000E+00  9.000E+00
#rwgt            1           1   4.0828687776353623E-002          10      452766           0
</event>
<event>
      5   9999  3.79277E-02  7.51691E+00 -1.00000E+00  2.11271E-01
      21    -1     0     0   512   501  0.000000000E+00  0.000000000E+00  5.123746516E+02  5.123746516E+02  0.000000000E+00  0.00000E+00  9.000E+00
      21    -1     0     0   501   502  0.000000000E+00  0.000000000E+00 -6.644961844E+01  6.644961844E+01  0.000000000E+00  0.00000E+00  9.000E+00
      25     1     1     2     0     0  3.592794675E+00  1.010683956E+02  9.425919089E+01  1.863800521E+02  1.250000000E+02  0.00000E+00  9.000E+00
      25     1     1     2     0     0 -9.216352654E+00 -1.060563296E+02  3.172726140E+02  3.572391325E+02  1.250000000E+02  0.00000E+00  9.000E+00
      21     1     1     2   512   502  5.623557979E+00  4.987934018E+00  3.439322825E+01  3.520508542E+01  4.768371582E-07  0.00000E+00  9.000E+00
#rwgt            1           1   3.8736553810797929E-002          10      452912           0
</event>
<event>
      5   9999 -3.79277E-02  1.07697E+01 -1.00000E+00  1.92107E-01
       2    -1     0     0   502     0  0.000000000E+00  0.000000000E+00  2.160422497E+03  2.160422497E+03  0.000000000E+00  0.00000E+00  9.000E+00
      21    -1     0     0   501   502  0.000000000E+00  0.000000000E+00 -7.099101544E+01  7.099101544E+01  0.000000000E+00  0.00000E+00  9.000E+00
      25     1     1     2     0     0 -4.023666565E+01  7.889952276E+01  5.034084437E+01  1.612554637E+02  1.250000000E+02  0.00000E+00  9.000E+00
      25     1     1     2     0     0  5.062069128E+01 -8.175563970E+01  3.852179198E+02  4.162502669E+02  1.250000000E+02  0.00000E+00  9.000E+00
       2     1     1     2   501     0 -1.038402563E+01  2.856116943E+00  1.653872718E+03  1.653907782E+03  0.000000000E+00  0.00000E+00  9.000E+00
#rwgt            1           1 -0.12214552028344103               10      453258           0
</event>
<event>
      5   9999  3.79277E-02  3.77199E+01 -1.00000E+00  1.46439E-01
      21    -1     0     0   502   501  0.000000000E+00  0.000000000E+00  4.725234662E+01  4.725234662E+01  0.000000000E+00  0.00000E+00  9.000E+00
       2    -1     0     0   501     0  0.000000000E+00  0.000000000E+00 -2.032616713E+03  2.032616713E+03  0.000000000E+00  0.00000E+00  9.000E+00
      25     1     1     2     0     0  9.626997946E+01  2.283645982E+02 -1.381481270E+03  1.409089706E+03  1.250000000E+02  0.00000E+00  9.000E+00
      25     1     1     2     0     0 -6.549803694E+01 -2.065499094E+02 -4.799035072E+02  5.411887232E+02  1.250000000E+02  0.00000E+00  9.000E+00
       2     1     1     2   502     0 -3.077194252E+01 -2.181468877E+01 -1.239795893E+02  1.295906311E+02  0.000000000E+00  0.00000E+00  9.000E+00
#rwgt            1           1   3.8758675806006740E-002          10      453683           0
</event>
<event>
      5   9999  3.79277E-02  9.35016E+01 -1.00000E+00  1.25155E-01
      21    -1     0     0   511   501  0.000000000E+00  0.000000000E+00  1.679936155E+03  1.679936155E+03  0.000000000E+00  0.00000E+00  9.000E+00
      21    -1     0     0   501   502  0.000000000E+00  0.000000000E+00 -9.844598871E+01  9.844598871E+01  0.000000000E+00  0.00000E+00  9.000E+00
      25     1     1     2     0     0 -1.855598704E+02  2.960606383E+02  5.791792654E+02  6.878648039E+02  1.250000000E+02  0.00000E+00  9.000E+00
      25     1     1     2     0     0  1.835126859E+02 -2.025814522E+02  5.323093910E+02  6.113055197E+02  1.250000000E+02  0.00000E+00  9.000E+00
      21     1     1     2   511   502  2.047184497E+00 -9.347918608E+01  4.700015099E+02  4.792118200E+02  0.000000000E+00  0.00000E+00  9.000E+00
#rwgt            1           1   3.1138928308497536E-002          10      453972           0
</event>
<event>
      5   9999  3.79277E-02  4.26156E+01 -1.00000E+00  1.43155E-01
      21    -1     0     0   502   501  0.000000000E+00  0.000000000E+00  1.708086572E+03  1.708086572E+03  0.000000000E+00  0.00000E+00  9.000E+00
      21    -1     0     0   512   502  0.000000000E+00  0.000000000E+00 -1.149787861E+02  1.149787861E+02  0.000000000E+00  0.00000E+00  9.000E+00
      25     1     1     2     0     0 -2.116956252E+02  1.888219534E+02  1.194603095E+03  1.234167866E+03  1.250000000E+02  0.00000E+00  9.000E+00
      25     1     1     2     0     0  2.302896817E+02 -1.504768246E+02  4.371192022E+02  5.313895079E+02  1.250000000E+02  0.00000E+00  9.000E+00
      21     1     1     2   512   501 -1.859405652E+01 -3.834512885E+01 -3.861451064E+01  5.750798445E+01  1.846782373E-06  0.00000E+00  9.000E+00
#rwgt            1           1   3.9620934239553686E-002          10      454085           0
</event>
<event>
      5   9999  3.79277E-02  3.90703E+01 -1.00000E+00  1.45476E-01
      21    -1     0     0   511   501  0.000000000E+00  0.000000000E+00  5.828979992E+02  5.828979992E+02  0.000000000E+00  0.00000E+00  9.000E+00
      21    -1     0     0   501   502  0.000000000E+00  0.000000000E+00 -3.046316703E+02  3.046316703E+02  0.000000000E+00  0.00000E+00  9.000E+00
      25     1     1     2     0     0  2.111718364E+02 -2.780390786E+01 -1.971647539E+02  3.160150977E+02  1.250000000E+02  0.00000E+00  9.000E+00
      25     1     1     2     0     0 -2.416252770E+02  5.227992368E+01  4.309908634E+02  5.123417699E+02  1.250000000E+02  0.00000E+00  9.000E+00
      21     1     1     2   511   502  3.045344058E+01 -2.447601582E+01  4.444021933E+01  5.917280192E+01  4.768371582E-07  0.00000E+00  9.000E+00
#rwgt            1           1   4.0870852824386537E-002          10      454458           0
</event>
<event>
      5   9999  3.79277E-02  1.15267E+02 -1.00000E+00  1.21115E-01
      21    -1     0     0   502   501  0.000000000E+00  0.000000000E+00  1.869574449E+02  1.869574449E+02  0.000000000E+00  0.00000E+00  9.000E+00
      21    -1     0     0   512   502  0.000000000E+00  0.000000000E+00 -6.563133157E+02  6.563133157E+02  0.000000000E+00  0.00000E+00  9.000E+00
      25     1     1     2     0     0 -8.322089362E+01  1.150054564E+02  9.407857882E+01  2.112528133E+02  1.250000000E+02  0.00000E+00  9.000E+00
      25     1     1     2     0     0 -3.067826709E+01 -9.729977337E+01 -2.449418165E+02  2.933085328E+02  1.250000000E+02  0.00000E+00  9.000E+00
      21     1     1     2   512   501  1.138991607E+02 -1.770568305E+01 -3.184926331E+02  3.387094144E+02  5.394796609E-06  0.00000E+00  9.000E+00
#rwgt            1           1   4.2444828833074356E-002          10      454818           0
</event>
<event>
      5   9999  3.79277E-02  1.36204E+02 -1.00000E+00  1.18079E-01
       2    -1     0     0   502     0  0.000000000E+00  0.000000000E+00  2.693399613E+03  2.693399613E+03  0.000000000E+00  0.00000E+00  9.000E+00
      21    -1     0     0   501   502  0.000000000E+00  0.000000000E+00 -2.666594873E+01  2.666594873E+01  0.000000000E+00  0.00000E+00  9.000E+00
      25     1     1     2     0     0  1.367544074E+02 -4.884165057E+00  7.453472309E+02  7.680449972E+02  1.250000000E+02  0.00000E+00  9.000E+00
      25     1     1     2     0     0 -6.175106582E+01  1.185763721E+02  7.184022262E+02  7.413503280E+02  1.250000000E+02  0.00000E+00  9.000E+00
       2     1     1     2   501     0 -7.500334162E+01 -1.136922070E+02  1.202984207E+03  1.210670236E+03  1.525878906E-05  0.00000E+00  9.000E+00
#rwgt            1           1  0.10675977278918491               10      454996           0
</event>
<event>
      5   9999 -3.79277E-02  1.00030E+02 -1.00000E+00  1.23822E-01
      -3    -1     0     0     0   501  0.000000000E+00  0.000000000E+00  4.402808479E+02  4.402808479E+02  0.000000000E+00  0.00000E+00  9.000E+00
      21    -1     0     0   501   502  0.000000000E+00  0.000000000E+00 -1.126128976E+03  1.126128976E+03  0.000000000E+00  0.00000E+00  9.000E+00
      25     1     1     2     0     0  3.483763408E+01 -1.665566679E+02 -8.759115371E+02  9.009998918E+02  1.250000000E+02  0.00000E+00  9.000E+00
      25     1     1     2     0     0  5.071859898E+01  1.147284910E+02 -1.974295612E+02  2.652139411E+02  1.250000000E+02  0.00000E+00  9.000E+00
      -3     1     1     2     0   502 -8.555623305E+01  5.182817689E+01  3.874929703E+02  4.001959907E+02  7.629394531E-06  0.00000E+00  9.000E+00
#rwgt            1           1  -2.1527496313076780E-002          10      455031           0
</event>
<event>
      5   9999  3.79277E-02  8.62978E+01 -1.00000E+00  1.26777E-01
      21    -1     0     0   511   501  0.000000000E+00  0.000000000E+00  4.855136921E+02  4.855136921E+02  0.000000000E+00  0.00000E+00  9.000E+00
      21    -1     0     0   501   502  0.000000000E+00  0.000000000E+00 -2.587825831E+02  2.587825831E+02  0.000000000E+00  0.00000E+00  9.000E+00
      25     1     1     2     0     0 -1.501719727E+02 -1.900820821E+02 -1.050978739E+02  2.921530120E+02  1.250000000E+02  0.00000E+00  9.000E+00
      25     1     1     2     0     0  6.749910990E+01  1.653331308E+02  2.641098437E+02  3.424473442E+02  1.250000000E+02  0.00000E+00  9.000E+00
      21     1     1     2   511   502  8.267286277E+01  2.474895130E+01  6.771913927E+01  1.096959190E+02  9.536743164E-07  0.00000E+00  9.000E+00
#rwgt            2          11   3.1361667211906516E-003          10      455130           0
</event>
<event>
      5   9999  3.79277E-02  4.26895E+01 -1.00000E+00  1.43109E-01
      21    -1     0     0   512   501  0.000000000E+00  0.000000000E+00  5.965976518E+02  5.965976518E+02  0.000000000E+00  0.00000E+00  9.000E+00
      21    -1     0     0   501   502  0.000000000E+00  0.000000000E+00 -4.449698700E+02  4.449698700E+02  0.000000000E+00  0.00000E+00  9.000E+00
      25     1     1     2     0     0  1.615198387E+02 -5.156915276E+01 -1.289997318E+02  2.470100537E+02  1.250000000E+02  0.00000E+00  9.000E+00
      25     1     1     2     0     0 -2.034243610E+02  5.971779808E+01 -1.968626528E+02  3.151627994E+02  1.250000000E+02  0.00000E+00  9.000E+00
      21     1     1     2   512   502  4.190452223E+01 -8.148645319E+00  4.774901664E+02  4.793946688E+02  5.394796609E-06  0.00000E+00  9.000E+00
#rwgt            1           1   4.1162065629755933E-002          10      455270           0
</event>
<event>
      5   9999  3.79277E-02  3.19263E+01 -1.00000E+00  1.51186E-01
      21    -1     0     0   502   501  0.000000000E+00  0.000000000E+00  6.835617743E+01  6.835617743E+01  0.000000000E+00  0.00000E+00  9.000E+00
      21    -1     0     0   511   502  0.000000000E+00  0.000000000E+00 -7.325727529E+02  7.325727529E+02  0.000000000E+00  0.00000E+00  9.000E+00
      25     1     1     2     0     0  5.027769643E+01  5.931038978E+01 -4.282355303E+01  1.533115318E+02  1.250000000E+02  0.00000E+00  9.000E+00
      25     1     1     2     0     0 -7.075464806E+01 -3.481582525E+01 -4.622096698E+02  4.852639908E+02  1.250000000E+02  0.00000E+00  9.000E+00
      21     1     1     2   511   501  2.047695163E+01 -2.449456454E+01 -1.591833526E+02  1.623534077E+02  0.000000000E+00  0.00000E+00  9.000E+00
#rwgt            1           1   4.4974371141529836E-002          10      455358           0
</event>
<event>
      5   9999  3.79277E-02  1.81868E+01 -1.00000E+00  1.69848E-01
      21    -1     0     0   502   501  0.000000000E+00  0.000000000E+00  4.592377110E+02  4.592377110E+02  0.000000000E+00  0.00000E+00  9.000E+00
      21    -1     0     0   501   512  0.000000000E+00  0.000000000E+00 -2.076024421E+02  2.076024421E+02  0.000000000E+00  0.00000E+00  9.000E+00
      25     1     1     2     0     0 -2.225282967E+02 -4.585291394E+01 -3.258908003E+01  2.613587203E+02  1.250000000E+02  0.00000E+00  9.000E+00
      25     1     1     2     0     0  2.044997009E+02  4.345926525E+01  2.963592745E+02  3.836178502E+02  1.250000000E+02  0.00000E+00  9.000E+00
      21     1     1     2   502   512  1.802859581E+01  2.393648687E+00 -1.213492556E+01  2.186358249E+01  4.129530925E-07  0.00000E+00  9.000E+00
#rwgt            1           1   2.8532719371130319E-002          10      455487           0
</event>
<event>
      5   9999  3.79277E-02  3.12733E+02 -1.00000E+00  1.05009E-01
      -4    -1     0     0     0   501  0.000000000E+00  0.000000000E+00  5.250221878E+02  5.250221878E+02  0.000000000E+00  0.00000E+00  9.000E+00
      21    -1     0     0   501   502  0.000000000E+00  0.000000000E+00 -1.063650508E+03  1.063650508E+03  0.000000000E+00  0.00000E+00  9.000E+00
      25     1     1     2     0     0 -3.529996793E+02 -4.118473859E+02 -5.799450171E+02  8.038583617E+02  1.250000000E+02  0.00000E+00  9.000E+00
      25     1     1     2     0     0  4.049738104E+02  1.034633493E+02 -9.029018900E+01  4.455174183E+02  1.250000000E+02  0.00000E+00  9.000E+00
      -4     1     1     2     0   502 -5.197413115E+01  3.083840366E+02  1.316068862E+02  3.392969154E+02  9.147322699E-06  0.00000E+00  9.000E+00
#rwgt            1           1  0.11400476350721216               10      455810           0
</event>
<event>
      5   9999  3.79277E-02  3.25366E+01 -1.00000E+00  1.50631E-01
      21    -1     0     0   502   501  0.000000000E+00  0.000000000E+00  1.948856723E+03  1.948856723E+03  0.000000000E+00  0.00000E+00  9.000E+00
      21    -1     0     0   511   502  0.000000000E+00  0.000000000E+00 -1.014899320E+03  1.014899320E+03  0.000000000E+00  0.00000E+00  9.000E+00
      25     1     1     2     0     0 -6.910610622E+02 -7.999963189E+02 -9.783220606E+01  1.068997494E+03  1.250000000E+02  0.00000E+00  9.000E+00
      25     1     1     2     0     0  7.226490513E+02  8.077954498E+02  1.258575393E+03  1.665650671E+03  1.250000000E+02  0.00000E+00  9.000E+00
      21     1     1     2   511   501 -3.158798908E+01 -7.799130959E+00 -2.267857844E+02  2.291078775E+02  2.697398305E-06  0.00000E+00  9.000E+00
#rwgt            1           1   9.8088990905698939E-004          10      456136           0
</event>
<event>
      5   9999  3.79277E-02  5.80553E+01 -1.00000E+00  1.35473E-01
      21    -1     0     0   502   501  0.000000000E+00  0.000000000E+00  1.379483033E+02  1.379483033E+02  0.000000000E+00  0.00000E+00  9.000E+00
       2    -1     0     0   501     0  0.000000000E+00  0.000000000E+00 -4.519384428E+02  4.519384428E+02  0.000000000E+00  0.00000E+00  9.000E+00
      25     1     1     2     0     0 -7.114210852E+01 -1.512757901E+02 -1.299751485E+02  2.458944967E+02  1.250000000E+02  0.00000E+00  9.000E+00
      25     1     1     2     0     0  2.029968791E+01  1.232496340E+02 -2.979569249E+01  1.792075135E+02  1.250000000E+02  0.00000E+00  9.000E+00
       2     1     1     2   502     0  5.084242061E+01  2.802615615E+01 -1.542192985E+02  1.647847359E+02  2.697398305E-06  0.00000E+00  9.000E+00
#rwgt            1           1   3.9587603341366830E-002          10      456330           0
</event>
<event>
      5   9999  3.79277E-02  1.35823E+01 -1.00000E+00  1.81544E-01
      21    -1     0     0   502   501  0.000000000E+00  0.000000000E+00  1.982101598E+02  1.982101598E+02  0.000000000E+00  0.00000E+00  9.000E+00
      21    -1     0     0   511   502  0.000000000E+00  0.000000000E+00 -3.989753449E+02  3.989753449E+02  0.000000000E+00  0.00000E+00  9.000E+00
      25     1     1     2     0     0  1.842452644E+02 -1.635720759E+02 -1.081193439E+02  2.966764803E+02  1.250000000E+02  0.00000E+00  9.000E+00
      25     1     1     2     0     0 -1.831312537E+02  1.500355651E+02 -7.458887305E+01  2.779140638E+02  1.250000000E+02  0.00000E+00  9.000E+00
      21     1     1     2   511   501 -1.114010705E+00  1.353651082E+01 -1.805696808E+01  2.259496053E+01  3.371747881E-07  0.00000E+00  9.000E+00
#rwgt            1           1   3.8242211039647152E-002          10      456525           0
</event>
<event>
      5   9999  3.79277E-02  1.90140E+02 -1.00000E+00  1.12453E-01
      21    -1     0     0   502   501  0.000000000E+00  0.000000000E+00  2.931293059E+02  2.931293059E+02  0.000000000E+00  0.00000E+00  9.000E+00
      21    -1     0     0   512   502  0.000000000E+00  0.000000000E+00 -1.625014503E+03  1.625014503E+03  0.000000000E+00  0.00000E+00  9.000E+00
      25     1     1     2     0     0 -1.182018524E+02  3.623005945E+02 -7.965836465E+02  8.918541947E+02  1.250000000E+02  0.00000E+00  9.000E+00
      25     1     1     2     0     0  4.182352142E+01 -5.364262115E+02 -1.139375682E+02  5.640115750E+02  1.250000000E+02  0.00000E+00  9.000E+00
      21     1     1     2   512   501  7.637833094E+01  1.741256170E+02 -4.213639822E+02  4.622780391E+02  5.394796609E-06  0.00000E+00  9.000E+00
#rwgt            2          11   6.4476432437906763E-003          10      456719           0
</event>
<event>
      5   9999 -3.79277E-02  4.03672E+01 -1.00000E+00  1.44594E-01
      21    -1     0     0   502   501  0.000000000E+00  0.000000000E+00  7.944382148E+02  7.944382148E+02  0.000000000E+00  0.00000E+00  9.000E+00
      21    -1     0     0   511   502  0.000000000E+00  0.000000000E+00 -9.605044187E+01  9.605044187E+01  0.000000000E+00  0.00000E+00  9.000E+00
      25     1     1     2     0     0 -2.151971670E+02  1.898641699E+01  2.911160249E+02  3.834629638E+02  1.250000000E+02  0.00000E+00  9.000E+00
      25     1     1     2     0     0  2.219794564E+02 -5.877973497E+01  3.586821675E+02  4.438556450E+02  1.250000000E+02  0.00000E+00  9.000E+00
      21     1     1     2   511   501 -6.782289451E+00  3.979331798E+01  4.858958058E+01  6.317004786E+01  9.536743164E-07  0.00000E+00  9.000E+00
#rwgt            1           1 -0.15829919172407428               10      456784           0
</event>
<event>
      5   9999  3.79277E-02  1.11841E+02 -1.00000E+00  1.21681E-01
      21    -1     0     0   502   512  0.000000000E+00  0.000000000E+00  4.703114922E+02  4.703114922E+02  0.000000000E+00  0.00000E+00  9.000E+00
      21    -1     0     0   501   502  0.000000000E+00  0.000000000E+00 -1.935471406E+02  1.935471406E+02  0.000000000E+00  0.00000E+00  9.000E+00
      25     1     1     2     0     0 -1.644955196E+01  3.637235812E+01 -1.057263097E+02  1.685128741E+02  1.250000000E+02  0.00000E+00  9.000E+00
      25     1     1     2     0     0  1.272524865E+02 -5.157702650E+01  3.122144960E+02  3.632578650E+02  1.250000000E+02  0.00000E+00  9.000E+00
      21     1     1     2   501   512 -1.108029345E+02  1.520466838E+01  7.027616525E+01  1.320878936E+02  0.000000000E+00  0.00000E+00  9.000E+00
#rwgt            1           1   4.4830263996991047E-002          10      456922           0
</event>
<event>
      5   9999  3.79277E-02  7.66779E+01 -1.00000E+00  1.29247E-01
      21    -1     0     0   511   501  0.000000000E+00  0.000000000E+00  4.999109303E+02  4.999109303E+02  0.000000000E+00  0.00000E+00  9.000E+00
      21    -1     0     0   501   502  0.000000000E+00  0.000000000E+00 -2.832618467E+02  2.832618467E+02  0.000000000E+00  0.00000E+00  9.000E+00
      25     1     1     2     0     0  5.979803375E+01  8.475668684E+01 -1.398164144E+02  2.143201590E+02  1.250000000E+02  0.00000E+00  9.000E+00
      25     1     1     2     0     0  7.851758404E-01 -1.317584917E+02 -2.177252136E+01  1.829206367E+02  1.250000000E+02  0.00000E+00  9.000E+00
      21     1     1     2   511   502 -6.058320959E+01  4.700180485E+01  3.782380193E+02  3.859319813E+02  0.000000000E+00  0.00000E+00  9.000E+00
#rwgt            1           1   4.2460083789016397E-002          10      456976           0
</event>
<event>
      5   9999  3.79277E-02  7.79875E+00 -1.00000E+00  2.09128E-01
      21    -1     0     0   512   501  0.000000000E+00  0.000000000E+00  9.848227128E+02  9.848227128E+02  0.000000000E+00  0.00000E+00  9.000E+00
      21    -1     0     0   501   502  0.000000000E+00  0.000000000E+00 -5.287997971E+01  5.287997971E+01  0.000000000E+00  0.00000E+00  9.000E+00
      25     1     1     2     0     0  1.646356349E+02 -8.451087305E+01  4.861013177E+02  5.349452972E+02  1.250000000E+02  0.00000E+00  9.000E+00
      25     1     1     2     0     0 -1.615776328E+02  9.168506844E+01  4.228196373E+02  4.784505501E+02  1.250000000E+02  0.00000E+00  9.000E+00
      21     1     1     2   512   502 -3.058002071E+00 -7.174195390E+00  2.302177813E+01  2.430684522E+01  4.768371582E-07  0.00000E+00  9.000E+00
#rwgt            1           1   5.0732498071477623E-002          10      457102           0
</event>
<event>
      5   9999  3.79277E-02  1.87271E+01 -1.00000E+00  1.68761E-01
      21    -1     0     0   502   501  0.000000000E+00  0.000000000E+00  8.369456732E+02  8.369456732E+02  0.000000000E+00  0.00000E+00  9.000E+00
      21    -1     0     0   511   502  0.000000000E+00  0.000000000E+00 -7.695689306E+01  7.695689306E+01  0.000000000E+00  0.00000E+00  9.000E+00
      25     1     1     2     0     0 -8.449858852E+01  8.467550610E+01  3.570329015E+02  3.967460719E+02  1.250000000E+02  0.00000E+00  9.000E+00
      25     1     1     2     0     0  7.044023294E+01 -9.704747207E+01  4.415212063E+02  4.742847392E+02  1.250000000E+02  0.00000E+00  9.000E+00
      21     1     1     2   511   501  1.405835558E+01  1.237196597E+01 -3.856532759E+01  4.287175522E+01  1.846782373E-06  0.00000E+00  9.000E+00
#rwgt            1           1   4.2396393710182181E-002          10      457363           0
</event>
<event>
      5   9999  3.79277E-02  6.59377E+01 -1.00000E+00  1.32549E-01
      21    -1     0     0   502   512  0.000000000E+00  0.000000000E+00  3.362361077E+02  3.362361077E+02  0.000000000E+00  0.00000E+00  9.000E+00
      21    -1     0     0   501   502  0.000000000E+00  0.000000000E+00 -3.462588031E+03  3.462588031E+03  0.000000000E+00  0.00000E+00  9.000E+00
      25     1     1     2     0     0 -2.519944708E+02  9.740491697E+01 -1.041119808E+03  1.082840887E+03  1.250000000E+02  0.00000E+00  9.000E+00
      25     1     1     2     0     0  2.575233685E+02 -1.631104560E+02 -2.385711729E+03  2.408353953E+03  1.250000000E+02  0.00000E+00  9.000E+00
      21     1     1     2   501   512 -5.528897712E+00  6.570553906E+01  3.004796147E+02  3.076292987E+02  6.607249480E-06  0.00000E+00  9.000E+00
#rwgt            1           1   1.6382896265554843E-002          10      457522           0
</event>
<event>
      5   9999  3.79277E-02  5.45285E+01 -1.00000E+00  1.36961E-01
      21    -1     0     0   502   501  0.000000000E+00  0.000000000E+00  2.298150510E+03  2.298150510E+03  0.000000000E+00  0.00000E+00  9.000E+00
      21    -1     0     0   501   511  0.000000000E+00  0.000000000E+00 -2.983693944E+01  2.983693944E+01  0.000000000E+00  0.00000E+00  9.000E+00
      25     1     1     2     0     0  8.889141362E+01  8.302453254E+01  1.565497260E+03  1.575182982E+03  1.250000000E+02  0.00000E+00  9.000E+00
      25     1     1     2     0     0 -1.037559440E+02 -3.056122192E+01  6.679082497E+02  6.880593827E+02  1.250000000E+02  0.00000E+00  9.000E+00
      21     1     1     2   502   511  1.486453040E+01 -5.246331062E+01  3.490806050E+01  6.474508409E+01  1.846782373E-06  0.00000E+00  9.000E+00
#rwgt            1           1   6.5496776621737932E-002          10      457627           0
</event>
<event>
      5   9999 -3.79277E-02  2.46213E+01 -1.00000E+00  1.59249E-01
      21    -1     0     0   512   501  0.000000000E+00  0.000000000E+00  6.452736443E+01  6.452736443E+01  0.000000000E+00  0.00000E+00  9.000E+00
      21    -1     0     0   501   502  0.000000000E+00  0.000000000E+00 -8.148297479E+02  8.148297479E+02  0.000000000E+00  0.00000E+00  9.000E+00
      25     1     1     2     0     0  4.133658362E+01  1.378311780E+02 -3.878055951E+02  4.321161029E+02  1.250000000E+02  0.00000E+00  9.000E+00
      25     1     1     2     0     0 -3.052448713E+01 -1.599514650E+02 -3.685690888E+02  4.218819606E+02  1.250000000E+02  0.00000E+00  9.000E+00
      21     1     1     2   512   502 -1.081209649E+01  2.212028694E+01  6.072300443E+00  2.535904883E+01  4.042583694E-07  0.00000E+00  9.000E+00
#rwgt            1           1  -1.0745993565220109E-002          10      457716           0
</event>
<event>
      5   9999  3.79277E-02  4.01406E+01 -1.00000E+00  1.44746E-01
      21    -1     0     0   511   501  0.000000000E+00  0.000000000E+00  4.804802018E+02  4.804802018E+02  0.000000000E+00  0.00000E+00  9.000E+00
      21    -1     0     0   501   502  0.000000000E+00  0.000000000E+00 -1.809847597E+02  1.809847597E+02  0.000000000E+00  0.00000E+00  9.000E+00
      25     1     1     2     0     0  4.446922262E+01 -1.834100237E+02  2.668870780E+01  2.279342793E+02  1.250000000E+02  0.00000E+00  9.000E+00
      25     1     1     2     0     0 -3.732072159E+01  2.229089516E+02  1.379112926E+02  2.927896200E+02  1.250000000E+02  0.00000E+00  9.000E+00
      21     1     1     2   511   502 -7.148501034E+00 -3.949892797E+01  1.348954417E+02  1.407410622E+02  1.907348633E-06  0.00000E+00  9.000E+00
#rwgt            1           1   3.7478112683022723E-002          10      457865           0
</event>
<event>
      5   9999  3.79277E-02  1.37051E+01 -1.00000E+00  1.81159E-01
      21    -1     0     0   512   501  0.000000000E+00  0.000000000E+00  9.832322766E+02  9.832322766E+02  0.000000000E+00  0.00000E+00  9.000E+00
      21    -1     0     0   501   502  0.000000000E+00  0.000000000E+00 -3.012632895E+01  3.012632895E+01  0.000000000E+00  0.00000E+00  9.000E+00
      25     1     1     2     0     0 -4.356905907E+01  5.319047048E+01  2.179897120E+02  2.605225587E+02  1.250000000E+02  0.00000E+00  9.000E+00
      25     1     1     2     0     0  4.030919229E+01 -6.650224615E+01  6.384340587E+02  6.551873221E+02  1.250000000E+02  0.00000E+00  9.000E+00
      21     1     1     2   512   502  3.259866778E+00  1.331177567E+01  9.668217691E+01  9.764872470E+01  2.336015456E-06  0.00000E+00  9.000E+00
#rwgt            1           1   5.2095668868794236E-002          10      457955           0
</event>
<event>
      5   9999  3.79277E-02  2.14865E+02 -1.00000E+00  1.10526E-01
      21    -1     0     0   502   501  0.000000000E+00  0.000000000E+00  6.442711188E+01  6.442711188E+01  0.000000000E+00  0.00000E+00  9.000E+00
       2    -1     0     0   501     0  0.000000000E+00  0.000000000E+00 -4.081205750E+03  4.081205750E+03  0.000000000E+00  0.00000E+00  9.000E+00
      25     1     1     2     0     0 -2.822546171E+01  2.553769039E+02 -5.648615502E+02  6.330147001E+02  1.250000000E+02  0.00000E+00  9.000E+00
      25     1     1     2     0     0 -1.819613057E+02 -2.999713901E+02 -2.834864645E+03  2.859226347E+03  1.250000000E+02  0.00000E+00  9.000E+00
       2     1     1     2   502     0  2.101867674E+02  4.459448629E+01 -6.170524434E+02  6.533918146E+02  1.321449896E-05  0.00000E+00  9.000E+00
#rwgt            1           1   2.0212394951591578E-002          10      458160           0
</event>
<event>
      5   9999  3.79277E-02  7.23723E+01 -1.00000E+00  1.30492E-01
      21    -1     0     0   502   501  0.000000000E+00  0.000000000E+00  4.768159197E+02  4.768159197E+02  0.000000000E+00  0.00000E+00  9.000E+00
      21    -1     0     0   501   511  0.000000000E+00  0.000000000E+00 -1.274525000E+02  1.274525000E+02  0.000000000E+00  0.00000E+00  9.000E+00
      25     1     1     2     0     0 -1.657751129E+02  8.558588361E+01  2.245353805E+02  3.175649046E+02  1.250000000E+02  0.00000E+00  9.000E+00
      25     1     1     2     0     0  9.431972850E+01 -9.706990300E+01  1.031783486E+02  2.111623756E+02  1.250000000E+02  0.00000E+00  9.000E+00
      21     1     1     2   502   511  7.145538438E+01  1.148401940E+01  2.164969065E+01  7.554113954E+01  9.233911863E-07  0.00000E+00  9.000E+00
#rwgt            1           1  0.10320223001487960               10      458202           0
</event>
<event>
      5   9999  3.79277E-02  4.57548E+01 -1.00000E+00  1.41310E-01
      21    -1     0     0   502   501  0.000000000E+00  0.000000000E+00  2.223077189E+03  2.223077189E+03  0.000000000E+00  0.00000E+00  9.000E+00
      21    -1     0     0   512   502  0.000000000E+00  0.000000000E+00 -9.175941767E+01  9.175941767E+01  0.000000000E+00  0.00000E+00  9.000E+00
      25     1     1     2     0     0 -3.668194434E+02 -8.782495868E+01  1.026598132E+03  1.100817174E+03  1.250000000E+02  0.00000E+00  9.000E+00
      25     1     1     2     0     0  3.985018580E+02  1.208359518E+02  1.074650407E+03  1.159268544E+03  1.250000000E+02  0.00000E+00  9.000E+00
      21     1     1     2   512   501 -3.168241464E+01 -3.301099310E+01  3.006923180E+01  5.475088825E+01  9.536743164E-07  0.00000E+00  9.000E+00
#rwgt            1           1   3.5166601769666177E-002          10      458317           0
</event>
<event>
      5   9999  3.79277E-02  4.21175E+01 -1.00000E+00  1.43464E-01
      21    -1     0     0   511   501  0.000000000E+00  0.000000000E+00  9.413529222E+02  9.413529222E+02  0.000000000E+00  0.00000E+00  9.000E+00
      21    -1     0     0   501   502  0.000000000E+00  0.000000000E+00 -8.580093624E+01  8.580093624E+01  0.000000000E+00  0.00000E+00  9.000E+00
      25     1     1     2     0     0 -1.022867410E+02  1.196143730E+02  5.028715812E+02  5.415487077E+02  1.250000000E+02  0.00000E+00  9.000E+00
      25     1     1     2     0     0  6.090894062E+01 -1.274730608E+02  7.220446002E+01  2.019845645E+02  1.250000000E+02  0.00000E+00  9.000E+00
      21     1     1     2   511   502  4.137780041E+01  7.858687778E+00  2.804759448E+02  2.836205863E+02  0.000000000E+00  0.00000E+00  9.000E+00
#rwgt            1           1   5.0582140231147751E-002          10      458565           0
</event>
<event>
      5   9999  3.79277E-02  3.25078E+01 -1.00000E+00  1.50657E-01
      21    -1     0     0   512   501  0.000000000E+00  0.000000000E+00  7.876480647E+01  7.876480647E+01  0.000000000E+00  0.00000E+00  9.000E+00
      21    -1     0     0   501   502  0.000000000E+00  0.000000000E+00 -1.476916833E+03  1.476916833E+03  0.000000000E+00  0.00000E+00  9.000E+00
      25     1     1     2     0     0 -1.879261989E+02  5.181026402E+01 -8.038071850E+02  8.364995818E+02  1.250000000E+02  0.00000E+00  9.000E+00
      25     1     1     2     0     0  2.194454172E+02 -4.385432145E+01 -6.243643426E+02  6.749335708E+02  1.250000000E+02  0.00000E+00  9.000E+00
      21     1     1     2   512   502 -3.151921828E+01 -7.955942574E+00  3.001950111E+01  4.424848687E+01  2.236564522E-06  0.00000E+00  9.000E+00
#rwgt            1           1   3.5223304120947541E-002          10      458684           0
</event>
<event>
      5   9999  3.79277E-02  5.60664E+01 -1.00000E+00  1.36296E-01
      -1    -1     0     0     0   501  0.000000000E+00  0.000000000E+00  4.939021657E+02  4.939021657E+02  0.000000000E+00  0.00000E+00  9.000E+00
      21    -1     0     0   501   502  0.000000000E+00  0.000000000E+00 -9.869055231E+01  9.869055231E+01  0.000000000E+00  0.00000E+00  9.000E+00
      25     1     1     2     0     0  4.356292591E+01 -2.026940514E+01  2.956630150E+02  3.245769489E+02  1.250000000E+02  0.00000E+00  9.000E+00
      25     1     1     2     0     0 -3.489508502E+01  7.566175629E+01 -3.983647316E+00  1.502772031E+02  1.250000000E+02  0.00000E+00  9.000E+00
      -1     1     1     2     0   502 -8.667840891E+00 -5.539235116E+01  1.035322457E+02  1.177385660E+02  1.348699152E-06  0.00000E+00  9.000E+00
#rwgt            1           1   3.9928683113898543E-002          10      458840           0
</event>
<event>
      5   9999  3.79277E-02  4.35529E+01 -1.00000E+00  1.42585E-01
      21    -1     0     0   502   501  0.000000000E+00  0.000000000E+00  2.161285054E+02  2.161285054E+02  0.000000000E+00  0.00000E+00  9.000E+00
      21    -1     0     0   511   502  0.000000000E+00  0.000000000E+00 -2.468795143E+02  2.468795143E+02  0.000000000E+00  0.00000E+00  9.000E+00
      25     1     1     2     0     0  1.194254927E+02  9.015190793E+01  6.260885269E+00  1.950743794E+02  1.250000000E+02  0.00000E+00  9.000E+00
      25     1     1     2     0     0 -1.068056158E+02 -1.318363646E+02  5.204741323E-02  2.107445594E+02  1.250000000E+02  0.00000E+00  9.000E+00
      21     1     1     2   511   501 -1.261987690E+01  4.168445665E+01 -3.706394151E+01  5.718908095E+01  4.768371582E-07  0.00000E+00  9.000E+00
#rwgt            1           1   3.3312194555065081E-002          10      458915           0
</event>
<event>
      5   9999  3.79277E-02  4.55663E+01 -1.00000E+00  1.41416E-01
      21    -1     0     0   502   512  0.000000000E+00  0.000000000E+00  4.699962216E+02  4.699962216E+02  0.000000000E+00  0.00000E+00  9.000E+00
      21    -1     0     0   501   502  0.000000000E+00  0.000000000E+00 -1.234131466E+02  1.234131466E+02  0.000000000E+00  0.00000E+00  9.000E+00
      25     1     1     2     0     0 -1.160119502E+02  6.836305084E+01  1.848566131E+02  2.606323977E+02  1.250000000E+02  0.00000E+00  9.000E+00
      25     1     1     2     0     0  1.206090855E+02 -2.302919915E+01  1.128091246E+01  1.755823297E+02  1.250000000E+02  0.00000E+00  9.000E+00
      21     1     1     2   501   512 -4.597135306E+00 -4.533385169E+01  1.504455494E+02  1.571946408E+02  1.907348633E-06  0.00000E+00  9.000E+00
#rwgt            1           1   3.9707500727319239E-002          10      459042           0
</event>
<event>
      5   9999  3.79277E-02  4.46077E+01 -1.00000E+00  1.41963E-01
      21    -1     0     0   502   501  0.000000000E+00  0.000000000E+00  7.370975882E+02  7.370975882E+02  0.000000000E+00  0.00000E+00  9.000E+00
       3    -1     0     0   501     0  0.000000000E+00  0.000000000E+00 -1.154517399E+02  1.154517399E+02  0.000000000E+00  0.00000E+00  9.000E+00
      25     1     1     2     0     0  1.532107089E+02  1.451758037E+02  2.061982721E+02  3.204563351E+02  1.250000000E+02  0.00000E+00  9.000E+00
      25     1     1     2     0     0 -1.282440370E+02 -1.082094400E+02  4.355214028E+02  4.831766842E+02  1.250000000E+02  0.00000E+00  9.000E+00
       3     1     1     2   502     0 -2.496667185E+01 -3.696636369E+01 -2.007382652E+01  4.891630872E+01  6.307962682E-07  0.00000E+00  9.000E+00
#rwgt            1           1   5.8303586337628145E-002          10      459166           0
</event>
<event>
      5   9999  3.79277E-02  7.48169E+01 -1.00000E+00  1.29773E-01
       2    -1     0     0   502     0  0.000000000E+00  0.000000000E+00  1.678554856E+03  1.678554856E+03  0.000000000E+00  0.00000E+00  9.000E+00
      21    -1     0     0   501   502  0.000000000E+00  0.000000000E+00 -1.084282149E+02  1.084282149E+02  0.000000000E+00  0.00000E+00  9.000E+00
      25     1     1     2     0     0  2.655141851E+00 -1.612137807E+02  6.420051867E+01  2.138776273E+02  1.250000000E+02  0.00000E+00  9.000E+00
      25     1     1     2     0     0 -6.106833648E+01  1.144647845E+02  2.171242402E+02  2.821337702E+02  1.250000000E+02  0.00000E+00  9.000E+00
       2     1     1     2   501     0  5.841319463E+01  4.674899621E+01  1.288801882E+03  1.290971673E+03  1.525878906E-05  0.00000E+00  9.000E+00
#rwgt            1           1   2.2857237305841816E-002          10      459337           0
</event>
<event>
      5   9999 -3.79277E-02  2.91281E+01 -1.00000E+00  1.53935E-01
      -1    -1     0     0     0   501  0.000000000E+00  0.000000000E+00  6.476649313E+02  6.476649313E+02  0.000000000E+00  0.00000E+00  9.000E+00
      21    -1     0     0   501   502  0.000000000E+00  0.000000000E+00 -2.159954598E+02  2.159954598E+02  0.000000000E+00  0.00000E+00  9.000E+00
      25     1     1     2     0     0 -2.636975613E+02  1.647559349E+02  1.114054152E+02  3.531530666E+02  1.250000000E+02  0.00000E+00  9.000E+00
      25     1     1     2     0     0  2.616052058E+02 -1.938087601E+02  2.353337961E+02  4.207209464E+02  1.250000000E+02  0.00000E+00  9.000E+00
      -1     1     1     2     0   502  2.092355488E+00  2.905282515E+01  8.493026014E+01  8.978637808E+01  9.536743164E-07  0.00000E+00  9.000E+00
#rwgt            1           1 -0.29761879480508086               10      459429           0
</event>
<event>
      5   9999  3.79277E-02  1.25512E+02 -1.00000E+00  1.19546E-01
      21    -1     0     0   502   501  0.000000000E+00  0.000000000E+00  1.912335292E+02  1.912335292E+02  0.000000000E+00  0.00000E+00  9.000E+00
      21    -1     0     0   511   502  0.000000000E+00  0.000000000E+00 -6.053371857E+02  6.053371857E+02  0.000000000E+00  0.00000E+00  9.000E+00
      25     1     1     2     0     0  1.138658367E+02  6.268112938E+01  7.832846109E+01  1.966079870E+02  1.250000000E+02  0.00000E+00  9.000E+00
      25     1     1     2     0     0 -7.269724149E-01 -1.170220462E+02 -1.258917583E+02  2.125286395E+02  1.250000000E+02  0.00000E+00  9.000E+00
      21     1     1     2   511   501 -1.131388643E+02  5.434091683E+01 -3.665403593E+02  3.874340884E+02  5.394796609E-06  0.00000E+00  9.000E+00
#rwgt            2          11   1.8899661891272723E-003          10      459686           0
</event>
<event>
      5   9999  3.79277E-02  4.68568E+01 -1.00000E+00  1.40704E-01
      21    -1     0     0   512   501  0.000000000E+00  0.000000000E+00  3.960842383E+02  3.960842383E+02  0.000000000E+00  0.00000E+00  9.000E+00
      21    -1     0     0   501   502  0.000000000E+00  0.000000000E+00 -2.215513895E+02  2.215513895E+02  0.000000000E+00  0.00000E+00  9.000E+00
      25     1     1     2     0     0 -1.806178635E+02 -5.690866309E+01 -4.764638138E+01  2.318546661E+02  1.250000000E+02  0.00000E+00  9.000E+00
      25     1     1     2     0     0  2.274745488E+02  5.680818564E+01  1.689518410E+02  3.148675355E+02  1.250000000E+02  0.00000E+00  9.000E+00
      21     1     1     2   512   502 -4.685668535E+01  1.004774533E-01  5.322738916E+01  7.091342619E+01  1.348699152E-06  0.00000E+00  9.000E+00
#rwgt            1           1   4.1932412410523395E-002          10      459811           0
</event>
<event>
      5   9999  3.79277E-02  1.93362E+02 -1.00000E+00  1.12184E-01
      21    -1     0     0   502   501  0.000000000E+00  0.000000000E+00  1.376978519E+03  1.376978519E+03  0.000000000E+00  0.00000E+00  9.000E+00
      21    -1     0     0   511   502  0.000000000E+00  0.000000000E+00 -4.631496905E+02  4.631496905E+02  0.000000000E+00  0.00000E+00  9.000E+00
      25     1     1     2     0     0  3.553071115E+02  2.270461140E+02  6.517808590E+02  7.862800833E+02  1.250000000E+02  0.00000E+00  9.000E+00
      25     1     1     2     0     0 -2.047741620E+02 -1.056841003E+02  6.054385152E+02  6.597593366E+02  1.250000000E+02  0.00000E+00  9.000E+00
      21     1     1     2   511   501 -1.505329495E+02 -1.213620137E+02 -3.433905457E+02  3.940887896E+02  5.394796609E-06  0.00000E+00  9.000E+00
#rwgt            1           1   3.8265493665211897E-002          10      459886           0
</event>
<event>
      5   9999  3.79277E-02  1.26201E+01 -1.00000E+00  1.84756E-01
      21    -1     0     0   512   501  0.000000000E+00  0.000000000E+00  4.585147038E+02  4.585147038E+02  0.000000000E+00  0.00000E+00  9.000E+00
      21    -1     0     0   501   502  0.000000000E+00  0.000000000E+00 -1.262355361E+02  1.262355361E+02  0.000000000E+00  0.00000E+00  9.000E+00
      25     1     1     2     0     0  1.250881228E+02  1.223839417E+02  2.697915462E+02  3.450178924E+02  1.250000000E+02  0.00000E+00  9.000E+00
      25     1     1     2     0     0 -1.273221907E+02 -1.099631710E+02  3.916983451E+01  2.132184681E+02  1.250000000E+02  0.00000E+00  9.000E+00
      21     1     1     2   512   502  2.234067839E+00 -1.242077074E+01  2.331778701E+01  2.651387930E+01  4.768371582E-07  0.00000E+00  9.000E+00
#rwgt            1           1   2.7353806694860820E-002          10      460106           0
</event>
<event>
      5   9999  3.79277E-02  3.47443E+01 -1.00000E+00  1.48739E-01
      21    -1     0     0   511   501  0.000000000E+00  0.000000000E+00  2.220425675E+02  2.220425675E+02  0.000000000E+00  0.00000E+00  9.000E+00
      21    -1     0     0   501   502  0.000000000E+00  0.000000000E+00 -3.641304358E+02  3.641304358E+02  0.000000000E+00  0.00000E+00  9.000E+00
      25     1     1     2     0     0  4.326316773E+00  1.406194162E+02 -2.761583791E+02  3.341870548E+02  1.250000000E+02  0.00000E+00  9.000E+00
      25     1     1     2     0     0  2.141581093E+01 -1.172846461E+02  1.315910830E+02  2.171532599E+02  1.250000000E+02  0.00000E+00  9.000E+00
      21     1     1     2   511   502 -2.574212770E+01 -2.333477018E+01  2.479427788E+00  3.483268867E+01  6.056547592E-07  0.00000E+00  9.000E+00
#rwgt            1           1   2.2819229034872518E-002          10      460468           0
</event>
<event>
      5   9999  3.79277E-02  7.25736E+01 -1.00000E+00  1.30431E-01
      21    -1     0     0   502   501  0.000000000E+00  0.000000000E+00  8.233616295E+02  8.233616295E+02  0.000000000E+00  0.00000E+00  9.000E+00
       3    -1     0     0   501     0  0.000000000E+00  0.000000000E+00 -1.652644047E+02  1.652644047E+02  0.000000000E+00  0.00000E+00  9.000E+00
      25     1     1     2     0     0  2.302855503E+02 -4.081609125E+01  4.137826308E+02  4.914656178E+02  1.250000000E+02  0.00000E+00  9.000E+00
      25     1     1     2     0     0 -1.680362145E+02  7.812484494E+01  3.212707057E+02  3.913815621E+02  1.250000000E+02  0.00000E+00  9.000E+00
       3     1     1     2   502     0 -6.224933572E+01 -3.730875370E+01 -7.695611169E+01  1.057788543E+02  9.536743164E-07  0.00000E+00  9.000E+00
#rwgt            2          14   2.8636897561251998E-005          10      461001           0
</event>
<event>
      5   9999  3.79277E-02  4.00099E+01 -1.00000E+00  1.44834E-01
      21    -1     0     0   511   501  0.000000000E+00  0.000000000E+00  8.690033365E+02  8.690033365E+02  0.000000000E+00  0.00000E+00  9.000E+00
      21    -1     0     0   501   502  0.000000000E+00  0.000000000E+00 -2.515905696E+02  2.515905696E+02  0.000000000E+00  0.00000E+00  9.000E+00
      25     1     1     2     0     0  2.726631307E+01  7.540187865E+01 -2.091269483E+02  2.564916677E+02  1.250000000E+02  0.00000E+00  9.000E+00
      25     1     1     2     0     0  9.957048281E+00 -6.073180702E+01  2.502231668E+02  2.863985481E+02  1.250000000E+02  0.00000E+00  9.000E+00
      21     1     1     2   511   502 -3.722336136E+01 -1.467007163E+01  5.763165484E+02  5.777036902E+02  1.078959322E-05  0.00000E+00  9.000E+00
#rwgt            1           1   2.3439700075565412E-002          10      461020           0
</event>
<event>
      5   9999  3.79277E-02  4.44426E+01 -1.00000E+00  1.42059E-01
      21    -1     0     0   502   501  0.000000000E+00  0.000000000E+00  1.710383286E+02  1.710383286E+02  0.000000000E+00  0.00000E+00  9.000E+00
      21    -1     0     0   512   502  0.000000000E+00  0.000000000E+00 -2.239468503E+02  2.239468503E+02  0.000000000E+00  0.00000E+00  9.000E+00
      25     1     1     2     0     0 -2.952687859E+00 -4.328109816E+01  9.956940337E+01  1.655929887E+02  1.250000000E+02  0.00000E+00  9.000E+00
      25     1     1     2     0     0  1.194559552E-01 -1.071062395E+00 -9.651028371E+01  1.579252871E+02  1.250000000E+02  0.00000E+00  9.000E+00
      21     1     1     2   512   501  2.833231904E+00  4.435216056E+01 -5.596764138E+01  7.146690304E+01  0.000000000E+00  0.00000E+00  9.000E+00
#rwgt            1           1   5.9146513572027083E-002          10      461126           0
</event>
<event>
      5   9999 -3.79277E-02  3.65266E+01 -1.00000E+00  1.47330E-01
      21    -1     0     0   502   501  0.000000000E+00  0.000000000E+00  7.752132766E+01  7.752132766E+01  0.000000000E+00  0.00000E+00  9.000E+00
      21    -1     0     0   511   502  0.000000000E+00  0.000000000E+00 -8.788921767E+02  8.788921767E+02  0.000000000E+00  0.00000E+00  9.000E+00
      25     1     1     2     0     0 -1.832326277E+02 -3.658454744E+01 -3.632839213E+02  4.272152062E+02  1.250000000E+02  0.00000E+00  9.000E+00
      25     1     1     2     0     0  2.058217268E+02  7.880435791E+00 -2.917677272E+02  3.783888095E+02  1.250000000E+02  0.00000E+00  9.000E+00
      21     1     1     2   511   501 -2.258909910E+01  2.870411165E+01 -1.463192005E+02  1.508094886E+02  1.907348633E-06  0.00000E+00  9.000E+00
#rwgt            1           1 -0.26264995376577549               10      461183           0
</event>
<event>
      5   9999  3.79277E-02  1.84722E+01 -1.00000E+00  1.69268E-01
      21    -1     0     0   502   501  0.000000000E+00  0.000000000E+00  6.095074481E+02  6.095074481E+02  0.000000000E+00  0.00000E+00  9.000E+00
      21    -1     0     0   501   512  0.000000000E+00  0.000000000E+00 -3.772537889E+02  3.772537889E+02  0.000000000E+00  0.00000E+00  9.000E+00
      25     1     1     2     0     0 -1.353655398E+02 -6.972104321E+01  8.970166731E+01  2.164630277E+02  1.250000000E+02  0.00000E+00  9.000E+00
      25     1     1     2     0     0  1.346541477E+02  8.817957429E+01  4.333687130E+02  4.788954147E+02  1.250000000E+02  0.00000E+00  9.000E+00
      21     1     1     2   502   512  7.113921709E-01 -1.845853108E+01 -2.908167211E+02  2.914027946E+02  5.394796609E-06  0.00000E+00  9.000E+00
#rwgt            1           1   1.6007834929979637E-002          10      461382           0
</event>
<event>
      5   9999  3.79277E-02  6.95895E+01 -1.00000E+00  1.31350E-01
      21    -1     0     0   502   501  0.000000000E+00  0.000000000E+00  6.779671916E+02  6.779671916E+02  0.000000000E+00  0.00000E+00  9.000E+00
      21    -1     0     0   511   502  0.000000000E+00  0.000000000E+00 -1.369275158E+02  1.369275158E+02  0.000000000E+00  0.00000E+00  9.000E+00
      25     1     1     2     0     0 -1.826133585E+02 -8.206510591E+01  4.488045436E+02  5.070826744E+02  1.250000000E+02  0.00000E+00  9.000E+00
      25     1     1     2     0     0  1.318523159E+02  1.296677551E+02  6.010416041E+01  2.311628647E+02  1.250000000E+02  0.00000E+00  9.000E+00
      21     1     1     2   511   501  5.076104264E+01 -4.760264918E+01  3.213097165E+01  7.664916828E+01  6.743495762E-07  0.00000E+00  9.000E+00
#rwgt            1           1   2.4321121298973555E-002          10      461503           0
</event>
<event>
      5   9999  3.79277E-02  3.06830E+01 -1.00000E+00  1.52364E-01
      21    -1     0     0   502   501  0.000000000E+00  0.000000000E+00  3.467050298E+02  3.467050298E+02  0.000000000E+00  0.00000E+00  9.000E+00
      21    -1     0     0   512   502  0.000000000E+00  0.000000000E+00 -7.615731513E+01  7.615731513E+01  0.000000000E+00  0.00000E+00  9.000E+00
      25     1     1     2     0     0  5.982583348E+01 -6.201847117E+01  1.575073516E+02  2.187669695E+02  1.250000000E+02  0.00000E+00  9.000E+00
      25     1     1     2     0     0 -4.994591550E+01  3.296969296E+01  9.921646138E+01  1.704420762E+02  1.250000000E+02  0.00000E+00  9.000E+00
      21     1     1     2   512   501 -9.879917974E+00  2.904877821E+01  1.382390169E+01  3.365329928E+01  1.685873940E-07  0.00000E+00  9.000E+00
#rwgt            1           1   5.9950265047163796E-002          10      461918           0
</event>
<event>
      5   9999  3.79277E-02  3.08150E+01 -1.00000E+00  1.52236E-01
      21    -1     0     0   511   501  0.000000000E+00  0.000000000E+00  1.089503346E+02  1.089503346E+02  0.000000000E+00  0.00000E+00  9.000E+00
      21    -1     0     0   501   502  0.000000000E+00  0.000000000E+00 -8.331835729E+02  8.331835729E+02  0.000000000E+00  0.00000E+00  9.000E+00
      25     1     1     2     0     0 -1.249039864E+01  1.190839019E+02 -1.884210481E+02  2.558602687E+02  1.250000000E+02  0.00000E+00  9.000E+00
      25     1     1     2     0     0  2.856382963E+01 -9.279307349E+01 -5.970750556E+02  6.176973927E+02  1.250000000E+02  0.00000E+00  9.000E+00
      21     1     1     2   511   502 -1.607343100E+01 -2.629082838E+01  6.126286546E+01  6.857624607E+01  1.507891493E-06  0.00000E+00  9.000E+00
#rwgt            1           1   4.4837342292876864E-002          10      462017           0
</event>
<event>
      5   9999  3.79277E-02  2.29299E+02 -1.00000E+00  1.09529E-01
      21    -1     0     0   512   501  0.000000000E+00  0.000000000E+00  4.923455805E+02  4.923455805E+02  0.000000000E+00  0.00000E+00  9.000E+00
      21    -1     0     0   501   502  0.000000000E+00  0.000000000E+00 -9.600694609E+02  9.600694609E+02  0.000000000E+00  0.00000E+00  9.000E+00
      25     1     1     2     0     0 -1.120509718E+02  2.845582106E+02 -8.214971168E+02  8.854441306E+02  1.250000000E+02  0.00000E+00  9.000E+00
      25     1     1     2     0     0 -1.303230454E+01 -9.238122523E+01  1.338117260E+01  1.565509103E+02  1.250000000E+02  0.00000E+00  9.000E+00
      21     1     1     2   512   502  1.250832764E+02 -1.921769853E+02  3.403920638E+02  4.104200005E+02  3.814697266E-06  0.00000E+00  9.000E+00
#rwgt            1           1   4.0272167587516103E-002          10      462141           0
</event>
<event>
      5   9999  3.79277E-02  1.11113E+02 -1.00000E+00  1.21804E-01
      21    -1     0     0   502   501  0.000000000E+00  0.000000000E+00  1.704368568E+03  1.704368568E+03  0.000000000E+00  0.00000E+00  9.000E+00
      21    -1     0     0   511   502  0.000000000E+00  0.000000000E+00 -6.211642658E+01  6.211642658E+01  0.000000000E+00  0.00000E+00  9.000E+00
      25     1     1     2     0     0 -6.387925082E+01 -1.010174098E+02  1.018045744E+03  1.032631208E+03  1.250000000E+02  0.00000E+00  9.000E+00
      25     1     1     2     0     0  1.413199117E+02  2.133679234E+01  5.865770334E+02  6.165421252E+02  1.250000000E+02  0.00000E+00  9.000E+00
      21     1     1     2   511   501 -7.744066085E+01  7.968061747E+01  3.762936413E+01  1.173116610E+02  2.431401974E-06  0.00000E+00  9.000E+00
#rwgt            1           1   5.0221991629652969E-002          10      462204           0
</event>
<event>
      5   9999  3.79277E-02  6.83532E+01 -1.00000E+00  1.31746E-01
       1    -1     0     0   502     0  0.000000000E+00  0.000000000E+00  1.755451530E+03  1.755451530E+03  0.000000000E+00  0.00000E+00  9.000E+00
      21    -1     0     0   501   502  0.000000000E+00  0.000000000E+00 -3.450920870E+01  3.450920870E+01  0.000000000E+00  0.00000E+00  9.000E+00
      25     1     1     2     0     0 -7.886742765E+01 -2.810463018E+01  3.794268982E+02  4.081662804E+02  1.250000000E+02  0.00000E+00  9.000E+00
      25     1     1     2     0     0  1.124394368E+02 -3.143593216E+01  3.671780666E+02  4.050624364E+02  1.250000000E+02  0.00000E+00  9.000E+00
       1     1     1     2   501     0 -3.357200914E+01  5.954056234E+01  9.743373569E+02  9.767320223E+02  1.078959322E-05  0.00000E+00  9.000E+00
#rwgt            1           1   4.7484598880522103E-002          10      462281           0
</event>
<event>
      5   9999  3.79277E-02  1.04038E+02 -1.00000E+00  1.23060E-01
       1    -1     0     0   502     0  0.000000000E+00  0.000000000E+00  2.169643467E+03  2.169643467E+03  0.000000000E+00  0.00000E+00  9.000E+00
      21    -1     0     0   501   502  0.000000000E+00  0.000000000E+00 -4.626171294E+01  4.626171294E+01  0.000000000E+00  0.00000E+00  9.000E+00
      25     1     1     2     0     0 -1.220732227E+01 -1.520837190E+01  7.242347423E+01  1.457754194E+02  1.250000000E+02  0.00000E+00  9.000E+00
      25     1     1     2     0     0 -4.857741232E+01  9.964275364E+01  9.810081454E+02  9.951333703E+02  1.250000000E+02  0.00000E+00  9.000E+00
       1     1     1     2   501     0  6.078473459E+01 -8.443438174E+01  1.069950135E+03  1.074996390E+03  1.525878906E-05  0.00000E+00  9.000E+00
#rwgt            1           1   4.1679914606282384E-002          10      462452           0
</event>
<event>
      5   9999  3.79277E-02  4.64437E+01 -1.00000E+00  1.40929E-01
      21    -1     0     0   502   501  0.000000000E+00  0.000000000E+00  8.098433001E+01  8.098433001E+01  0.000000000E+00  0.00000E+00  9.000E+00
      21    -1     0     0   511   502  0.000000000E+00  0.000000000E+00 -7.771827296E+02  7.771827296E+02  0.000000000E+00  0.00000E+00  9.000E+00
      25     1     1     2     0     0  2.811789845E+01 -1.974566306E+02 -2.362377442E+02  3.334861451E+02  1.250000000E+02  0.00000E+00  9.000E+00
      25     1     1     2     0     0  2.340459246E+00  1.623952404E+02 -3.551628558E+02  4.100528575E+02  1.250000000E+02  0.00000E+00  9.000E+00
      21     1     1     2   511   501 -3.045835770E+01  3.506139017E+01 -1.047977997E+02  1.146280570E+02  0.000000000E+00  0.00000E+00  9.000E+00
#rwgt            1           1   4.3930976630488838E-002          10      462508           0
</event>
<event>
      5   9999  3.79277E-02  4.04280E+01 -1.00000E+00  1.44554E-01
      21    -1     0     0   512   501  0.000000000E+00  0.000000000E+00  1.263820464E+03  1.263820464E+03  0.000000000E+00  0.00000E+00  9.000E+00
      21    -1     0     0   501   502  0.000000000E+00  0.000000000E+00 -3.451244568E+02  3.451244568E+02  0.000000000E+00  0.00000E+00  9.000E+00
      25     1     1     2     0     0  1.869449654E+01 -6.192756022E+00 -3.813389970E+01  1.321628871E+02  1.250000000E+02  0.00000E+00  9.000E+00
      25     1     1     2     0     0 -3.499588417E+01 -3.080305767E+01 -2.424974542E+02  2.767734734E+02  1.250000000E+02  0.00000E+00  9.000E+00
      21     1     1     2   512   502  1.630138762E+01  3.699581370E+01  1.199327361E+03  1.200008560E+03  0.000000000E+00  0.00000E+00  9.000E+00
#rwgt            1           1   7.9190572350177194E-002          10      462600           0
</event>
<event>
      5   9999  3.79277E-02  4.27921E+01 -1.00000E+00  1.43046E-01
      21    -1     0     0   502   501  0.000000000E+00  0.000000000E+00  5.946909226E+02  5.946909226E+02  0.000000000E+00  0.00000E+00  9.000E+00
      21    -1     0     0   501   511  0.000000000E+00  0.000000000E+00 -8.108272745E+01  8.108272745E+01  0.000000000E+00  0.00000E+00  9.000E+00
      25     1     1     2     0     0  1.339952228E+02  5.018328629E+01  2.224713615E+02  2.925604017E+02  1.250000000E+02  0.00000E+00  9.000E+00
      25     1     1     2     0     0 -9.470684642E+01 -3.322488688E+01  2.994141978E+02  3.396279460E+02  1.250000000E+02  0.00000E+00  9.000E+00
      21     1     1     2   502   511 -3.928837635E+01 -1.695839941E+01 -8.277364128E+00  4.358530238E+01  7.725644944E-07  0.00000E+00  9.000E+00
#rwgt            1           1   3.8567324285877953E-002          10      463034           0
</event>
<event>
      5   9999  3.79277E-02  1.65229E+01 -1.00000E+00  1.73517E-01
      -3    -1     0     0     0   501  0.000000000E+00  0.000000000E+00  1.728084340E+02  1.728084340E+02  0.000000000E+00  0.00000E+00  9.000E+00
      21    -1     0     0   501   502  0.000000000E+00  0.000000000E+00 -1.249522251E+03  1.249522251E+03  0.000000000E+00  0.00000E+00  9.000E+00
      25     1     1     2     0     0 -1.090700611E+02 -3.677559054E+01 -9.729409819E+01  1.958056787E+02  1.250000000E+02  0.00000E+00  9.000E+00
      25     1     1     2     0     0  9.766275416E+01  2.482237170E+01 -1.096546332E+03  1.108238703E+03  1.250000000E+02  0.00000E+00  9.000E+00
      -3     1     1     2     0   502  1.140730691E+01  1.195321884E+01  1.171266132E+02  1.182863036E+02  2.336015456E-06  0.00000E+00  9.000E+00
#rwgt            1           1   3.4550249696388646E-002          10      463212           0
</event>
<event>
      5   9999  3.79277E-02  1.26593E+01 -1.00000E+00  1.84618E-01
      21    -1     0     0   502   501  0.000000000E+00  0.000000000E+00  1.682254299E+03  1.682254299E+03  0.000000000E+00  0.00000E+00  9.000E+00
      21    -1     0     0   511   502  0.000000000E+00  0.000000000E+00 -2.343934274E+02  2.343934274E+02  0.000000000E+00  0.00000E+00  9.000E+00
      25     1     1     2     0     0  3.430624892E+02 -1.609518837E+02  1.096370481E+03  1.166726451E+03  1.250000000E+02  0.00000E+00  9.000E+00
      25     1     1     2     0     0 -3.444428712E+02  1.483680312E+02  4.794082689E+02  6.213785098E+02  1.250000000E+02  0.00000E+00  9.000E+00
      21     1     1     2   511   501  1.380381961E+00  1.258385255E+01 -1.279178785E+02  1.285427651E+02  2.697398305E-06  0.00000E+00  9.000E+00
#rwgt            1           1   3.8631954663745909E-002          10      463351           0
</event>
<event>
      5   9999  3.79277E-02  4.15907E+01 -1.00000E+00  1.43798E-01
      21    -1     0     0   502   501  0.000000000E+00  0.000000000E+00  9.404669643E+01  9.404669643E+01  0.000000000E+00  0.00000E+00  9.000E+00
      21    -1     0     0   501   512  0.000000000E+00  0.000000000E+00 -1.143806246E+03  1.143806246E+03  0.000000000E+00  0.00000E+00  9.000E+00
      25     1     1     2     0     0  4.483696362E+01  1.455380085E+02 -1.160742859E+02  2.286698604E+02  1.250000000E+02  0.00000E+00  9.000E+00
      25     1     1     2     0     0 -8.100669650E+01 -1.250065655E+02 -2.173501078E+02  2.916415534E+02  1.250000000E+02  0.00000E+00  9.000E+00
      21     1     1     2   502   512  3.616973288E+01 -2.053144297E+01 -7.163351561E+02  7.175415288E+02  1.321449896E-05  0.00000E+00  9.000E+00
#rwgt            1           1   5.9220060913545002E-002          10      463709           0
</event>
<event>
      5   9999  3.79277E-02  1.96863E+01 -1.00000E+00  1.66938E-01
      21    -1     0     0   502   501  0.000000000E+00  0.000000000E+00  1.874372249E+03  1.874372249E+03  0.000000000E+00  0.00000E+00  9.000E+00
      21    -1     0     0   511   502  0.000000000E+00  0.000000000E+00 -3.406730593E+01  3.406730593E+01  0.000000000E+00  0.00000E+00  9.000E+00
      25     1     1     2     0     0 -4.983346053E+01  7.842582742E+01  2.095993578E+02  2.611338258E+02  1.250000000E+02  0.00000E+00  9.000E+00
      25     1     1     2     0     0  3.031947062E+01 -7.582705645E+01  1.615617876E+03  1.622502738E+03  1.250000000E+02  0.00000E+00  9.000E+00
      21     1     1     2   511   501  1.951398992E+01 -2.598770969E+00  1.508770943E+01  2.480299153E+01  3.769728732E-07  0.00000E+00  9.000E+00
#rwgt            1           1   3.6102066324864936E-002          10      463829           0
</event>
<event>
      5   9999  3.79277E-02  1.36784E+01 -1.00000E+00  1.81242E-01
      21    -1     0     0   502   501  0.000000000E+00  0.000000000E+00  2.366677719E+03  2.366677719E+03  0.000000000E+00  0.00000E+00  9.000E+00
      21    -1     0     0   512   502  0.000000000E+00  0.000000000E+00 -1.857082759E+01  1.857082759E+01  0.000000000E+00  0.00000E+00  9.000E+00
      25     1     1     2     0     0 -1.465890537E+02 -1.794303102E+01  9.052620754E+02  9.257076904E+02  1.250000000E+02  0.00000E+00  9.000E+00
      25     1     1     2     0     0  1.452978014E+02  3.156031098E+01  1.417436040E+03  1.430684253E+03  1.250000000E+02  0.00000E+00  9.000E+00
      21     1     1     2   512   501  1.291252324E+00 -1.361727995E+01  2.540877615E+01  2.885660326E+01  6.743495762E-07  0.00000E+00  9.000E+00
#rwgt            1           1   7.4244460326027675E-002          10      464029           0
</event>
<event>
      5   9999  3.79277E-02  1.60978E+01 -1.00000E+00  1.74542E-01
      21    -1     0     0   502   501  0.000000000E+00  0.000000000E+00  3.253765588E+02  3.253765588E+02  0.000000000E+00  0.00000E+00  9.000E+00
      21    -1     0     0   501   511  0.000000000E+00  0.000000000E+00 -1.890794631E+02  1.890794631E+02  0.000000000E+00  0.00000E+00  9.000E+00
      25     1     1     2     0     0  4.745270266E+01 -1.130487896E+02  2.392677606E+02  2.964892057E+02  1.250000000E+02  0.00000E+00  9.000E+00
      25     1     1     2     0     0 -3.251229223E+01  1.070551437E+02 -7.098465907E+01  1.821583783E+02  1.250000000E+02  0.00000E+00  9.000E+00
      21     1     1     2   502   511 -1.494041043E+01  5.993645831E+00 -3.198600594E+01  3.580843797E+01  5.840038640E-07  0.00000E+00  9.000E+00
#rwgt            1           1   4.4772059588593434E-002          10      464247           0
</event>
<event>
      5   9999  3.79277E-02  3.72778E+01  7.55638E-03  1.46764E-01
       2    -1     0     0   501     0  0.000000000E+00  0.000000000E+00  1.027777952E+03  1.027777952E+03  0.000000000E+00  0.00000E+00  9.000E+00
      -2    -1     0     0     0   502  0.000000000E+00  0.000000000E+00 -2.878471232E+01  2.878471232E+01  0.000000000E+00  0.00000E+00  9.000E+00
      25     1     1     2     0     0  2.772479310E+01 -3.309828954E-01  2.087741489E+02  2.449090014E+02  1.250000000E+02  0.00000E+00  9.000E+00
      25     1     1     2     0     0 -6.183423817E-01 -2.525953425E+01  4.042493115E+02  4.238878770E+02  1.250000000E+02  0.00000E+00  9.000E+00
      21     1     1     2   501   502 -2.710645072E+01  2.559051714E+01  3.859697788E+02  3.877657855E+02  7.629394531E-06  0.00000E+00  9.000E+00
#rwgt            3           7   3.7623031776406617E-004          10      464387           0
</event>
<event>
      5   9999  3.79277E-02  1.03399E+02 -1.00000E+00  1.23179E-01
      21    -1     0     0   502   511  0.000000000E+00  0.000000000E+00  3.700184174E+02  3.700184174E+02  0.000000000E+00  0.00000E+00  9.000E+00
      21    -1     0     0   501   502  0.000000000E+00  0.000000000E+00 -8.138446602E+02  8.138446602E+02  0.000000000E+00  0.00000E+00  9.000E+00
      25     1     1     2     0     0  1.548595442E+02 -3.470773564E+01 -4.341479010E+02  4.788481025E+02  1.250000000E+02  0.00000E+00  9.000E+00
      25     1     1     2     0     0 -1.390645983E+02  1.368930815E+02 -3.101987236E+02  3.872039855E+02  1.250000000E+02  0.00000E+00  9.000E+00
      21     1     1     2   501   511 -1.579494595E+01 -1.021853458E+02  3.005203818E+02  3.178109896E+02  0.000000000E+00  0.00000E+00  9.000E+00
#rwgt            1           1   4.2692155625440889E-002          10      464421           0
</event>
<event>
      5   9999  3.79277E-02  9.75085E+00 -1.00000E+00  1.97032E-01
      21    -1     0     0   502   501  0.000000000E+00  0.000000000E+00  3.273861142E+02  3.273861142E+02  0.000000000E+00  0.00000E+00  9.000E+00
      21    -1     0     0   512   502  0.000000000E+00  0.000000000E+00 -9.884664351E+02  9.884664351E+02  0.000000000E+00  0.00000E+00  9.000E+00
      25     1     1     2     0     0  7.564207789E+01  2.550527340E+02 -2.732049452E+02  4.012973501E+02  1.250000000E+02  0.00000E+00  9.000E+00
      25     1     1     2     0     0 -6.741437640E+01 -2.602857075E+02  1.798200717E+02  3.467760168E+02  1.250000000E+02  0.00000E+00  9.000E+00
      21     1     1     2   512   501 -8.227701487E+00  5.232973485E+00 -5.676954474E+02  5.677791825E+02  0.000000000E+00  0.00000E+00  9.000E+00
#rwgt            1           1   3.6970096948114331E-002          10      464475           0
</event>
<event>
      5   9999  3.79277E-02  1.00880E+01 -1.00000E+00  1.95318E-01
      21    -1     0     0   502   511  0.000000000E+00  0.000000000E+00  6.299715333E+02  6.299715333E+02  0.000000000E+00  0.00000E+00  9.000E+00
      21    -1     0     0   501   502  0.000000000E+00  0.000000000E+00 -1.581291139E+02  1.581291139E+02  0.000000000E+00  0.00000E+00  9.000E+00
      25     1     1     2     0     0  2.363390813E+02  7.875840627E+01  3.697955572E+02  4.630688956E+02  1.250000000E+02  0.00000E+00  9.000E+00
      25     1     1     2     0     0 -2.372925674E+02 -8.880122347E+01  6.948199881E+01  2.909401450E+02  1.250000000E+02  0.00000E+00  9.000E+00
      21     1     1     2   501   511  9.534860341E-01  1.004281720E+01  3.256486343E+01  3.409160664E+01  4.768371582E-07  0.00000E+00  9.000E+00
#rwgt            1           1   3.5836667322088747E-002          10      465072           0
</event>
<event>
      5   9999  3.79277E-02  1.01986E+02 -1.00000E+00  1.23445E-01
      21    -1     0     0   502   501  0.000000000E+00  0.000000000E+00  4.924021245E+02  4.924021245E+02  0.000000000E+00  0.00000E+00  9.000E+00
      21    -1     0     0   501   512  0.000000000E+00  0.000000000E+00 -1.767340228E+02  1.767340228E+02  0.000000000E+00  0.00000E+00  9.000E+00
      25     1     1     2     0     0 -1.588939858E+02  2.803711761E+01  1.264891155E+02  2.401205427E+02  1.250000000E+02  0.00000E+00  9.000E+00
      25     1     1     2     0     0  1.869870379E+02 -1.260779109E+02  2.001900078E+02  3.264365653E+02  1.250000000E+02  0.00000E+00  9.000E+00
      21     1     1     2   502   512 -2.809305208E+01  9.804079328E+01 -1.101102159E+01  1.025790394E+02  2.016012016E-06  0.00000E+00  9.000E+00
#rwgt            2          11   2.3382242802954334E-003          10      465288           0
</event>
<event>
      5   9999  3.79277E-02  9.63467E+01 -1.00000E+00  1.24559E-01
      21    -1     0     0   502   501  0.000000000E+00  0.000000000E+00  6.595943805E+02  6.595943805E+02  0.000000000E+00  0.00000E+00  9.000E+00
      21    -1     0     0   501   511  0.000000000E+00  0.000000000E+00 -1.520133753E+02  1.520133753E+02  0.000000000E+00  0.00000E+00  9.000E+00
      25     1     1     2     0     0  2.342809435E+02 -4.112405481E+01  2.534343093E+02  3.693679703E+02  1.250000000E+02  0.00000E+00  9.000E+00
      25     1     1     2     0     0 -1.383529565E+02  3.215139070E+01  2.841037703E+02  3.413432361E+02  1.250000000E+02  0.00000E+00  9.000E+00
      21     1     1     2   502   511 -9.592798698E+01  8.972664108E+00 -2.995707445E+01  1.008965495E+02  9.536743164E-07  0.00000E+00  9.000E+00
#rwgt            1           1   3.4148472410194364E-002          10      465338           0
</event>
<event>
      5   9999  3.79277E-02  6.84907E+01 -1.00000E+00  1.31702E-01
      21    -1     0     0   502   501  0.000000000E+00  0.000000000E+00  1.117228461E+03  1.117228461E+03  0.000000000E+00  0.00000E+00  9.000E+00
       2    -1     0     0   501     0  0.000000000E+00  0.000000000E+00 -1.236047084E+03  1.236047084E+03  0.000000000E+00  0.00000E+00  9.000E+00
      25     1     1     2     0     0  1.067167890E+02 -1.423193158E+01  9.074498812E+02  9.223238628E+02  1.250000000E+02  0.00000E+00  9.000E+00
      25     1     1     2     0     0 -8.182474222E+01 -4.957532745E+01  1.705996220E+02  2.321254673E+02  1.250000000E+02  0.00000E+00  9.000E+00
       2     1     1     2   502     0 -2.489204680E+01  6.380725903E+01 -1.196868127E+03  1.198826215E+03  1.525878906E-05  0.00000E+00  9.000E+00
#rwgt            1           1   4.7930889920414894E-002          10      465551           0
</event>
<event>
      5   9999  3.79277E-02  5.57980E+01 -1.00000E+00  1.36410E-01
      -2    -1     0     0     0   501  0.000000000E+00  0.000000000E+00  5.775040445E+02  5.775040445E+02  0.000000000E+00  0.00000E+00  9.000E+00
      21    -1     0     0   501   502  0.000000000E+00  0.000000000E+00 -4.812065659E+02  4.812065659E+02  0.000000000E+00  0.00000E+00  9.000E+00
      25     1     1     2     0     0  5.964019782E+01  9.436827568E+01 -3.763459976E+02  4.119752839E+02  1.250000000E+02  0.00000E+00  9.000E+00
      25     1     1     2     0     0 -1.343001521E+01 -1.256418228E+02  7.122097098E+00  1.778818631E+02  1.250000000E+02  0.00000E+00  9.000E+00
      -2     1     1     2     0   502 -4.621018261E+01  3.127354710E+01  4.655213791E+02  4.688534634E+02  7.629394531E-06  0.00000E+00  9.000E+00
#rwgt            1           1   5.4619471283517927E-002          10      465652           0
</event>
<event>
      5   9999  3.79277E-02  1.86810E+01 -1.00000E+00  1.68852E-01
      21    -1     0     0   502   511  0.000000000E+00  0.000000000E+00  1.560421790E+03  1.560421790E+03  0.000000000E+00  0.00000E+00  9.000E+00
      21    -1     0     0   501   502  0.000000000E+00  0.000000000E+00 -6.783959406E+01  6.783959406E+01  0.000000000E+00  0.00000E+00  9.000E+00
      25     1     1     2     0     0  1.252717374E+02  2.307463573E+02  4.698320279E+02  5.525432327E+02  1.250000000E+02  0.00000E+00  9.000E+00
      25     1     1     2     0     0 -1.104261925E+02 -2.194066973E+02  6.981501216E+02  7.505809983E+02  1.250000000E+02  0.00000E+00  9.000E+00
      21     1     1     2   501   511 -1.484554491E+01 -1.133965995E+01  3.246000466E+02  3.251371532E+02  5.394796609E-06  0.00000E+00  9.000E+00
#rwgt            1           1  0.11655707285331723               10      465766           0
</event>
<event>
      5   9999  3.79277E-02  4.08347E+01 -1.00000E+00  1.44286E-01
      21    -1     0     0   502   501  0.000000000E+00  0.000000000E+00  5.779866611E+02  5.779866611E+02  0.000000000E+00  0.00000E+00  9.000E+00
      21    -1     0     0   512   502  0.000000000E+00  0.000000000E+00 -1.122175229E+02  1.122175229E+02  0.000000000E+00  0.00000E+00  9.000E+00
      25     1     1     2     0     0  6.097307750E+01  1.729469142E+02  1.137698427E+02  2.493931203E+02  1.250000000E+02  0.00000E+00  9.000E+00
      25     1     1     2     0     0 -5.077170627E+01 -1.334070425E+02  3.521090749E+02  3.999762565E+02  1.250000000E+02  0.00000E+00  9.000E+00
      21     1     1     2   512   501 -1.020137123E+01 -3.953987174E+01 -1.097794410E-01  4.083480726E+01  3.036511521E-07  0.00000E+00  9.000E+00
#rwgt            1           1   3.9981421014121922E-002          10      466077           0
</event>
<event>
      5   9999  3.79277E-02  1.05955E+01 -1.00000E+00  1.92897E-01
      21    -1     0     0   502   511  0.000000000E+00  0.000000000E+00  2.498203215E+02  2.498203215E+02  0.000000000E+00  0.00000E+00  9.000E+00
      21    -1     0     0   501   502  0.000000000E+00  0.000000000E+00 -5.047573414E+02  5.047573414E+02  0.000000000E+00  0.00000E+00  9.000E+00
      25     1     1     2     0     0  4.309748805E+01 -2.704113979E+02 -2.595553131E+02  3.974590270E+02  1.250000000E+02  0.00000E+00  9.000E+00
      25     1     1     2     0     0 -3.281102028E+01  2.678710870E+02 -4.990603204E+01  3.015743595E+02  1.250000000E+02  0.00000E+00  9.000E+00
      21     1     1     2   501   511 -1.028646776E+01  2.540310940E+00  5.452432521E+01  5.554427638E+01  9.536743164E-07  0.00000E+00  9.000E+00
#rwgt            1           1   1.4488802513325572E-002          10      466229           0
</event>
<event>
      5   9999  3.79277E-02  1.62495E+01 -1.00000E+00  1.74171E-01
      21    -1     0     0   502   512  0.000000000E+00  0.000000000E+00  1.379390316E+02  1.379390316E+02  0.000000000E+00  0.00000E+00  9.000E+00
      21    -1     0     0   501   502  0.000000000E+00  0.000000000E+00 -6.023048975E+02  6.023048975E+02  0.000000000E+00  0.00000E+00  9.000E+00
      25     1     1     2     0     0  6.404228502E+01 -3.913105530E+01  6.859302540E+00  1.459613092E+02  1.250000000E+02  0.00000E+00  9.000E+00
      25     1     1     2     0     0 -5.774500733E+01  5.411070058E+01 -5.211696351E+02  5.417612411E+02  1.250000000E+02  0.00000E+00  9.000E+00
      21     1     1     2   501   512 -6.297277695E+00 -1.497964528E+01  4.994446668E+01  5.252137880E+01  9.536743164E-07  0.00000E+00  9.000E+00
#rwgt            1           1   4.0694383184837951E-002          10      466573           0
</event>
<event>
      5   9999  3.79277E-02  4.36774E+01 -1.00000E+00  1.42510E-01
      21    -1     0     0   502   501  0.000000000E+00  0.000000000E+00  3.068062691E+02  3.068062691E+02  0.000000000E+00  0.00000E+00  9.000E+00
      21    -1     0     0   511   502  0.000000000E+00  0.000000000E+00 -2.624105220E+02  2.624105220E+02  0.000000000E+00  0.00000E+00  9.000E+00
      25     1     1     2     0     0 -2.001144201E+02 -1.709476140E+01  1.304840729E+02  2.701649593E+02  1.250000000E+02  0.00000E+00  9.000E+00
      25     1     1     2     0     0  1.977932169E+02  6.071042172E+01 -8.166471849E+01  2.551510106E+02  1.250000000E+02  0.00000E+00  9.000E+00
      21     1     1     2   511   501  2.321203187E+00 -4.361566032E+01 -4.423607266E+00  4.390082129E+01  2.308477966E-07  0.00000E+00  9.000E+00
#rwgt            1           1   3.8214643791494265E-002          10      466884           0
</event>
<event>
      5   9999  3.79277E-02  9.81105E+01 -1.00000E+00  1.24202E-01
      21    -1     0     0   502   501  0.000000000E+00  0.000000000E+00  1.027561866E+02  1.027561866E+02  0.000000000E+00  0.00000E+00  9.000E+00
      21    -1     0     0   501   512  0.000000000E+00  0.000000000E+00 -6.755172166E+02  6.755172166E+02  0.000000000E+00  0.00000E+00  9.000E+00
      25     1     1     2     0     0  9.930889053E+01 -7.296488556E+01 -3.271140202E+02  3.712340400E+02  1.250000000E+02  0.00000E+00  9.000E+00
      25     1     1     2     0     0 -6.382968382E+01  1.644356594E+02 -1.188120043E+02  2.466872656E+02  1.250000000E+02  0.00000E+00  9.000E+00
      21     1     1     2   502   512 -3.547920671E+01 -9.147077385E+01 -1.268350056E+02  1.603520976E+02  1.907348633E-06  0.00000E+00  9.000E+00
#rwgt            2          11   2.7943025414030719E-003          10      467054           0
</event>
<event>
      5   9999  3.79277E-02  4.94090E+01 -1.00000E+00  1.39371E-01
      21    -1     0     0   502   501  0.000000000E+00  0.000000000E+00  8.735392292E+01  8.735392292E+01  0.000000000E+00  0.00000E+00  9.000E+00
      21    -1     0     0   511   502  0.000000000E+00  0.000000000E+00 -5.829029072E+02  5.829029072E+02  0.000000000E+00  0.00000E+00  9.000E+00
      25     1     1     2     0     0 -1.255872999E+02 -3.950528423E+01 -1.278458785E+02  2.220414512E+02  1.250000000E+02  0.00000E+00  9.000E+00
      25     1     1     2     0     0  1.629693711E+02  7.196854785E+00 -2.767993915E+02  3.447516697E+02  1.250000000E+02  0.00000E+00  9.000E+00
      21     1     1     2   511   501 -3.738207122E+01  3.230842944E+01 -9.090371428E+01  1.034637092E+02  1.348699152E-06  0.00000E+00  9.000E+00
#rwgt            1           1   3.0533794564768783E-002          10      467119           0
</event>
<event>
      5   9999  3.79277E-02  4.22554E+01 -1.00000E+00  1.43378E-01
      21    -1     0     0   502   501  0.000000000E+00  0.000000000E+00  4.949582627E+02  4.949582627E+02  0.000000000E+00  0.00000E+00  9.000E+00
      21    -1     0     0   512   502  0.000000000E+00  0.000000000E+00 -1.376133297E+02  1.376133297E+02  0.000000000E+00  0.00000E+00  9.000E+00
      25     1     1     2     0     0  1.943605923E+02  1.100695487E+02  1.794543498E+02  3.126023177E+02  1.250000000E+02  0.00000E+00  9.000E+00
      25     1     1     2     0     0 -1.523659610E+02 -1.053823025E+02  1.542659064E+02  2.715580705E+02  1.250000000E+02  0.00000E+00  9.000E+00
      21     1     1     2   512   501 -4.199463125E+01 -4.687246210E+00  2.362467688E+01  4.841120416E+01  1.168007728E-06  0.00000E+00  9.000E+00
#rwgt            1           1   3.6033944794886814E-002          10      467221           0
</event>
<event>
      5   9999  3.79277E-02  3.89074E+01 -1.00000E+00  1.45590E-01
      21    -1     0     0   502   501  0.000000000E+00  0.000000000E+00  9.642722339E+01  9.642722339E+01  0.000000000E+00  0.00000E+00  9.000E+00
      21    -1     0     0   501   511  0.000000000E+00  0.000000000E+00 -7.083631543E+02  7.083631543E+02  0.000000000E+00  0.00000E+00  9.000E+00
      25     1     1     2     0     0 -1.838526728E+02 -4.544497564E+01 -3.496649086E+02  4.168424156E+02  1.250000000E+02  0.00000E+00  9.000E+00
      25     1     1     2     0     0  1.871766253E+02  8.421015575E+01 -1.918859914E+02  3.075250772E+02  1.250000000E+02  0.00000E+00  9.000E+00
      21     1     1     2   502   511 -3.323952535E+00 -3.876518011E+01 -7.038503095E+01  8.042288500E+01  0.000000000E+00  0.00000E+00  9.000E+00
#rwgt            1           1   7.1236579205623471E-002          10      467384           0
</event>
<event>
      5   9999  3.79277E-02  9.12141E+01 -1.00000E+00  1.25651E-01
      21    -1     0     0   512   501  0.000000000E+00  0.000000000E+00  2.560359670E+02  2.560359670E+02  0.000000000E+00  0.00000E+00  9.000E+00
      21    -1     0     0   501   502  0.000000000E+00  0.000000000E+00 -3.830603962E+02  3.830603962E+02  0.000000000E+00  0.00000E+00  9.000E+00
      25     1     1     2     0     0 -7.987417345E+01  1.464612615E+00 -2.850461322E+02  3.213383360E+02  1.250000000E+02  0.00000E+00  9.000E+00
      25     1     1     2     0     0  6.779892829E+01  8.894669327E+01  4.723652468E+01  1.742541196E+02  1.250000000E+02  0.00000E+00  9.000E+00
      21     1     1     2   512   502  1.207524516E+01 -9.041130589E+01  1.107851783E+02  1.435039077E+02  1.348699152E-06  0.00000E+00  9.000E+00
#rwgt            1           1   3.9431623935043229E-002          10      467486           0
</event>
<event>
      5   9999  3.79277E-02  8.67694E+01 -1.00000E+00  1.26665E-01
      21    -1     0     0   502   501  0.000000000E+00  0.000000000E+00  3.273966301E+02  3.273966301E+02  0.000000000E+00  0.00000E+00  9.000E+00
      21    -1     0     0   511   502  0.000000000E+00  0.000000000E+00 -1.472512367E+02  1.472512367E+02  0.000000000E+00  0.00000E+00  9.000E+00
      25     1     1     2     0     0  8.982352827E+01  7.990980816E+01  1.180180387E+02  2.097786956E+02  1.250000000E+02  0.00000E+00  9.000E+00
      25     1     1     2     0     0 -1.149303397E+02  3.147852383E+00  5.137991807E+01  1.774367153E+02  1.250000000E+02  0.00000E+00  9.000E+00
      21     1     1     2   511   501  2.510681140E+01 -8.305766054E+01  1.074743669E+01  8.743245592E+01  1.498437535E-06  0.00000E+00  9.000E+00
#rwgt            1           1   3.7223879105704231E-002          10      467554           0
</event>
<event>
      5   9999  3.79277E-02  1.87555E+01 -1.00000E+00  1.68705E-01
      21    -1     0     0   502   501  0.000000000E+00  0.000000000E+00  5.185214006E+01  5.185214006E+01  0.000000000E+00  0.00000E+00  9.000E+00
       2    -1     0     0   501     0  0.000000000E+00  0.000000000E+00 -1.848403470E+03  1.848403470E+03  0.000000000E+00  0.00000E+00  9.000E+00
      25     1     1     2     0     0  7.799907279E+01  1.014580497E+02 -1.365923331E+02  2.250778902E+02  1.250000000E+02  0.00000E+00  9.000E+00
      25     1     1     2     0     0 -9.300450699E+01 -9.020613149E+01 -1.079022733E+03  1.093938775E+03  1.250000000E+02  0.00000E+00  9.000E+00
       2     1     1     2   502     0  1.500543420E+01 -1.125191819E+01 -5.809362640E+02  5.812389453E+02  7.629394531E-06  0.00000E+00  9.000E+00
#rwgt            1           1   2.5519086793946686E-002          10      467709           0
</event>
<event>
      5   9999  3.79277E-02  1.14069E+02 -1.00000E+00  1.21310E-01
      21    -1     0     0   502   501  0.000000000E+00  0.000000000E+00  1.407067326E+02  1.407067326E+02  0.000000000E+00  0.00000E+00  9.000E+00
       2    -1     0     0   501     0  0.000000000E+00  0.000000000E+00 -1.736720993E+03  1.736720993E+03  0.000000000E+00  0.00000E+00  9.000E+00
      25     1     1     2     0     0 -1.441333568E+02  6.629163163E+01 -1.054677621E+02  2.278540187E+02  1.250000000E+02  0.00000E+00  9.000E+00
      25     1     1     2     0     0  5.998775140E+01  1.072251267E+01  1.485737501E+01  1.398543678E+02  1.250000000E+02  0.00000E+00  9.000E+00
       2     1     1     2   502     0  8.414560540E+01 -7.701414430E+01 -1.505403874E+03  1.509719339E+03  2.157918644E-05  0.00000E+00  9.000E+00
#rwgt            1           1   4.1159906148550862E-002          10      467868           0
</event>
<event>
      5   9999  3.79277E-02  2.47290E+01 -1.00000E+00  1.59106E-01
      21    -1     0     0   502   501  0.000000000E+00  0.000000000E+00  3.945326996E+01  3.945326996E+01  0.000000000E+00  0.00000E+00  9.000E+00
      21    -1     0     0   511   502  0.000000000E+00  0.000000000E+00 -1.326909654E+03  1.326909654E+03  0.000000000E+00  0.00000E+00  9.000E+00
      25     1     1     2     0     0 -8.316632294E+00 -1.667609432E+02 -4.458684345E+02  4.922418506E+02  1.250000000E+02  0.00000E+00  9.000E+00
      25     1     1     2     0     0  3.304247564E+01  1.671534718E+02 -7.416555851E+02  7.711744908E+02  1.250000000E+02  0.00000E+00  9.000E+00
      21     1     1     2   511   501 -2.472584334E+01 -3.925285919E-01 -9.993236432E+01  1.029465825E+02  1.348699152E-06  0.00000E+00  9.000E+00
#rwgt            1           1   3.7284696213667978E-002          10      467920           0
</event>
<event>
      5   9999 -3.79277E-02  1.94005E+01 -1.00000E+00  1.67467E-01
      21    -1     0     0   502   501  0.000000000E+00  0.000000000E+00  4.548131570E+02  4.548131570E+02  0.000000000E+00  0.00000E+00  9.000E+00
      21    -1     0     0   501   512  0.000000000E+00  0.000000000E+00 -7.391217690E+02  7.391217690E+02  0.000000000E+00  0.00000E+00  9.000E+00
      25     1     1     2     0     0 -1.269979973E+02  1.354489971E+02  8.158516369E+00  2.239787569E+02  1.250000000E+02  0.00000E+00  9.000E+00
      25     1     1     2     0     0  1.436834483E+02 -1.255507625E+02  3.001664805E+02  3.770050972E+02  1.250000000E+02  0.00000E+00  9.000E+00
      21     1     1     2   502   512 -1.668545103E+01 -9.898234571E+00 -5.926336089E+02  5.929510720E+02  1.078959322E-05  0.00000E+00  9.000E+00
#rwgt            1           1 -0.13219909041604611               10      468115           0
</event>
<event>
      5   9999  3.79277E-02  1.86122E+01 -1.00000E+00  1.68988E-01
      21    -1     0     0   502   501  0.000000000E+00  0.000000000E+00  1.473984487E+02  1.473984487E+02  0.000000000E+00  0.00000E+00  9.000E+00
       1    -1     0     0   501     0  0.000000000E+00  0.000000000E+00 -1.706933941E+03  1.706933941E+03  0.000000000E+00  0.00000E+00  9.000E+00
      25     1     1     2     0     0  1.527752491E+02  5.895384002E+01 -3.232485986E+02  3.833151295E+02  1.250000000E+02  0.00000E+00  9.000E+00
      25     1     1     2     0     0 -1.390390733E+02 -7.151301067E+01  3.189187862E+01  2.027019154E+02  1.250000000E+02  0.00000E+00  9.000E+00
       1     1     1     2   502     0 -1.373617589E+01  1.255917065E+01 -1.268178772E+03  1.268315345E+03  2.157918644E-05  0.00000E+00  9.000E+00
#rwgt            1           1   3.3906652863421163E-002          10      468338           0
</event>
<event>
      5   9999  3.79277E-02  6.33790E+01 -1.00000E+00  1.33444E-01
      21    -1     0     0   502   501  0.000000000E+00  0.000000000E+00  3.948206932E+02  3.948206932E+02  0.000000000E+00  0.00000E+00  9.000E+00
      21    -1     0     0   501   511  0.000000000E+00  0.000000000E+00 -4.927003814E+02  4.927003814E+02  0.000000000E+00  0.00000E+00  9.000E+00
      25     1     1     2     0     0  5.760556137E+01  3.654481855E+01 -1.888261268E+02  2.365041873E+02  1.250000000E+02  0.00000E+00  9.000E+00
      25     1     1     2     0     0  3.881668076E+00 -2.117549465E+01  3.562976457E+02  3.782016410E+02  1.250000000E+02  0.00000E+00  9.000E+00
      21     1     1     2   502   511 -6.148722944E+01 -1.536932390E+01 -2.653512070E+02  2.728152462E+02  5.394796609E-06  0.00000E+00  9.000E+00
#rwgt            1           1   2.7591440690993223E-002          10      468535           0
</event>
<event>
      5   9999  3.79277E-02  1.71240E+01 -1.00000E+00  1.72131E-01
      21    -1     0     0   502   501  0.000000000E+00  0.000000000E+00  4.260651053E+02  4.260651053E+02  0.000000000E+00  0.00000E+00  9.000E+00
      21    -1     0     0   512   502  0.000000000E+00  0.000000000E+00 -1.149968016E+02  1.149968016E+02  0.000000000E+00  0.00000E+00  9.000E+00
      25     1     1     2     0     0  1.537481170E+02 -4.499443631E+01  2.151018958E+02  2.958999973E+02  1.250000000E+02  0.00000E+00  9.000E+00
      25     1     1     2     0     0 -1.381540542E+02  5.206953528E+01  1.104273843E+02  2.227487068E+02  1.250000000E+02  0.00000E+00  9.000E+00
      21     1     1     2   512   501 -1.559406283E+01 -7.075098967E+00 -1.446097647E+01  2.241320283E+01  7.348554138E-07  0.00000E+00  9.000E+00
#rwgt            1           1  0.11717772775218430               10      468633           0
</event>
<event>
      5   9999  3.79277E-02  9.50313E+01 -1.00000E+00  1.24832E-01
      21    -1     0     0   511   501  0.000000000E+00  0.000000000E+00  1.297773520E+03  1.297773520E+03  0.000000000E+00  0.00000E+00  9.000E+00
      21    -1     0     0   501   502  0.000000000E+00  0.000000000E+00 -1.868031430E+02  1.868031430E+02  0.000000000E+00  0.00000E+00  9.000E+00
      25     1     1     2     0     0 -1.426410626E+02  8.585960573E+01  5.996501331E+01  2.166544425E+02  1.250000000E+02  0.00000E+00  9.000E+00
      25     1     1     2     0     0  4.760976678E+01 -8.580265501E+01 -4.707272868E+01  1.657396370E+02  1.250000000E+02  0.00000E+00  9.000E+00
      21     1     1     2   511   502  9.503129578E+01 -5.695071649E-02  1.098078092E+03  1.102182583E+03  0.000000000E+00  0.00000E+00  9.000E+00
#rwgt            1           1   4.1907452882179515E-002          10      468957           0
</event>
<event>
      5   9999  3.79277E-02  1.06633E+01 -1.00000E+00  1.92587E-01
      21    -1     0     0   502   512  0.000000000E+00  0.000000000E+00  4.557022436E+02  4.557022436E+02  0.000000000E+00  0.00000E+00  9.000E+00
      21    -1     0     0   501   502  0.000000000E+00  0.000000000E+00 -2.173578896E+02  2.173578896E+02  0.000000000E+00  0.00000E+00  9.000E+00
      25     1     1     2     0     0  9.740770235E+01 -7.331409388E+01  1.295998979E+02  2.174496502E+02  1.250000000E+02  0.00000E+00  9.000E+00
      25     1     1     2     0     0 -1.077978562E+02  7.091589272E+01 -1.267570619E+02  2.198676747E+02  1.250000000E+02  0.00000E+00  9.000E+00
      21     1     1     2   501   512  1.039015386E+01  2.398201161E+00  2.355015180E+02  2.357428083E+02  3.814697266E-06  0.00000E+00  9.000E+00
#rwgt            1           1   3.7752213511166720E-002          10      469004           0
</event>
<event>
      5   9999  3.79277E-02  1.80892E+01 -1.00000E+00  1.70050E-01
      21    -1     0     0   502   511  0.000000000E+00  0.000000000E+00  1.851349696E+01  1.851349696E+01  0.000000000E+00  0.00000E+00  9.000E+00
      21    -1     0     0   501   502  0.000000000E+00  0.000000000E+00 -2.264997624E+03  2.264997624E+03  0.000000000E+00  0.00000E+00  9.000E+00
      25     1     1     2     0     0 -8.946788217E+01  7.735556599E+01 -1.663605769E+03  1.672482448E+03  1.250000000E+02  0.00000E+00  9.000E+00
      25     1     1     2     0     0  8.760628761E+01 -5.936237427E+01 -4.978590304E+02  5.241062557E+02  1.250000000E+02  0.00000E+00  9.000E+00
      21     1     1     2   501   511  1.861594569E+00 -1.799319172E+01 -8.501932729E+01  8.692241653E+01  1.651812370E-06  0.00000E+00  9.000E+00
#rwgt            1           1   9.2986860111448952E-002          10      469279           0
</event>
<event>
      5   9999  3.79277E-02  6.62069E+01 -1.00000E+00  1.32458E-01
      21    -1     0     0   502   501  0.000000000E+00  0.000000000E+00  8.111380847E+01  8.111380847E+01  0.000000000E+00  0.00000E+00  9.000E+00
       1    -1     0     0   501     0  0.000000000E+00  0.000000000E+00 -8.811988376E+02  8.811988376E+02  0.000000000E+00  0.00000E+00  9.000E+00
      25     1     1     2     0     0 -1.413270929E+02 -8.782373055E+00 -3.621856535E+02  4.084775696E+02  1.250000000E+02  0.00000E+00  9.000E+00
      25     1     1     2     0     0  9.823596019E+01  5.904673373E+01 -7.585051107E+01  1.857824552E+02  1.250000000E+02  0.00000E+00  9.000E+00
       1     1     1     2   502     0  4.309113275E+01 -5.026436067E+01 -3.620488646E+02  3.680526213E+02  0.000000000E+00  0.00000E+00  9.000E+00
#rwgt            1           1   4.0147530986519540E-002          10      469466           0
</event>
<event>
      5   9999  3.79277E-02  1.12428E+02 -1.00000E+00  1.21582E-01
      21    -1     0     0   502   501  0.000000000E+00  0.000000000E+00  1.007400340E+02  1.007400340E+02  0.000000000E+00  0.00000E+00  9.000E+00
      21    -1     0     0   511   502  0.000000000E+00  0.000000000E+00 -1.012171620E+03  1.012171620E+03  0.000000000E+00  0.00000E+00  9.000E+00
      25     1     1     2     0     0  7.597652785E+01 -2.508689423E+02 -4.468881508E+02  5.329556063E+02  1.250000000E+02  0.00000E+00  9.000E+00
      25     1     1     2     0     0 -3.763606428E+01  1.451805487E+02 -1.508614019E+02  2.467347314E+02  1.250000000E+02  0.00000E+00  9.000E+00
      21     1     1     2   511   501 -3.834046357E+01  1.056883936E+02 -3.136820330E+02  3.332213161E+02  6.607249480E-06  0.00000E+00  9.000E+00
#rwgt            1           1   4.1176227948467141E-002          10      469535           0
</event>
<event>
      5   9999 -3.79277E-02  5.38677E+01 -1.00000E+00  1.37254E-01
      21    -1     0     0   502   512  0.000000000E+00  0.000000000E+00  3.962453068E+02  3.962453068E+02  0.000000000E+00  0.00000E+00  9.000E+00
      21    -1     0     0   501   502  0.000000000E+00  0.000000000E+00 -2.428507565E+03  2.428507565E+03  0.000000000E+00  0.00000E+00  9.000E+00
      25     1     1     2     0     0 -2.086810666E+02  9.314667907E+01 -1.001965134E+03  1.035269637E+03  1.250000000E+02  0.00000E+00  9.000E+00
      25     1     1     2     0     0  1.698016779E+02 -1.304310930E+02 -1.397007522E+03  1.418837516E+03  1.250000000E+02  0.00000E+00  9.000E+00
      21     1     1     2   501   512  3.887938867E+01  3.728441391E+01  3.667103969E+02  3.706457198E+02  5.394796609E-06  0.00000E+00  9.000E+00
#rwgt            1           1 -0.65232011372963361               10      469639           0
</event>
<event>
      5   9999  3.79277E-02  3.74315E+01 -1.00000E+00  1.46651E-01
      21    -1     0     0   502   501  0.000000000E+00  0.000000000E+00  2.811260743E+02  2.811260743E+02  0.000000000E+00  0.00000E+00  9.000E+00
      21    -1     0     0   501   511  0.000000000E+00  0.000000000E+00 -2.954673078E+02  2.954673078E+02  0.000000000E+00  0.00000E+00  9.000E+00
      25     1     1     2     0     0  1.997269959E+01 -1.842563366E+02  6.899159516E+01  2.339532999E+02  1.250000000E+02  0.00000E+00  9.000E+00
      25     1     1     2     0     0  7.033173767E+00  1.583371625E+02  4.681878703E+01  2.072127443E+02  1.250000000E+02  0.00000E+00  9.000E+00
      21     1     1     2   502   511 -2.700587335E+01  2.591917410E+01 -1.301516158E+02  1.354273380E+02  2.697398305E-06  0.00000E+00  9.000E+00
#rwgt            1           1   1.8232731855667924E-002          10      469762           0
</event>
<event>
      5   9999  3.79277E-02  2.71306E+01 -1.00000E+00  1.56136E-01
      21    -1     0     0   502   501  0.000000000E+00  0.000000000E+00  2.752167081E+02  2.752167081E+02  0.000000000E+00  0.00000E+00  9.000E+00
      21    -1     0     0   512   502  0.000000000E+00  0.000000000E+00 -4.988718041E+02  4.988718041E+02  0.000000000E+00  0.00000E+00  9.000E+00
      25     1     1     2     0     0 -1.290588349E+01  1.807594988E+02  1.836860008E+02  2.867160706E+02  1.250000000E+02  0.00000E+00  9.000E+00
      25     1     1     2     0     0 -4.842021389E+00 -2.012798058E+02 -3.370322164E+02  4.120105827E+02  1.250000000E+02  0.00000E+00  9.000E+00
      21     1     1     2   512   501  1.774790488E+01  2.052030699E+01 -7.030888035E+01  7.536185893E+01  0.000000000E+00  0.00000E+00  9.000E+00
#rwgt            1           1   2.9077548841898334E-002          10      469935           0
</event>
<event>
      5   9999  3.79277E-02  6.26215E+00 -1.00000E+00  2.22626E-01
      21    -1     0     0   511   501  0.000000000E+00  0.000000000E+00  1.395934557E+02  1.395934557E+02  0.000000000E+00  0.00000E+00  9.000E+00
      21    -1     0     0   501   502  0.000000000E+00  0.000000000E+00 -2.554319583E+02  2.554319583E+02  0.000000000E+00  0.00000E+00  9.000E+00
      25     1     1     2     0     0 -5.071723747E+00 -1.255994039E+02 -9.984090559E+00  1.775545401E+02  1.250000000E+02  0.00000E+00  9.000E+00
      25     1     1     2     0     0  2.787657724E+00  1.314301419E+02 -1.076723292E+02  2.109501925E+02  1.250000000E+02  0.00000E+00  9.000E+00
      21     1     1     2   511   502  2.284066023E+00 -5.830738025E+00  1.817917138E+00  6.520681424E+00  9.884312124E-08  0.00000E+00  9.000E+00
#rwgt            1           1   4.5194918529584481E-002          10      470213           0
</event>
<event>
      5   9999  3.79277E-02  3.96011E+01 -1.00000E+00  1.45111E-01
      -1    -1     0     0     0   501  0.000000000E+00  0.000000000E+00  5.441833729E+02  5.441833729E+02  0.000000000E+00  0.00000E+00  9.000E+00
      21    -1     0     0   501   502  0.000000000E+00  0.000000000E+00 -2.871124879E+02  2.871124879E+02  0.000000000E+00  0.00000E+00  9.000E+00
      25     1     1     2     0     0 -9.083066683E+01 -2.018423825E+02  1.065196231E+02  2.756120235E+02  1.250000000E+02  0.00000E+00  9.000E+00
      25     1     1     2     0     0  6.227721214E+01  2.292822661E+02 -1.114693622E+02  2.906875082E+02  1.250000000E+02  0.00000E+00  9.000E+00
      -1     1     1     2     0   502  2.855345469E+01 -2.743988361E+01  2.620206242E+02  2.649963292E+02  0.000000000E+00  0.00000E+00  9.000E+00
#rwgt            1           1   8.2649679916843632E-002          10      470558           0
</event>
<event>
      5   9999 -3.79277E-02  2.13415E+01 -1.00000E+00  1.64076E-01
       4    -1     0     0   502     0  0.000000000E+00  0.000000000E+00  4.084423710E+02  4.084423710E+02  0.000000000E+00  0.00000E+00  9.000E+00
      21    -1     0     0   501   502  0.000000000E+00  0.000000000E+00 -1.930802617E+02  1.930802617E+02  0.000000000E+00  0.00000E+00  9.000E+00
      25     1     1     2     0     0 -3.168390269E+01 -8.706406079E+01 -6.921246905E+01  1.702920616E+02  1.250000000E+02  0.00000E+00  9.000E+00
      25     1     1     2     0     0  4.915848034E+01  9.931548736E+01  2.281108778E+01  1.685985408E+02  1.250000000E+02  0.00000E+00  9.000E+00
       4     1     1     2   501     0 -1.747457765E+01 -1.225142656E+01  2.617634906E+02  2.626320303E+02  3.814697266E-06  0.00000E+00  9.000E+00
#rwgt            1           1  -8.9931547470131368E-003          10      470661           0
</event>
<event>
      5   9999  3.79277E-02  3.50001E+01 -1.00000E+00  1.48531E-01
      21    -1     0     0   502   501  0.000000000E+00  0.000000000E+00  4.285209035E+01  4.285209035E+01  0.000000000E+00  0.00000E+00  9.000E+00
      21    -1     0     0   511   502  0.000000000E+00  0.000000000E+00 -1.117201274E+03  1.117201274E+03  0.000000000E+00  0.00000E+00  9.000E+00
      25     1     1     2     0     0 -1.290990224E+02  4.033784706E+01 -4.049718545E+02  4.448830210E+02  1.250000000E+02  0.00000E+00  9.000E+00
      25     1     1     2     0     0  1.632887344E+02 -4.782584931E+01 -5.096036530E+02  5.516080182E+02  1.250000000E+02  0.00000E+00  9.000E+00
      21     1     1     2   511   501 -3.418971199E+01  7.488002251E+00 -1.597736762E+02  1.635623251E+02  2.697398305E-06  0.00000E+00  9.000E+00
#rwgt            1           1   3.1526990384924007E-002          10      470819           0
</event>
<event>
      5   9999 -3.79277E-02  3.74870E+01 -1.00000E+00  1.46610E-01
       2    -1     0     0   502     0  0.000000000E+00  0.000000000E+00  8.193782966E+02  8.193782966E+02  0.000000000E+00  0.00000E+00  9.000E+00
      21    -1     0     0   501   502  0.000000000E+00  0.000000000E+00 -4.930697290E+02  4.930697290E+02  0.000000000E+00  0.00000E+00  9.000E+00
      25     1     1     2     0     0 -1.299262502E+02 -6.099284951E+01 -2.131990971E+02  2.857968040E+02  1.250000000E+02  0.00000E+00  9.000E+00
      25     1     1     2     0     0  9.338949280E+01  5.260584669E+01 -2.152237719E+02  2.709893807E+02  1.250000000E+02  0.00000E+00  9.000E+00
       2     1     1     2   501     0  3.653675740E+01  8.387002821E+00  7.547314366E+02  7.556618409E+02  1.078959322E-05  0.00000E+00  9.000E+00
#rwgt            1           1  -2.0168988977951247E-002          10      470950           0
</event>
<event>
      5   9999  3.79277E-02  1.53856E+01 -1.00000E+00  1.76351E-01
      21    -1     0     0   511   501  0.000000000E+00  0.000000000E+00  5.182139536E+02  5.182139536E+02  0.000000000E+00  0.00000E+00  9.000E+00
      21    -1     0     0   501   502  0.000000000E+00  0.000000000E+00 -8.812889460E+01  8.812889460E+01  0.000000000E+00  0.00000E+00  9.000E+00
      25     1     1     2     0     0  7.340923381E+01 -1.185541194E+02  1.930085028E+02  2.689261553E+02  1.250000000E+02  0.00000E+00  9.000E+00
      25     1     1     2     0     0 -8.863134613E+01  1.207910030E+02  1.425426822E+02  2.416389832E+02  1.250000000E+02  0.00000E+00  9.000E+00
      21     1     1     2   511   502  1.522211232E+01 -2.236883625E+00  9.453387398E+01  9.577770974E+01  1.348699152E-06  0.00000E+00  9.000E+00
#rwgt            1           1   3.1073612839051287E-002          10      471078           0
</event>
<event>
      5   9999  3.79277E-02  6.83282E+01 -1.00000E+00  1.31755E-01
      21    -1     0     0   512   501  0.000000000E+00  0.000000000E+00  9.454776085E+01  9.454776085E+01  0.000000000E+00  0.00000E+00  9.000E+00
      21    -1     0     0   501   502  0.000000000E+00  0.000000000E+00 -5.759521268E+02  5.759521268E+02  0.000000000E+00  0.00000E+00  9.000E+00
      25     1     1     2     0     0  2.089096781E+01  4.106182754E+01 -3.852394517E+02  4.076235290E+02  1.250000000E+02  0.00000E+00  9.000E+00
      25     1     1     2     0     0 -3.277408332E+01 -1.083487865E+02 -3.735650852E+01  1.727255303E+02  1.250000000E+02  0.00000E+00  9.000E+00
      21     1     1     2   512   502  1.188311551E+01  6.728695897E+01 -5.880840570E+01  9.015082840E+01  1.784161275E-06  0.00000E+00  9.000E+00
#rwgt            1           1   3.4561591105039778E-002          10      471268           0
</event>
<event>
      5   9999  3.79277E-02  1.14026E+02 -1.00000E+00  1.21317E-01
      21    -1     0     0   511   501  0.000000000E+00  0.000000000E+00  5.588891901E+02  5.588891901E+02  0.000000000E+00  0.00000E+00  9.000E+00
      21    -1     0     0   501   502  0.000000000E+00  0.000000000E+00 -1.645312976E+02  1.645312976E+02  0.000000000E+00  0.00000E+00  9.000E+00
      25     1     1     2     0     0 -1.118159334E+02  2.212730626E+02  8.267590136E+01  2.896979045E+02  1.250000000E+02  0.00000E+00  9.000E+00
      25     1     1     2     0     0  4.231565324E+01 -1.308759741E+02  1.702499905E+02  2.520499839E+02  1.250000000E+02  0.00000E+00  9.000E+00
      21     1     1     2   511   502  6.950028012E+01 -9.039708851E+01  1.414320006E+02  1.816725993E+02  3.303624740E-06  0.00000E+00  9.000E+00
#rwgt            1           1   3.4920796446957593E-002          10      471402           0
</event>
<event>
      5   9999  3.79277E-02  6.99633E+01 -1.00000E+00  1.31232E-01
       2    -1     0     0   502     0  0.000000000E+00  0.000000000E+00  6.864207028E+02  6.864207028E+02  0.000000000E+00  0.00000E+00  9.000E+00
      21    -1     0     0   501   502  0.000000000E+00  0.000000000E+00 -4.690351470E+02  4.690351470E+02  0.000000000E+00  0.00000E+00  9.000E+00
      25     1     1     2     0     0  2.232039765E+02 -2.376354750E+00  3.396905721E+02  4.252532739E+02  1.250000000E+02  0.00000E+00  9.000E+00
      25     1     1     2     0     0 -1.567498366E+02  2.425571614E+01 -3.977120393E+02  4.460478867E+02  1.250000000E+02  0.00000E+00  9.000E+00
       2     1     1     2   501     0 -6.645413991E+01 -2.187936139E+01  2.754070228E+02  2.841546892E+02  3.814697266E-06  0.00000E+00  9.000E+00
#rwgt            1           1   3.5801121481085614E-002          10      471516           0
</event>
<event>
      5   9999  3.79277E-02  1.59282E+01 -1.00000E+00  1.74962E-01
      21    -1     0     0   502   501  0.000000000E+00  0.000000000E+00  1.161565048E+02  1.161565048E+02  0.000000000E+00  0.00000E+00  9.000E+00
      21    -1     0     0   511   502  0.000000000E+00  0.000000000E+00 -3.433584355E+02  3.433584355E+02  0.000000000E+00  0.00000E+00  9.000E+00
      25     1     1     2     0     0  3.161939024E+01 -1.062828044E+02 -1.100111392E+02  2.000581693E+02  1.250000000E+02  0.00000E+00  9.000E+00
      25     1     1     2     0     0 -4.692352547E+01  1.018679837E+02 -2.972256798E+01  1.705500935E+02  1.250000000E+02  0.00000E+00  9.000E+00
      21     1     1     2   511   501  1.530413523E+01  4.414820754E+00 -8.746822343E+01  8.890667752E+01  1.651812370E-06  0.00000E+00  9.000E+00
#rwgt            1           1  0.10566980398023759               10      471775           0
</event>
<event>
      5   9999  3.79277E-02  3.34391E+01 -1.00000E+00  1.49837E-01
      21    -1     0     0   502   501  0.000000000E+00  0.000000000E+00  8.114801332E+01  8.114801332E+01  0.000000000E+00  0.00000E+00  9.000E+00
       2    -1     0     0   501     0  0.000000000E+00  0.000000000E+00 -8.534852308E+02  8.534852308E+02  0.000000000E+00  0.00000E+00  9.000E+00
      25     1     1     2     0     0 -2.416627733E+01  8.920519825E+01 -4.005832893E+01  1.605342520E+02  1.250000000E+02  0.00000E+00  9.000E+00
      25     1     1     2     0     0  4.220706492E+01 -6.105019098E+01 -2.393644398E+02  2.800515974E+02  1.250000000E+02  0.00000E+00  9.000E+00
       2     1     1     2   502     0 -1.804078759E+01 -2.815500726E+01 -4.929144487E+02  4.940473947E+02  0.000000000E+00  0.00000E+00  9.000E+00
#rwgt            1           1   4.2908603677530313E-002          10      472007           0
</event>
<event>
      5   9999  3.79277E-02  1.56475E+01 -1.00000E+00  1.75672E-01
      21    -1     0     0   502   511  0.000000000E+00  0.000000000E+00  1.419487051E+02  1.419487051E+02  0.000000000E+00  0.00000E+00  9.000E+00
      21    -1     0     0   501   502  0.000000000E+00  0.000000000E+00 -2.824519857E+02  2.824519857E+02  0.000000000E+00  0.00000E+00  9.000E+00
      25     1     1     2     0     0 -2.746582933E+01 -1.281500037E+01  6.896724081E+00  1.288066800E+02  1.250000000E+02  0.00000E+00  9.000E+00
      25     1     1     2     0     0  4.302089979E+01  1.111657275E+01 -2.004001531E+02  2.403322645E+02  1.250000000E+02  0.00000E+00  9.000E+00
      21     1     1     2   501   511 -1.555507046E+01  1.698427623E+00  5.300014842E+01  5.526174632E+01  9.536743164E-07  0.00000E+00  9.000E+00
#rwgt            1           1   5.2870533178778649E-002          10      472092           0
</event>
<event>
      5   9999  3.79277E-02  5.05530E+01 -1.00000E+00  1.38804E-01
      21    -1     0     0   502   501  0.000000000E+00  0.000000000E+00  2.375790071E+03  2.375790071E+03  0.000000000E+00  0.00000E+00  9.000E+00
      -5    -1     0     0     0   502  0.000000000E+00  0.000000000E+00 -1.678764026E+02  1.678764026E+02  0.000000000E+00  0.00000E+00  9.000E+00
      25     1     1     2     0     0 -5.936100403E+01  1.729434921E+01  2.042697185E+03  2.047451981E+03  1.250000000E+02  0.00000E+00  9.000E+00
      25     1     1     2     0     0  3.214678155E+01  2.530838037E+01  3.132742449E+02  3.397641567E+02  1.250000000E+02  0.00000E+00  9.000E+00
      -5     1     1     2     0   501  2.721422248E+01 -4.260272958E+01 -1.480577623E+02  1.564503354E+02  3.814697266E-06  0.00000E+00  9.000E+00
#rwgt            1           1   8.3383959228100601E-002          10      472214           0
</event>
<event>
      5   9999  3.79277E-02  3.49915E+01 -1.00000E+00  1.48538E-01
      21    -1     0     0   502   511  0.000000000E+00  0.000000000E+00  8.969650021E+01  8.969650021E+01  0.000000000E+00  0.00000E+00  9.000E+00
      21    -1     0     0   501   502  0.000000000E+00  0.000000000E+00 -9.080420415E+02  9.080420415E+02  0.000000000E+00  0.00000E+00  9.000E+00
      25     1     1     2     0     0 -1.384717640E+02  1.305961837E+01 -1.008545345E+02  2.124655741E+02  1.250000000E+02  0.00000E+00  9.000E+00
      25     1     1     2     0     0  1.442194624E+02  2.145659258E+01 -7.245543896E+02  7.495756815E+02  1.250000000E+02  0.00000E+00  9.000E+00
      21     1     1     2   501   511 -5.747698465E+00 -3.451621095E+01  7.063382926E+00  3.569728610E+01  3.153981341E-07  0.00000E+00  9.000E+00
#rwgt            1           1   5.0287719602321840E-002          10      472307           0
</event>
<event>
      5   9999  3.79277E-02  1.36993E+02 -1.00000E+00  1.17976E-01
      21    -1     0     0   502   501  0.000000000E+00  0.000000000E+00  7.537331288E+02  7.537331288E+02  0.000000000E+00  0.00000E+00  9.000E+00
      21    -1     0     0   512   502  0.000000000E+00  0.000000000E+00 -2.177348172E+02  2.177348172E+02  0.000000000E+00  0.00000E+00  9.000E+00
      25     1     1     2     0     0 -6.127331984E+01 -3.037347590E+02  3.740122706E+02  5.015171005E+02  1.250000000E+02  0.00000E+00  9.000E+00
      25     1     1     2     0     0  1.026782659E+02  1.731486454E+02  2.179685377E+02  3.219604993E+02  1.250000000E+02  0.00000E+00  9.000E+00
      21     1     1     2   512   501 -4.140494603E+01  1.305861136E+02 -5.598249670E+01  1.479903461E+02  3.303624740E-06  0.00000E+00  9.000E+00
#rwgt            1           1   2.8763801299435274E-002          10      472516           0
</event>
<event>
      5   9999 -3.79277E-02  3.93009E+01 -1.00000E+00  1.45317E-01
      21    -1     0     0   502   501  0.000000000E+00  0.000000000E+00  4.275708625E+02  4.275708625E+02  0.000000000E+00  0.00000E+00  9.000E+00
      21    -1     0     0   501   511  0.000000000E+00  0.000000000E+00 -1.780878514E+02  1.780878514E+02  0.000000000E+00  0.00000E+00  9.000E+00
      25     1     1     2     0     0  1.940731734E+02 -5.365177201E+01  2.604363895E+02  3.521292692E+02  1.250000000E+02  0.00000E+00  9.000E+00
      25     1     1     2     0     0 -1.579370989E+02  3.820029146E+01  1.637442576E+01  2.056611565E+02  1.250000000E+02  0.00000E+00  9.000E+00
      21     1     1     2   502   511 -3.613607441E+01  1.545148055E+01 -2.732780415E+01  4.786828809E+01  3.371747881E-07  0.00000E+00  9.000E+00
#rwgt            1           1  -8.0436525486905330E-002          10      472623           0
</event>
<event>
      5   9999  3.79277E-02  7.86566E+01 -1.00000E+00  1.28706E-01
      21    -1     0     0   502   501  0.000000000E+00  0.000000000E+00  9.733313545E+02  9.733313545E+02  0.000000000E+00  0.00000E+00  9.000E+00
       2    -1     0     0   501     0  0.000000000E+00  0.000000000E+00 -1.197135122E+02  1.197135122E+02  0.000000000E+00  0.00000E+00  9.000E+00
      25     1     1     2     0     0 -8.160951629E+01 -4.281327009E+01  9.338323412E+01  1.812140107E+02  1.250000000E+02  0.00000E+00  9.000E+00
      25     1     1     2     0     0  1.065916875E+02 -3.177061207E+01  8.044037026E+02  8.216212487E+02  1.250000000E+02  0.00000E+00  9.000E+00
       2     1     1     2   502     0 -2.498217125E+01  7.458388215E+01 -4.416909431E+01  9.020960730E+01  2.900487199E-06  0.00000E+00  9.000E+00
#rwgt            2          13   7.3817843864173094E-005          10      472940           0
</event>
<event>
      5   9999  3.79277E-02  1.15614E+02 -1.00000E+00  1.21059E-01
      21    -1     0     0   511   501  0.000000000E+00  0.000000000E+00  2.627962365E+02  2.627962365E+02  0.000000000E+00  0.00000E+00  9.000E+00
      21    -1     0     0   501   502  0.000000000E+00  0.000000000E+00 -3.902074013E+02  3.902074013E+02  0.000000000E+00  0.00000E+00  9.000E+00
      25     1     1     2     0     0 -6.726728288E+01 -1.029578156E+02 -2.774150919E+02  3.281909998E+02  1.250000000E+02  0.00000E+00  9.000E+00
      25     1     1     2     0     0 -4.834634854E+01  1.028834031E+02  1.136179105E+02  2.036084321E+02  1.250000000E+02  0.00000E+00  9.000E+00
      21     1     1     2   511   502  1.156136314E+02  7.441258646E-02  3.638601654E+01  1.212042058E+02  1.066240300E-06  0.00000E+00  9.000E+00
#rwgt            1           1   3.8223928557954340E-002          10      473064           0
</event>
<event>
      5   9999  3.79277E-02  6.19167E+01 -1.00000E+00  1.33978E-01
      21    -1     0     0   502   512  0.000000000E+00  0.000000000E+00  6.028694672E+02  6.028694672E+02  0.000000000E+00  0.00000E+00  9.000E+00
      21    -1     0     0   501   502  0.000000000E+00  0.000000000E+00 -1.048173436E+03  1.048173436E+03  0.000000000E+00  0.00000E+00  9.000E+00
      25     1     1     2     0     0  2.484881854E+02 -9.564053063E+01 -5.217049983E+02  5.989111743E+02  1.250000000E+02  0.00000E+00  9.000E+00
      25     1     1     2     0     0 -2.127799890E+02  4.505789863E+01 -4.536960181E+02  5.184309161E+02  1.250000000E+02  0.00000E+00  9.000E+00
      21     1     1     2   501   512 -3.570819633E+01  5.058263200E+01  5.300970475E+02  5.337008130E+02  0.000000000E+00  0.00000E+00  9.000E+00
#rwgt            1           1   5.1522801385825441E-002          10      473268           0
</event>
<event>
      5   9999 -3.79277E-02  3.18151E+02 -1.00000E+00  1.04770E-01
       1    -1     0     0   502     0  0.000000000E+00  0.000000000E+00  1.389270345E+02  1.389270345E+02  0.000000000E+00  0.00000E+00  9.000E+00
      21    -1     0     0   501   502  0.000000000E+00  0.000000000E+00 -2.548563922E+03  2.548563922E+03  0.000000000E+00  0.00000E+00  9.000E+00
      25     1     1     2     0     0  9.210840216E+01 -2.699244655E+01 -7.699560725E+02  7.859197819E+02  1.250000000E+02  0.00000E+00  9.000E+00
      25     1     1     2     0     0 -1.636934266E+02 -2.830005444E+02 -1.522994268E+03  1.562696832E+03  1.250000000E+02  0.00000E+00  9.000E+00
       1     1     1     2   501     0  7.158502441E+01  3.099929910E+02 -1.166865466E+02  3.388743430E+02  5.046370146E-06  0.00000E+00  9.000E+00
#rwgt            1           1 -0.41433872669069616               10      473543           0
</event>
<event>
      5   9999  3.79277E-02  6.05395E+01 -1.00000E+00  1.34496E-01
      21    -1     0     0   511   501  0.000000000E+00  0.000000000E+00  2.602274492E+02  2.602274492E+02  0.000000000E+00  0.00000E+00  9.000E+00
      21    -1     0     0   501   502  0.000000000E+00  0.000000000E+00 -2.759890987E+02  2.759890987E+02  0.000000000E+00  0.00000E+00  9.000E+00
      25     1     1     2     0     0 -5.390941624E+01 -1.028464108E+01 -9.344181883E+01  1.654338917E+02  1.250000000E+02  0.00000E+00  9.000E+00
      25     1     1     2     0     0  6.124922743E+01  7.037757730E+01 -9.850971172E+01  1.844820711E+02  1.250000000E+02  0.00000E+00  9.000E+00
      21     1     1     2   511   502 -7.339811190E+00 -6.009293623E+01  1.761898811E+02  1.863005851E+02  3.303624740E-06  0.00000E+00  9.000E+00
#rwgt            1           1   5.4238186629965671E-002          10      473638           0
</event>
<event>
      5   9999  3.79277E-02  5.67582E+01 -1.00000E+00  1.36005E-01
      21    -1     0     0   512   501  0.000000000E+00  0.000000000E+00  1.315552886E+03  1.315552886E+03  0.000000000E+00  0.00000E+00  9.000E+00
      21    -1     0     0   501   502  0.000000000E+00  0.000000000E+00 -1.161754996E+02  1.161754996E+02  0.000000000E+00  0.00000E+00  9.000E+00
      25     1     1     2     0     0  5.492129819E+01  4.478140251E+01  6.960847815E+01  1.596623413E+02  1.250000000E+02  0.00000E+00  9.000E+00
      25     1     1     2     0     0 -7.422740712E+01  8.592486298E+00  4.845949021E+00  1.457121203E+02  1.250000000E+02  0.00000E+00  9.000E+00
      21     1     1     2   512   502  1.930610893E+01 -5.337388881E+01  1.124922959E+03  1.126353923E+03  2.157918644E-05  0.00000E+00  9.000E+00
#rwgt            1           1   6.3557904289526929E-002          10      473721           0
</event>
<event>
      5   9999  3.79277E-02  6.87834E+01 -1.00000E+00  1.31607E-01
      21    -1     0     0   502   501  0.000000000E+00  0.000000000E+00  1.716119294E+01  1.716119294E+01  0.000000000E+00  0.00000E+00  9.000E+00
      21    -1     0     0   501   511  0.000000000E+00  0.000000000E+00 -2.976012815E+03  2.976012815E+03  0.000000000E+00  0.00000E+00  9.000E+00
      25     1     1     2     0     0 -5.227708890E+01  1.091524366E+02 -1.132668687E+03  1.145953970E+03  1.250000000E+02  0.00000E+00  9.000E+00
      25     1     1     2     0     0  1.132937049E+02 -7.740129018E+01 -9.263650746E+02  9.447770502E+02  1.250000000E+02  0.00000E+00  9.000E+00
      21     1     1     2   502   511 -6.101661601E+01 -3.175114639E+01 -8.998178609E+02  9.024429874E+02  1.078959322E-05  0.00000E+00  9.000E+00
#rwgt            1           1   9.5727965475508617E-002          10      473796           0
</event>
<event>
      5   9999  3.79277E-02  2.95811E+01 -1.00000E+00  1.53465E-01
      21    -1     0     0   502   512  0.000000000E+00  0.000000000E+00  1.920069247E+02  1.920069247E+02  0.000000000E+00  0.00000E+00  9.000E+00
      21    -1     0     0   501   502  0.000000000E+00  0.000000000E+00 -1.140234986E+03  1.140234986E+03  0.000000000E+00  0.00000E+00  9.000E+00
      25     1     1     2     0     0 -4.023079030E+02  1.006818265E+02 -5.358373452E+02  6.890102608E+02  1.250000000E+02  0.00000E+00  9.000E+00
      25     1     1     2     0     0  4.203749541E+02 -1.241044963E+02 -4.108210440E+02  6.136089620E+02  1.250000000E+02  0.00000E+00  9.000E+00
      21     1     1     2   501   512 -1.806705113E+01  2.342266982E+01 -1.569672565E+00  2.962268843E+01  3.153981341E-07  0.00000E+00  9.000E+00
#rwgt            1           1  0.12891010314728202               10      473984           0
</event>
<event>
      5   9999  3.79277E-02  3.86291E+01 -1.00000E+00  1.45786E-01
      21    -1     0     0   502   501  0.000000000E+00  0.000000000E+00  6.405595195E+02  6.405595195E+02  0.000000000E+00  0.00000E+00  9.000E+00
       3    -1     0     0   501     0  0.000000000E+00  0.000000000E+00 -1.596303194E+02  1.596303194E+02  0.000000000E+00  0.00000E+00  9.000E+00
      25     1     1     2     0     0  8.744926131E+01  1.447779818E+02  1.123599742E+02  2.384487390E+02  1.250000000E+02  0.00000E+00  9.000E+00
      25     1     1     2     0     0 -1.017223760E+02 -1.806734652E+02  4.274895712E+02  4.912867556E+02  1.250000000E+02  0.00000E+00  9.000E+00
       3     1     1     2   502     0  1.427311472E+01  3.589548344E+01 -5.892034527E+01  7.045434423E+01  2.236564522E-06  0.00000E+00  9.000E+00
#rwgt            1           1   3.9611820445891587E-002          10      474248           0
</event>
<event>
      5   9999  3.79277E-02  1.27332E+01 -1.00000E+00  1.84360E-01
      21    -1     0     0   502   501  0.000000000E+00  0.000000000E+00  1.390340767E+03  1.390340767E+03  0.000000000E+00  0.00000E+00  9.000E+00
      21    -1     0     0   501   511  0.000000000E+00  0.000000000E+00 -5.945787710E+01  5.945787710E+01  0.000000000E+00  0.00000E+00  9.000E+00
      25     1     1     2     0     0 -1.441165595E+02  1.404034935E+02  1.002646586E+03  1.030246524E+03  1.250000000E+02  0.00000E+00  9.000E+00
      25     1     1     2     0     0  1.495256064E+02 -1.519307274E+02  3.006863715E+02  3.892019359E+02  1.250000000E+02  0.00000E+00  9.000E+00
      21     1     1     2   502   511 -5.409046822E+00  1.152723390E+01  2.754993232E+01  3.035018418E+01  3.371747881E-07  0.00000E+00  9.000E+00
#rwgt            1           1   3.7910867597160676E-002          10      474462           0
</event>
<event>
      5   9999  3.79277E-02  1.26628E+02 -1.00000E+00  1.19386E-01
      21    -1     0     0   502   501  0.000000000E+00  0.000000000E+00  3.617304316E+02  3.617304316E+02  0.000000000E+00  0.00000E+00  9.000E+00
      21    -1     0     0   512   502  0.000000000E+00  0.000000000E+00 -3.708450262E+02  3.708450262E+02  0.000000000E+00  0.00000E+00  9.000E+00
      25     1     1     2     0     0  1.549797739E+02 -2.287397675E+01 -2.393143929E+02  3.121511297E+02  1.250000000E+02  0.00000E+00  9.000E+00
      25     1     1     2     0     0 -4.138889565E+01 -3.308763417E+01  2.573056997E+02  2.909279212E+02  1.250000000E+02  0.00000E+00  9.000E+00
      21     1     1     2   512   501 -1.135908782E+02  5.596161092E+01 -2.710590141E+01  1.294964069E+02  1.651812370E-06  0.00000E+00  9.000E+00
#rwgt            1           1   3.6832158499539858E-002          10      474687           0
</event>
<event>
      5   9999  3.79277E-02  1.95294E+01 -1.00000E+00  1.67227E-01
      21    -1     0     0   502   501  0.000000000E+00  0.000000000E+00  2.396065835E+02  2.396065835E+02  0.000000000E+00  0.00000E+00  9.000E+00
      21    -1     0     0   511   502  0.000000000E+00  0.000000000E+00 -3.306853790E+02  3.306853790E+02  0.000000000E+00  0.00000E+00  9.000E+00
      25     1     1     2     0     0 -4.872401593E+01 -5.957716450E+01  1.439997155E+02  2.056316763E+02  1.250000000E+02  0.00000E+00  9.000E+00
      25     1     1     2     0     0  3.285530416E+01  7.096060389E+01 -2.011358210E+01  1.488100618E+02  1.250000000E+02  0.00000E+00  9.000E+00
      21     1     1     2   511   501  1.586871177E+01 -1.138343939E+01 -2.149649289E+02  2.158502243E+02  2.697398305E-06  0.00000E+00  9.000E+00
#rwgt            1           1   2.0011602676236376E-002          10      474775           0
</event>
<event>
      5   9999  3.79277E-02  1.21020E+02 -1.00000E+00  1.20212E-01
      21    -1     0     0   512   501  0.000000000E+00  0.000000000E+00  2.825794703E+02  2.825794703E+02  0.000000000E+00  0.00000E+00  9.000E+00
      21    -1     0     0   501   502  0.000000000E+00  0.000000000E+00 -4.053165094E+02  4.053165094E+02  0.000000000E+00  0.00000E+00  9.000E+00
      25     1     1     2     0     0  2.279769607E+02 -7.195368127E+00 -2.195492660E+02  3.403706041E+02  1.250000000E+02  0.00000E+00  9.000E+00
      25     1     1     2     0     0 -1.392231813E+02 -7.507613929E+01  1.649534067E+01  2.022785633E+02  1.250000000E+02  0.00000E+00  9.000E+00
      21     1     1     2   512   502 -8.875377939E+01  8.227150742E+01  8.031688625E+01  1.452468124E+02  1.348699152E-06  0.00000E+00  9.000E+00
#rwgt            1           1   3.1564450214957261E-002          10      474950           0
</event>
<event>
      5   9999  3.79277E-02  9.28617E+01 -1.00000E+00  1.25292E-01
      21    -1     0     0   502   501  0.000000000E+00  0.000000000E+00  4.130963478E+01  4.130963478E+01  0.000000000E+00  0.00000E+00  9.000E+00
      21    -1     0     0   511   502  0.000000000E+00  0.000000000E+00 -1.678922930E+03  1.678922930E+03  0.000000000E+00  0.00000E+00  9.000E+00
      25     1     1     2     0     0  6.424236390E+01  1.518526510E+01 -5.260885881E+02  5.447493700E+02  1.250000000E+02  0.00000E+00  9.000E+00
      25     1     1     2     0     0  2.195836602E+01  1.935065796E+01 -1.082714368E+02  1.679414238E+02  1.250000000E+02  0.00000E+00  9.000E+00
      21     1     1     2   511   501 -8.620072992E+01 -3.453592305E+01 -1.003253270E+03  1.007541771E+03  1.078959322E-05  0.00000E+00  9.000E+00
#rwgt            1           1   4.0171995395798299E-002          10      475020           0
</event>
<event>
      5   9999  3.79277E-02  4.98262E+01 -1.00000E+00  1.39162E-01
      21    -1     0     0   502   512  0.000000000E+00  0.000000000E+00  1.021221118E+03  1.021221118E+03  0.000000000E+00  0.00000E+00  9.000E+00
      21    -1     0     0   501   502  0.000000000E+00  0.000000000E+00 -2.281011039E+02  2.281011039E+02  0.000000000E+00  0.00000E+00  9.000E+00
      25     1     1     2     0     0 -1.827165650E+02  2.310200221E+02  9.235853473E+01  3.330325700E+02  1.250000000E+02  0.00000E+00  9.000E+00
      25     1     1     2     0     0  1.527313078E+02 -2.708136204E+02  1.566592782E+02  3.699107985E+02  1.250000000E+02  0.00000E+00  9.000E+00
      21     1     1     2   501   512  2.998525716E+01  3.979359831E+01  5.441022016E+02  5.463788538E+02  7.629394531E-06  0.00000E+00  9.000E+00
#rwgt            1           1   3.8641254288379029E-002          10      475118           0
</event>
<event>
      5   9999  3.79277E-02  1.94834E+01 -1.00000E+00  1.67312E-01
      21    -1     0     0   511   501  0.000000000E+00  0.000000000E+00  1.645437290E+02  1.645437290E+02  0.000000000E+00  0.00000E+00  9.000E+00
      21    -1     0     0   501   502  0.000000000E+00  0.000000000E+00 -6.732505541E+02  6.732505541E+02  0.000000000E+00  0.00000E+00  9.000E+00
      25     1     1     2     0     0  2.512972781E+02  6.197531202E+01 -8.085358528E+01  2.985859399E+02  1.250000000E+02  0.00000E+00  9.000E+00
      25     1     1     2     0     0 -2.687275349E+02 -7.068093961E+01 -4.183138500E+02  5.175149856E+02  1.250000000E+02  0.00000E+00  9.000E+00
      21     1     1     2   511   502  1.743025677E+01  8.705627591E+00 -9.539389801E+00  2.169335752E+01  5.591411304E-07  0.00000E+00  9.000E+00
#rwgt            1           1   3.1325658756167371E-002          10      475291           0
</event>
<event>
      5   9999  3.79277E-02  6.15136E+01 -1.00000E+00  1.34128E-01
      21    -1     0     0   512   501  0.000000000E+00  0.000000000E+00  8.112782361E+02  8.112782361E+02  0.000000000E+00  0.00000E+00  9.000E+00
      21    -1     0     0   501   502  0.000000000E+00  0.000000000E+00 -1.376890593E+02  1.376890593E+02  0.000000000E+00  0.00000E+00  9.000E+00
      25     1     1     2     0     0 -1.816122676E+02  1.546995568E+02  4.428183365E+02  5.182933993E+02  1.250000000E+02  0.00000E+00  9.000E+00
      25     1     1     2     0     0  2.347790131E+02 -1.237605615E+02  1.510155823E+02  3.299523719E+02  1.250000000E+02  0.00000E+00  9.000E+00
      21     1     1     2   512   502 -5.316674552E+01 -3.093899529E+01  7.975525801E+01  1.007215242E+02  0.000000000E+00  0.00000E+00  9.000E+00
#rwgt            1           1   3.6336295930691098E-002          10      475519           0
</event>
<event>
      5   9999  3.79277E-02  1.75432E+01 -1.00000E+00  1.71207E-01
      21    -1     0     0   502   501  0.000000000E+00  0.000000000E+00  4.190661352E+02  4.190661352E+02  0.000000000E+00  0.00000E+00  9.000E+00
      21    -1     0     0   501   511  0.000000000E+00  0.000000000E+00 -1.454444777E+02  1.454444777E+02  0.000000000E+00  0.00000E+00  9.000E+00
      25     1     1     2     0     0  1.192653532E+02 -3.975512921E+01 -5.008684419E+01  1.842237410E+02  1.250000000E+02  0.00000E+00  9.000E+00
      25     1     1     2     0     0 -1.208689065E+02  2.228541173E+01  3.154717551E+02  3.609063042E+02  1.250000000E+02  0.00000E+00  9.000E+00
      21     1     1     2   502   511  1.603553294E+00  1.746971748E+01  8.236746671E+00  1.938056778E+01  2.384185791E-07  0.00000E+00  9.000E+00
#rwgt            1           1   3.4678786134418313E-002          10      475716           0
</event>
<event>
      5   9999  3.79277E-02  1.22328E+02 -1.00000E+00  1.20015E-01
      21    -1     0     0   502   501  0.000000000E+00  0.000000000E+00  2.731928342E+02  2.731928342E+02  0.000000000E+00  0.00000E+00  9.000E+00
      21    -1     0     0   501   512  0.000000000E+00  0.000000000E+00 -5.489643265E+02  5.489643265E+02  0.000000000E+00  0.00000E+00  9.000E+00
      25     1     1     2     0     0  6.299458116E+01 -6.786092210E+01 -5.902281100E+01  1.663794285E+02  1.250000000E+02  0.00000E+00  9.000E+00
      25     1     1     2     0     0 -1.381498393E+02  1.643794298E+02  1.354218314E+02  2.829665129E+02  1.250000000E+02  0.00000E+00  9.000E+00
      21     1     1     2   502   512  7.515525810E+01 -9.651850770E+01 -3.521705127E+02  3.728112192E+02  0.000000000E+00  0.00000E+00  9.000E+00
#rwgt            2          11   1.6034237458001880E-003          10      475919           0
</event>
<event>
      5   9999  3.79277E-02  7.06532E+01 -1.00000E+00  1.31017E-01
      21    -1     0     0   511   501  0.000000000E+00  0.000000000E+00  2.881598380E+02  2.881598380E+02  0.000000000E+00  0.00000E+00  9.000E+00
      21    -1     0     0   501   502  0.000000000E+00  0.000000000E+00 -1.901156880E+02  1.901156880E+02  0.000000000E+00  0.00000E+00  9.000E+00
      25     1     1     2     0     0 -8.642167271E+01  1.513582102E+02 -1.742506639E+01  2.151897912E+02  1.250000000E+02  0.00000E+00  9.000E+00
      25     1     1     2     0     0  5.121889808E+01 -9.009946103E+01  5.944558482E+01  1.729163554E+02  1.250000000E+02  0.00000E+00  9.000E+00
      21     1     1     2   511   502  3.520277463E+01 -6.125874912E+01  5.602363161E+01  9.016937942E+01  9.536743164E-07  0.00000E+00  9.000E+00
#rwgt            1           1   4.1964660964646884E-002          10      475954           0
</event>
<event>
      5   9999  3.79277E-02  5.77196E+01 -1.00000E+00  1.35609E-01
      21    -1     0     0   502   512  0.000000000E+00  0.000000000E+00  1.217314642E+03  1.217314642E+03  0.000000000E+00  0.00000E+00  9.000E+00
      21    -1     0     0   501   502  0.000000000E+00  0.000000000E+00 -6.905458789E+01  6.905458789E+01  0.000000000E+00  0.00000E+00  9.000E+00
      25     1     1     2     0     0 -1.542003131E+02 -1.533474429E+01  2.149260963E+02  2.929694827E+02  1.250000000E+02  0.00000E+00  9.000E+00
      25     1     1     2     0     0  1.175976675E+02  5.996425038E+01  2.580729437E+02  3.156763643E+02  1.250000000E+02  0.00000E+00  9.000E+00
      21     1     1     2   501   512  3.660264564E+01 -4.462950608E+01  6.752610145E+02  6.777233833E+02  1.078959322E-05  0.00000E+00  9.000E+00
#rwgt            1           1   4.5085844284207317E-002          10      476113           0
</event>
<event>
      5   9999  3.79277E-02  5.28203E+01 -1.00000E+00  1.37729E-01
      21    -1     0     0   502   501  0.000000000E+00  0.000000000E+00  5.647803420E+02  5.647803420E+02  0.000000000E+00  0.00000E+00  9.000E+00
      21    -1     0     0   511   502  0.000000000E+00  0.000000000E+00 -9.533792622E+01  9.533792622E+01  0.000000000E+00  0.00000E+00  9.000E+00
      25     1     1     2     0     0  1.029291270E+02  7.211773193E+01  2.819896603E+02  3.330743775E+02  1.250000000E+02  0.00000E+00  9.000E+00
      25     1     1     2     0     0 -1.274821614E+02 -1.188844686E+02  1.593516009E+02  2.672136805E+02  1.250000000E+02  0.00000E+00  9.000E+00
      21     1     1     2   511   501  2.455303440E+01  4.676673669E+01  2.810115457E+01  5.983021015E+01  3.371747881E-07  0.00000E+00  9.000E+00
#rwgt            1           1   2.8573087278135321E-002          10      476215           0
</event>
<event>
      5   9999  3.79277E-02  5.87039E+01 -1.00000E+00  1.35212E-01
      21    -1     0     0   502   512  0.000000000E+00  0.000000000E+00  1.385917431E+03  1.385917431E+03  0.000000000E+00  0.00000E+00  9.000E+00
      21    -1     0     0   501   502  0.000000000E+00  0.000000000E+00 -8.660471432E+01  8.660471432E+01  0.000000000E+00  0.00000E+00  9.000E+00
      25     1     1     2     0     0  1.960960918E+02 -6.758968610E+01  6.159090846E+02  6.618089176E+02  1.250000000E+02  0.00000E+00  9.000E+00
      25     1     1     2     0     0 -1.876371622E+02  1.256809672E+02  2.074566085E+02  3.311595606E+02  1.250000000E+02  0.00000E+00  9.000E+00
      21     1     1     2   501   512 -8.458929581E+00 -5.809128112E+01  4.759470232E+02  4.795536668E+02  5.394796609E-06  0.00000E+00  9.000E+00
#rwgt            1           1   1.9812890808738614E-002          10      476288           0
</event>
<event>
      5   9999  3.79277E-02  7.04028E+00 -1.00000E+00  2.15202E-01
      21    -1     0     0   502   501  0.000000000E+00  0.000000000E+00  3.462416117E+02  3.462416117E+02  0.000000000E+00  0.00000E+00  9.000E+00
      21    -1     0     0   511   502  0.000000000E+00  0.000000000E+00 -1.776820731E+02  1.776820731E+02  0.000000000E+00  0.00000E+00  9.000E+00
      25     1     1     2     0     0  1.517372833E+02 -1.321482720E+02  5.340815569E+01  2.428266872E+02  1.250000000E+02  0.00000E+00  9.000E+00
      25     1     1     2     0     0 -1.451143326E+02  1.297603732E+02  1.294923665E+02  2.651210987E+02  1.250000000E+02  0.00000E+00  9.000E+00
      21     1     1     2   511   501 -6.622950681E+00  2.387898772E+00 -1.434098359E+01  1.597589893E+01  3.371747881E-07  0.00000E+00  9.000E+00
#rwgt            1           1   3.0847646167823518E-002          10      476386           0
</event>
<event>
      5   9999  3.79277E-02  5.19145E+01 -1.00000E+00  1.38151E-01
      21    -1     0     0   502   512  0.000000000E+00  0.000000000E+00  1.355278818E+03  1.355278818E+03  0.000000000E+00  0.00000E+00  9.000E+00
      21    -1     0     0   501   502  0.000000000E+00  0.000000000E+00 -7.575120837E+01  7.575120837E+01  0.000000000E+00  0.00000E+00  9.000E+00
      25     1     1     2     0     0 -3.901686795E+01 -1.205932794E+02  6.265706921E+01  1.887219207E+02  1.250000000E+02  0.00000E+00  9.000E+00
      25     1     1     2     0     0 -1.113351078E+01  1.071746977E+02  5.714453614E+02  5.947984297E+02  1.250000000E+02  0.00000E+00  9.000E+00
      21     1     1     2   501   512  5.015037873E+01  1.341858166E+01  6.454251785E+02  6.475096755E+02  1.321449896E-05  0.00000E+00  9.000E+00
#rwgt            1           1   2.2284974793410857E-002          10      476775           0
</event>
<event>
      5   9999  3.79277E-02  1.38965E+01 -1.00000E+00  1.80568E-01
      21    -1     0     0   511   501  0.000000000E+00  0.000000000E+00  4.391434366E+02  4.391434366E+02  0.000000000E+00  0.00000E+00  9.000E+00
      21    -1     0     0   501   502  0.000000000E+00  0.000000000E+00 -1.309465399E+02  1.309465399E+02  0.000000000E+00  0.00000E+00  9.000E+00
      25     1     1     2     0     0 -1.216897514E+02 -5.839756796E+01 -1.597598306E+01  1.846588843E+02  1.250000000E+02  0.00000E+00  9.000E+00
      25     1     1     2     0     0  1.320309005E+02  6.768045347E+01  2.944033940E+02  3.525778791E+02  1.250000000E+02  0.00000E+00  9.000E+00
      21     1     1     2   511   502 -1.034114909E+01 -9.282885513E+00  2.976948578E+01  3.285321311E+01  4.768371582E-07  0.00000E+00  9.000E+00
#rwgt            1           1   2.6206299867618521E-002          10      476946           0
</event>
<event>
      5   9999  3.79277E-02  7.63458E+01 -1.00000E+00  1.29340E-01
      21    -1     0     0   502   512  0.000000000E+00  0.000000000E+00  3.611543638E+02  3.611543638E+02  0.000000000E+00  0.00000E+00  9.000E+00
      21    -1     0     0   501   502  0.000000000E+00  0.000000000E+00 -1.822142521E+02  1.822142521E+02  0.000000000E+00  0.00000E+00  9.000E+00
      25     1     1     2     0     0 -5.568617396E+01 -1.870895560E+02  3.532911125E+00  2.318209080E+02  1.250000000E+02  0.00000E+00  9.000E+00
      25     1     1     2     0     0  6.597692169E+01  1.114404569E+02  1.094513388E+02  2.106573645E+02  1.250000000E+02  0.00000E+00  9.000E+00
      21     1     1     2   501   512 -1.029074773E+01  7.564909907E+01  6.595586175E+01  1.008903433E+02  9.536743164E-07  0.00000E+00  9.000E+00
#rwgt            1           1   3.7756682468582999E-002          10      477154           0
</event>
<event>
      5   9999 -3.79277E-02  2.88625E+01 -1.00000E+00  1.54215E-01
      21    -1     0     0   502   501  0.000000000E+00  0.000000000E+00  2.274002740E+01  2.274002740E+01  0.000000000E+00  0.00000E+00  9.000E+00
       1    -1     0     0   501     0  0.000000000E+00  0.000000000E+00 -1.839161135E+03  1.839161135E+03  0.000000000E+00  0.00000E+00  9.000E+00
      25     1     1     2     0     0  4.928292908E+01  1.283478324E+02 -5.523104063E+02  5.827295754E+02  1.250000000E+02  0.00000E+00  9.000E+00
      25     1     1     2     0     0 -3.537132068E+01 -1.030592876E+02 -1.025263822E+03  1.038587142E+03  1.250000000E+02  0.00000E+00  9.000E+00
       1     1     1     2   502     0 -1.391160839E+01 -2.528854477E+01 -2.388468791E+02  2.405844446E+02  0.000000000E+00  0.00000E+00  9.000E+00
#rwgt            1           1  -4.0197064486339494E-002          10      477260           0
</event>
<event>
      5   9999  3.79277E-02  7.63106E+01 -1.00000E+00  1.29350E-01
      21    -1     0     0   502   501  0.000000000E+00  0.000000000E+00  5.914296417E+01  5.914296417E+01  0.000000000E+00  0.00000E+00  9.000E+00
       1    -1     0     0   501     0  0.000000000E+00  0.000000000E+00 -1.839541198E+03  1.839541198E+03  0.000000000E+00  0.00000E+00  9.000E+00
      25     1     1     2     0     0  4.477739451E+01 -8.398832629E+01 -7.815809874E+01  1.754786096E+02  1.250000000E+02  0.00000E+00  9.000E+00
      25     1     1     2     0     0  2.055061748E+01  4.454784694E+01 -4.755846604E+02  4.941787204E+02  1.250000000E+02  0.00000E+00  9.000E+00
       1     1     1     2   502     0 -6.532801199E+01  3.944047936E+01 -1.226655474E+03  1.229026832E+03  1.525878906E-05  0.00000E+00  9.000E+00
#rwgt            1           1   4.5999080192997893E-002          10      477461           0
</event>
<event>
      5   9999  3.79277E-02  5.72691E+00 -1.00000E+00  2.28660E-01
       1    -1     0     0   502     0  0.000000000E+00  0.000000000E+00  8.493228283E+02  8.493228283E+02  0.000000000E+00  0.00000E+00  9.000E+00
      21    -1     0     0   501   502  0.000000000E+00  0.000000000E+00 -2.621642797E+02  2.621642797E+02  0.000000000E+00  0.00000E+00  9.000E+00
      25     1     1     2     0     0 -9.082570084E+01  4.883489247E+01  4.856540632E+01  1.691678260E+02  1.250000000E+02  0.00000E+00  9.000E+00
      25     1     1     2     0     0  9.425375706E+01 -5.342247548E+01 -1.679617787E+02  2.357411520E+02  1.250000000E+02  0.00000E+00  9.000E+00
       1     1     1     2   501     0 -3.428056225E+00  4.587583017E+00  7.065549210E+02  7.065781301E+02  7.629394531E-06  0.00000E+00  9.000E+00
#rwgt            1           1   4.1861196325310261E-002          10      477567           0
</event>
<event>
      5   9999  3.79277E-02  3.75700E+01 -1.00000E+00  1.46549E-01
      21    -1     0     0   502   501  0.000000000E+00  0.000000000E+00  8.513177950E+01  8.513177950E+01  0.000000000E+00  0.00000E+00  9.000E+00
      21    -1     0     0   511   502  0.000000000E+00  0.000000000E+00 -1.075745379E+03  1.075745379E+03  0.000000000E+00  0.00000E+00  9.000E+00
      25     1     1     2     0     0 -1.133369766E+02 -1.426895390E+02 -6.165330718E+02  6.549378622E+02  1.250000000E+02  0.00000E+00  9.000E+00
      25     1     1     2     0     0  1.268127637E+02  1.076194403E+02 -1.027999256E+02  2.320694846E+02  1.250000000E+02  0.00000E+00  9.000E+00
      21     1     1     2   511   501 -1.347578712E+01  3.507009863E+01 -2.712806023E+02  2.738698118E+02  3.814697266E-06  0.00000E+00  9.000E+00
#rwgt            1           1   3.5938557335290972E-002          10      477890           0
</event>
<event>
      5   9999  3.79277E-02  1.15199E+02 -1.00000E+00  1.21126E-01
      21    -1     0     0   502   501  0.000000000E+00  0.000000000E+00  9.336681265E+02  9.336681265E+02  0.000000000E+00  0.00000E+00  9.000E+00
      21    -1     0     0   512   502  0.000000000E+00  0.000000000E+00 -2.032830652E+02  2.032830652E+02  0.000000000E+00  0.00000E+00  9.000E+00
      25     1     1     2     0     0  1.463443124E+02  2.263474988E+02  3.403348167E+02  4.517771966E+02  1.250000000E+02  0.00000E+00  9.000E+00
      25     1     1     2     0     0 -7.678584012E+01 -1.345193408E+02  4.923805891E+02  5.310886582E+02  1.250000000E+02  0.00000E+00  9.000E+00
      21     1     1     2   512   501 -6.955847225E+01 -9.182815798E+01 -1.023303444E+02  1.540853369E+02  3.015782986E-06  0.00000E+00  9.000E+00
#rwgt            2          11   1.6592454477354955E-003          10      477973           0
</event>
<event>
      5   9999  3.79277E-02  1.20581E+01 -1.00000E+00  1.86808E-01
      21    -1     0     0   502   501  0.000000000E+00  0.000000000E+00  1.325137765E+02  1.325137765E+02  0.000000000E+00  0.00000E+00  9.000E+00
      21    -1     0     0   511   502  0.000000000E+00  0.000000000E+00 -1.744497276E+02  1.744497276E+02  0.000000000E+00  0.00000E+00  9.000E+00
      25     1     1     2     0     0  9.984603651E+00  6.017561961E+01 -5.846514430E+01  1.508773363E+02  1.250000000E+02  0.00000E+00  9.000E+00
      25     1     1     2     0     0 -2.184418906E+01 -5.799658105E+01  2.446836289E+01  1.416491186E+02  1.250000000E+02  0.00000E+00  9.000E+00
      21     1     1     2   511   501  1.185958540E+01 -2.179038556E+00 -7.939169743E+00  1.443704926E+01  0.000000000E+00  0.00000E+00  9.000E+00
#rwgt            1           1   7.8550715302386220E-002          10      478008           0
</event>
<event>
      5   9999  3.79277E-02  3.43096E+01 -1.00000E+00  1.49098E-01
      21    -1     0     0   502   501  0.000000000E+00  0.000000000E+00  2.853414032E+02  2.853414032E+02  0.000000000E+00  0.00000E+00  9.000E+00
      21    -1     0     0   501   512  0.000000000E+00  0.000000000E+00 -8.960274244E+01  8.960274244E+01  0.000000000E+00  0.00000E+00  9.000E+00
      25     1     1     2     0     0  2.038341268E+01  7.349462650E+00  1.522911247E+02  1.982096990E+02  1.250000000E+02  0.00000E+00  9.000E+00
      25     1     1     2     0     0 -5.080423734E+01 -2.321528649E+01  3.245146152E+01  1.407057832E+02  1.250000000E+02  0.00000E+00  9.000E+00
      21     1     1     2   502   512  3.042082466E+01  1.586582384E+01  1.099607460E+01  3.602866353E+01  6.307962682E-07  0.00000E+00  9.000E+00
#rwgt            1           1   5.7861149536582314E-002          10      478306           0
</event>
<event>
      5   9999 -3.79277E-02  7.20434E+00 -1.00000E+00  2.13803E-01
      21    -1     0     0   502   501  0.000000000E+00  0.000000000E+00  8.462546554E+01  8.462546554E+01  0.000000000E+00  0.00000E+00  9.000E+00
      21    -1     0     0   511   502  0.000000000E+00  0.000000000E+00 -4.524554917E+02  4.524554917E+02  0.000000000E+00  0.00000E+00  9.000E+00
      25     1     1     2     0     0 -3.274748557E+00 -1.283914226E+02 -8.213163661E+01  1.971438234E+02  1.250000000E+02  0.00000E+00  9.000E+00
      25     1     1     2     0     0  6.323769972E+00  1.218640934E+02 -2.598984423E+02  3.131501998E+02  1.250000000E+02  0.00000E+00  9.000E+00
      21     1     1     2   511   501 -3.049021415E+00  6.527329182E+00 -2.579994719E+01  2.678693399E+01  0.000000000E+00  0.00000E+00  9.000E+00
#rwgt            1           1  -2.9528265330144507E-002          10      478471           0
</event>
<event>
      5   9999 -3.79277E-02  3.18582E+01 -1.00000E+00  1.51249E-01
      21    -1     0     0   512   501  0.000000000E+00  0.000000000E+00  5.028188121E+02  5.028188121E+02  0.000000000E+00  0.00000E+00  9.000E+00
      21    -1     0     0   501   502  0.000000000E+00  0.000000000E+00 -1.597769713E+02  1.597769713E+02  0.000000000E+00  0.00000E+00  9.000E+00
      25     1     1     2     0     0  1.277838080E+02 -5.792295157E+01 -5.235932819E+01  1.950647819E+02  1.250000000E+02  0.00000E+00  9.000E+00
      25     1     1     2     0     0 -1.014012732E+02  4.006503589E+01  1.616195275E+02  2.315886374E+02  1.250000000E+02  0.00000E+00  9.000E+00
      21     1     1     2   512   502 -2.638253476E+01  1.785791568E+01  2.337816414E+02  2.359423641E+02  2.697398305E-06  0.00000E+00  9.000E+00
#rwgt            1           1  -9.9525500289925961E-002          10      478680           0
</event>
<event>
      5   9999  3.79277E-02  6.71477E+01 -1.00000E+00  1.32142E-01
      21    -1     0     0   511   501  0.000000000E+00  0.000000000E+00  2.769094612E+02  2.769094612E+02  0.000000000E+00  0.00000E+00  9.000E+00
      21    -1     0     0   501   502  0.000000000E+00  0.000000000E+00 -1.654432165E+02  1.654432165E+02  0.000000000E+00  0.00000E+00  9.000E+00
      25     1     1     2     0     0  3.213605705E+01 -2.509483758E+01 -3.568790850E+01  1.362391421E+02  1.250000000E+02  0.00000E+00  9.000E+00
      25     1     1     2     0     0 -5.757341287E+01 -3.704819968E+01 -2.006975386E+00  1.425352410E+02  1.250000000E+02  0.00000E+00  9.000E+00
      21     1     1     2   511   502  2.543735582E+01  6.214303726E+01  1.491611287E+02  1.635782946E+02  3.303624740E-06  0.00000E+00  9.000E+00
#rwgt            1           1   1.6795034160541740E-002          10      478849           0
</event>
<event>
      5   9999  3.79277E-02  3.48633E+01 -1.00000E+00  1.48642E-01
      21    -1     0     0   502   501  0.000000000E+00  0.000000000E+00  6.210320377E+02  6.210320377E+02  0.000000000E+00  0.00000E+00  9.000E+00
      -4    -1     0     0     0   502  0.000000000E+00  0.000000000E+00 -1.048821089E+03  1.048821089E+03  0.000000000E+00  0.00000E+00  9.000E+00
      25     1     1     2     0     0  6.458930096E+01 -5.814247770E+00  5.372219986E+02  5.553720006E+02  1.250000000E+02  0.00000E+00  9.000E+00
      25     1     1     2     0     0 -9.536573875E+01  2.219298922E+01 -1.028217511E+01  1.591159201E+02  1.250000000E+02  0.00000E+00  9.000E+00
      -4     1     1     2     0   501  3.077643779E+01 -1.637874145E+01 -9.547288751E+02  9.553652062E+02  0.000000000E+00  0.00000E+00  9.000E+00
#rwgt            1           1   4.1678121448886371E-002          10      478899           0
</event>
<event>
      5   9999  3.79277E-02  3.50473E+01 -1.00000E+00  1.48493E-01
      21    -1     0     0   502   501  0.000000000E+00  0.000000000E+00  4.016437800E+02  4.016437800E+02  0.000000000E+00  0.00000E+00  9.000E+00
      21    -1     0     0   501   511  0.000000000E+00  0.000000000E+00 -4.437493604E+02  4.437493604E+02  0.000000000E+00  0.00000E+00  9.000E+00
      25     1     1     2     0     0  8.483029356E+01  1.428811545E+02  5.629062110E+01  2.154178197E+02  1.250000000E+02  0.00000E+00  9.000E+00
      25     1     1     2     0     0 -5.197943952E+01 -1.550932194E+02  2.248366512E+02  3.048479762E+02  1.250000000E+02  0.00000E+00  9.000E+00
      21     1     1     2   502   511 -3.285085404E+01  1.221206494E+01 -3.232328527E+02  3.251273446E+02  3.814697266E-06  0.00000E+00  9.000E+00
#rwgt            1           1   3.0043846246051810E-002          10      479056           0
</event>
<event>
      5   9999  3.79277E-02  2.43875E+01 -1.00000E+00  1.59562E-01
      21    -1     0     0   502   501  0.000000000E+00  0.000000000E+00  5.992469192E+02  5.992469192E+02  0.000000000E+00  0.00000E+00  9.000E+00
      21    -1     0     0   501   512  0.000000000E+00  0.000000000E+00 -1.762264137E+02  1.762264137E+02  0.000000000E+00  0.00000E+00  9.000E+00
      25     1     1     2     0     0 -1.890911049E+02 -9.294006762E+01  4.458690469E+02  5.087411023E+02  1.250000000E+02  0.00000E+00  9.000E+00
      25     1     1     2     0     0  1.648062917E+02  9.517524202E+01  7.477782526E+00  2.278165001E+02  1.250000000E+02  0.00000E+00  9.000E+00
      21     1     1     2   502   512  2.428481325E+01 -2.235174406E+00 -3.032632392E+01  3.891573052E+01  3.371747881E-07  0.00000E+00  9.000E+00
#rwgt            1           1   7.8743840992921976E-002          10      479232           0
</event>
<event>
      5   9999  3.79277E-02  1.07180E+02 -1.00000E+00  1.22488E-01
      21    -1     0     0   502   511  0.000000000E+00  0.000000000E+00  5.451565006E+01  5.451565006E+01  0.000000000E+00  0.00000E+00  9.000E+00
      21    -1     0     0   501   502  0.000000000E+00  0.000000000E+00 -1.290396361E+03  1.290396361E+03  0.000000000E+00  0.00000E+00  9.000E+00
      25     1     1     2     0     0  8.494762539E+01  2.963859444E+01 -1.705597429E+02  2.298046371E+02  1.250000000E+02  0.00000E+00  9.000E+00
      25     1     1     2     0     0 -6.271136077E+01 -1.344866961E+02 -8.789984056E+02  9.001569770E+02  1.250000000E+02  0.00000E+00  9.000E+00
      21     1     1     2   501   511 -2.223626462E+01  1.048481017E+02 -1.863225628E+02  2.149503973E+02  2.697398305E-06  0.00000E+00  9.000E+00
#rwgt            1           1   3.2283135706076181E-002          10      479422           0
</event>
<event>
      5   9999  3.79277E-02  2.27272E+02 -1.00000E+00  1.09664E-01
      21    -1     0     0   502   501  0.000000000E+00  0.000000000E+00  3.161618093E+02  3.161618093E+02  0.000000000E+00  0.00000E+00  9.000E+00
       1    -1     0     0   501     0  0.000000000E+00  0.000000000E+00 -1.059818231E+03  1.059818231E+03  0.000000000E+00  0.00000E+00  9.000E+00
      25     1     1     2     0     0 -3.015330788E+02 -4.711299405E+01  8.155204314E+01  3.397316111E+02  1.250000000E+02  0.00000E+00  9.000E+00
      25     1     1     2     0     0  1.215457554E+02 -9.165645984E+01 -1.816120094E+01  1.978107846E+02  1.250000000E+02  0.00000E+00  9.000E+00
       1     1     1     2   502     0  1.799873234E+02  1.387694539E+02 -8.070472638E+02  8.384376447E+02  1.525878906E-05  0.00000E+00  9.000E+00
#rwgt            1           1   5.2513685249827892E-002          10      479469           0
</event>
<event>
      5   9999  3.79277E-02  9.32480E+01 -1.00000E+00  1.25209E-01
      21    -1     0     0   502   501  0.000000000E+00  0.000000000E+00  2.885300017E+02  2.885300017E+02  0.000000000E+00  0.00000E+00  9.000E+00
      21    -1     0     0   511   502  0.000000000E+00  0.000000000E+00 -1.092061952E+03  1.092061952E+03  0.000000000E+00  0.00000E+00  9.000E+00
      25     1     1     2     0     0  1.998200585E+02 -1.130310062E+02  1.348670862E+02  2.941397543E+02  1.250000000E+02  0.00000E+00  9.000E+00
      25     1     1     2     0     0 -1.799501252E+02  2.192462379E+01 -9.821559034E+01  2.411100141E+02  1.250000000E+02  0.00000E+00  9.000E+00
      21     1     1     2   511   501 -1.986993324E+01  9.110638245E+01 -8.401834462E+02  8.453421854E+02  1.078959322E-05  0.00000E+00  9.000E+00
#rwgt            1           1   4.3743948923873517E-002          10      479513           0
</event>
<event>
      5   9999  3.79277E-02  2.09185E+01 -1.00000E+00  1.64776E-01
      21    -1     0     0   502   501  0.000000000E+00  0.000000000E+00  1.257173917E+02  1.257173917E+02  0.000000000E+00  0.00000E+00  9.000E+00
      -1    -1     0     0     0   502  0.000000000E+00  0.000000000E+00 -1.037137157E+03  1.037137157E+03  0.000000000E+00  0.00000E+00  9.000E+00
      25     1     1     2     0     0 -1.899888221E+02  8.917326317E+01 -1.048068989E+02  2.658140505E+02  1.250000000E+02  0.00000E+00  9.000E+00
      25     1     1     2     0     0  1.931426047E+02 -6.849384223E+01 -2.750480630E+02  3.650642534E+02  1.250000000E+02  0.00000E+00  9.000E+00
      -1     1     1     2     0   501 -3.153782543E+00 -2.067942093E+01 -5.315648036E+02  5.319762450E+02  7.629394531E-06  0.00000E+00  9.000E+00
#rwgt            1           1   3.3349638086540297E-002          10      479645           0
</event>
<event>
      5   9999  3.79277E-02  1.27721E+01 -1.00000E+00  1.84225E-01
      21    -1     0     0   511   501  0.000000000E+00  0.000000000E+00  8.027286308E+02  8.027286308E+02  0.000000000E+00  0.00000E+00  9.000E+00
      21    -1     0     0   501   502  0.000000000E+00  0.000000000E+00 -6.721728779E+01  6.721728779E+01  0.000000000E+00  0.00000E+00  9.000E+00
      25     1     1     2     0     0  8.637330894E+01 -1.033025005E+02  1.108539276E+02  2.145817988E+02  1.250000000E+02  0.00000E+00  9.000E+00
      25     1     1     2     0     0 -7.664677231E+01  1.115802552E+02  5.990842176E+02  6.267788931E+02  1.250000000E+02  0.00000E+00  9.000E+00
      21     1     1     2   511   502 -9.726536624E+00 -8.277754774E+00  2.557319780E+01  2.858522668E+01  0.000000000E+00  0.00000E+00  9.000E+00
#rwgt            1           1   4.2049714241096860E-002          10      479897           0
</event>
<event>
      5   9999  3.79277E-02  8.49024E+01 -1.00000E+00  1.27112E-01
       2    -1     0     0   502     0  0.000000000E+00  0.000000000E+00  9.852494784E+01  9.852494784E+01  0.000000000E+00  0.00000E+00  9.000E+00
      21    -1     0     0   501   502  0.000000000E+00  0.000000000E+00 -5.085252908E+02  5.085252908E+02  0.000000000E+00  0.00000E+00  9.000E+00
      25     1     1     2     0     0  4.985630492E+00 -5.440200191E+01 -1.082183590E+02  1.741282503E+02  1.250000000E+02  0.00000E+00  9.000E+00
      25     1     1     2     0     0 -2.382634698E+01 -2.838358503E+01 -3.204798223E+02  3.459850275E+02  1.250000000E+02  0.00000E+00  9.000E+00
       2     1     1     2   501     0  1.884071648E+01  8.278558693E+01  1.869783840E+01  8.693696085E+01  1.066240300E-06  0.00000E+00  9.000E+00
#rwgt            1           1   7.0394628960064681E-002          10      480107           0
</event>
<event>
      5   9999  3.79277E-02  2.99325E+02 -1.00000E+00  1.05624E-01
      21    -1     0     0   502   501  0.000000000E+00  0.000000000E+00  2.972163254E+02  2.972163254E+02  0.000000000E+00  0.00000E+00  9.000E+00
      21    -1     0     0   501   511  0.000000000E+00  0.000000000E+00 -7.661906579E+02  7.661906579E+02  0.000000000E+00  0.00000E+00  9.000E+00
      25     1     1     2     0     0 -4.520836846E+01  8.992577682E+00 -2.489013600E+02  2.823146295E+02  1.250000000E+02  0.00000E+00  9.000E+00
      25     1     1     2     0     0 -2.537266305E+02 -2.425909946E+01  1.369522503E+02  3.151929977E+02  1.250000000E+02  0.00000E+00  9.000E+00
      21     1     1     2   502   511  2.989349990E+02  1.526652178E+01 -3.570252228E+02  4.658993561E+02  6.607249480E-06  0.00000E+00  9.000E+00
#rwgt            2          11   1.1126144881660233E-003          10      480444           0
</event>
<event>
      5   9999  3.79277E-02  9.26822E+01 -1.00000E+00  1.25331E-01
      -1    -1     0     0     0   501  0.000000000E+00  0.000000000E+00  7.763547632E+02  7.763547632E+02  0.000000000E+00  0.00000E+00  9.000E+00
      21    -1     0     0   501   502  0.000000000E+00  0.000000000E+00 -9.420624445E+02  9.420624445E+02  0.000000000E+00  0.00000E+00  9.000E+00
      25     1     1     2     0     0 -1.396538074E+01 -1.777068034E+01 -9.215367370E+01  1.569335162E+02  1.250000000E+02  0.00000E+00  9.000E+00
      25     1     1     2     0     0 -3.659891291E+01  9.544466542E+01 -8.065987757E+02  8.226030328E+02  1.250000000E+02  0.00000E+00  9.000E+00
      -1     1     1     2     0   502  5.056429364E+01 -7.767398508E+01  7.330447681E+02  7.388806587E+02  1.078959322E-05  0.00000E+00  9.000E+00
#rwgt            1           1   4.5482940797148444E-002          10      480464           0
</event>
<event>
      5   9999  3.79277E-02  4.56399E+01 -1.00000E+00  1.41375E-01
      21    -1     0     0   502   501  0.000000000E+00  0.000000000E+00  3.192380173E+02  3.192380173E+02  0.000000000E+00  0.00000E+00  9.000E+00
      21    -1     0     0   511   502  0.000000000E+00  0.000000000E+00 -2.343608387E+02  2.343608387E+02  0.000000000E+00  0.00000E+00  9.000E+00
      25     1     1     2     0     0  2.062628076E+02  7.190364443E+01  1.487638904E+01  2.521126471E+02  1.250000000E+02  0.00000E+00  9.000E+00
      25     1     1     2     0     0 -1.775132781E+02 -3.645698021E+01  1.050630970E+02  2.439330434E+02  1.250000000E+02  0.00000E+00  9.000E+00
      21     1     1     2   511   501 -2.874952952E+01 -3.544666422E+01 -3.506230744E+01  5.755316547E+01  8.259061849E-07  0.00000E+00  9.000E+00
#rwgt            1           1   3.7640961649959899E-002          10      480562           0
</event>
<event>
      5   9999  3.79277E-02  1.17023E+02 -1.00000E+00  1.20833E-01
      21    -1     0     0   502   501  0.000000000E+00  0.000000000E+00  3.242061653E+01  3.242061653E+01  0.000000000E+00  0.00000E+00  9.000E+00
       2    -1     0     0   501     0  0.000000000E+00  0.000000000E+00 -2.083301111E+03  2.083301111E+03  0.000000000E+00  0.00000E+00  9.000E+00
      25     1     1     2     0     0 -2.960561913E+01  1.787934991E+02 -1.184326408E+03  1.204615145E+03  1.250000000E+02  0.00000E+00  9.000E+00
      25     1     1     2     0     0  7.433220681E+00 -6.389006534E+01 -2.836836954E+02  3.166048519E+02  1.250000000E+02  0.00000E+00  9.000E+00
       2     1     1     2   502     0  2.217239845E+01 -1.149034338E+02 -5.828703908E+02  5.945017299E+02  0.000000000E+00  0.00000E+00  9.000E+00
#rwgt            1           1   4.9522102608639658E-002          10      480726           0
</event>
<event>
      5   9999  3.79277E-02  5.39667E+01 -1.00000E+00  1.37210E-01
      21    -1     0     0   502   501  0.000000000E+00  0.000000000E+00  3.807014808E+02  3.807014808E+02  0.000000000E+00  0.00000E+00  9.000E+00
      21    -1     0     0   501   511  0.000000000E+00  0.000000000E+00 -1.488835828E+02  1.488835828E+02  0.000000000E+00  0.00000E+00  9.000E+00
      25     1     1     2     0     0 -9.222612661E+01  8.417884012E+01  1.047164076E+02  2.053832066E+02  1.250000000E+02  0.00000E+00  9.000E+00
      25     1     1     2     0     0  1.437862802E+02 -1.001147118E+02  1.532715725E+02  2.642245727E+02  1.250000000E+02  0.00000E+00  9.000E+00
      21     1     1     2   502   511 -5.156015356E+01  1.593587164E+01 -2.617008204E+01  5.997728432E+01  5.840038640E-07  0.00000E+00  9.000E+00
#rwgt            1           1   3.7664532970138775E-002          10      480859           0
</event>
<event>
      5   9999  3.79277E-02  1.49829E+01 -1.00000E+00  1.77430E-01
      21    -1     0     0   502   501  0.000000000E+00  0.000000000E+00  3.498116222E+02  3.498116222E+02  0.000000000E+00  0.00000E+00  9.000E+00
      21    -1     0     0   501   512  0.000000000E+00  0.000000000E+00 -1.979548370E+02  1.979548370E+02  0.000000000E+00  0.00000E+00  9.000E+00
      25     1     1     2     0     0 -8.243851457E+01 -8.280960841E+01  2.451995961E+02  2.990006385E+02  1.250000000E+02  0.00000E+00  9.000E+00
      25     1     1     2     0     0  7.093249501E+01  9.240636077E+01 -1.784516418E+01  1.717958214E+02  1.250000000E+02  0.00000E+00  9.000E+00
      21     1     1     2   502   512  1.150601956E+01 -9.596752358E+00 -7.549764665E+01  7.696999929E+01  0.000000000E+00  0.00000E+00  9.000E+00
#rwgt            2          11   4.9979487351470796E-004          10      481075           0
</event>
<event>
      5   9999  3.79277E-02  4.83277E+01 -1.00000E+00  1.39924E-01
      -1    -1     0     0     0   501  0.000000000E+00  0.000000000E+00  3.378336939E+02  3.378336939E+02  0.000000000E+00  0.00000E+00  9.000E+00
      21    -1     0     0   501   502  0.000000000E+00  0.000000000E+00 -2.385066837E+02  2.385066837E+02  0.000000000E+00  0.00000E+00  9.000E+00
      25     1     1     2     0     0 -2.002017466E+02  1.299278675E+02 -2.442498498E+00  2.694307998E+02  1.250000000E+02  0.00000E+00  9.000E+00
      25     1     1     2     0     0  1.520044461E+02 -1.334758154E+02  6.599726255E+01  2.467828673E+02  1.250000000E+02  0.00000E+00  9.000E+00
      -1     1     1     2     0   502  4.819730051E+01  3.547947911E+00  3.577224622E+01  6.012671046E+01  4.768371582E-07  0.00000E+00  9.000E+00
#rwgt            1           1   3.7367607222191047E-002          10      481140           0
</event>
<event>
      5   9999  3.79277E-02  1.82066E+01 -1.00000E+00  1.69807E-01
      21    -1     0     0   502   501  0.000000000E+00  0.000000000E+00  9.437196288E+01  9.437196288E+01  0.000000000E+00  0.00000E+00  9.000E+00
      21    -1     0     0   501   511  0.000000000E+00  0.000000000E+00 -5.951527123E+02  5.951527123E+02  0.000000000E+00  0.00000E+00  9.000E+00
      25     1     1     2     0     0 -8.832983091E+01  2.648498255E+01 -4.769797385E+02  5.016356090E+02  1.250000000E+02  0.00000E+00  9.000E+00
      25     1     1     2     0     0  8.878516165E+01 -4.468589261E+01 -2.304263134E+00  1.597183257E+02  1.250000000E+02  0.00000E+00  9.000E+00
      21     1     1     2   502   511 -4.553307318E-01  1.820091006E+01 -2.149674781E+01  2.817074049E+01  0.000000000E+00  0.00000E+00  9.000E+00
#rwgt            1           1   2.0594825678614183E-002          10      481233           0
</event>
<event>
      5   9999  3.79277E-02  8.50630E+01 -1.00000E+00  1.27073E-01
      21    -1     0     0   512   501  0.000000000E+00  0.000000000E+00  6.864576961E+02  6.864576961E+02  0.000000000E+00  0.00000E+00  9.000E+00
      21    -1     0     0   501   502  0.000000000E+00  0.000000000E+00 -5.546981598E+01  5.546981598E+01  0.000000000E+00  0.00000E+00  9.000E+00
      25     1     1     2     0     0 -8.650635040E+01 -4.291221685E+01  1.708081886E+02  2.326483276E+02  1.250000000E+02  0.00000E+00  9.000E+00
      25     1     1     2     0     0  1.443557910E+00  4.308184372E+01  3.020244894E+02  3.296997442E+02  1.250000000E+02  0.00000E+00  9.000E+00
      21     1     1     2   512   502  8.506279249E+01 -1.696268696E-01  1.581552020E+02  1.795794403E+02  1.907348633E-06  0.00000E+00  9.000E+00
#rwgt            1           1   9.2437150849192073E-002          10      481428           0
</event>
<event>
      5   9999  3.79277E-02  3.58857E+01 -1.00000E+00  1.47826E-01
      21    -1     0     0   502   501  0.000000000E+00  0.000000000E+00  2.687208777E+02  2.687208777E+02  0.000000000E+00  0.00000E+00  9.000E+00
       1    -1     0     0   501     0  0.000000000E+00  0.000000000E+00 -2.108274867E+03  2.108274867E+03  0.000000000E+00  0.00000E+00  9.000E+00
      25     1     1     2     0     0 -4.933743914E+01  4.748021336E+01  2.076964650E+02  2.518955640E+02  1.250000000E+02  0.00000E+00  9.000E+00
      25     1     1     2     0     0  5.729888903E+01 -1.248884213E+01 -8.419903096E+01  1.617207800E+02  1.250000000E+02  0.00000E+00  9.000E+00
       1     1     1     2   502     0 -7.961449889E+00 -3.499137123E+01 -1.963051423E+03  1.963379401E+03  2.157918644E-05  0.00000E+00  9.000E+00
#rwgt            1           1   3.8424508205919798E-002          10      481472           0
</event>
<event>
      5   9999  3.79277E-02  5.27540E+01 -1.00000E+00  1.37760E-01
      21    -1     0     0   502   501  0.000000000E+00  0.000000000E+00  2.398122167E+02  2.398122167E+02  0.000000000E+00  0.00000E+00  9.000E+00
      21    -1     0     0   501   511  0.000000000E+00  0.000000000E+00 -9.938038025E+02  9.938038025E+02  0.000000000E+00  0.00000E+00  9.000E+00
      25     1     1     2     0     0  9.299445289E+01 -1.279829307E+02  1.172565724E+01  2.019655660E+02  1.250000000E+02  0.00000E+00  9.000E+00
      25     1     1     2     0     0 -4.929224183E+01  1.575312225E+02  5.099192993E+01  2.132392742E+02  1.250000000E+02  0.00000E+00  9.000E+00
      21     1     1     2   502   511 -4.370221106E+01 -2.954829182E+01 -8.167091729E+02  8.184111790E+02  1.525878906E-05  0.00000E+00  9.000E+00
#rwgt            1           1   3.3254711506146915E-002          10      481648           0
</event>
<event>
      5   9999  3.79277E-02  4.30885E+01 -1.00000E+00  1.42865E-01
      21    -1     0     0   512   501  0.000000000E+00  0.000000000E+00  1.116202291E+03  1.116202291E+03  0.000000000E+00  0.00000E+00  9.000E+00
      21    -1     0     0   501   502  0.000000000E+00  0.000000000E+00 -5.748900822E+02  5.748900822E+02  0.000000000E+00  0.00000E+00  9.000E+00
      25     1     1     2     0     0  1.285699344E+02  1.200126749E+02  9.493918189E+01  2.357365445E+02  1.250000000E+02  0.00000E+00  9.000E+00
      25     1     1     2     0     0 -1.617052521E+02 -1.475565795E+02 -4.724645845E+02  5.355084652E+02  1.250000000E+02  0.00000E+00  9.000E+00
      21     1     1     2   512   502  3.313531765E+01  2.754390465E+01  9.188376113E+02  9.198473634E+02  0.000000000E+00  0.00000E+00  9.000E+00
#rwgt            1           1   3.5558352065207473E-002          10      481751           0
</event>
<event>
      5   9999 -3.79277E-02  7.90769E+01 -1.00000E+00  1.28594E-01
      21    -1     0     0   502   501  0.000000000E+00  0.000000000E+00  9.035280387E+01  9.035280387E+01  0.000000000E+00  0.00000E+00  9.000E+00
      21    -1     0     0   501   511  0.000000000E+00  0.000000000E+00 -1.408540050E+03  1.408540050E+03  0.000000000E+00  0.00000E+00  9.000E+00
      25     1     1     2     0     0 -2.037801420E+02  1.317673109E+01 -1.279808717E+02  2.714849462E+02  1.250000000E+02  0.00000E+00  9.000E+00
      25     1     1     2     0     0  1.629177987E+02 -8.087773128E+01 -8.606210899E+02  8.884689510E+02  1.250000000E+02  0.00000E+00  9.000E+00
      21     1     1     2   502   511  4.086234326E+01  6.770100019E+01 -3.295852850E+02  3.389389571E+02  3.814697266E-06  0.00000E+00  9.000E+00
#rwgt            1           1  -2.4942554390118953E-002          10      481857           0
</event>
<event>
      5   9999  3.79277E-02  5.58944E+01 -1.00000E+00  1.36369E-01
      21    -1     0     0   502   512  0.000000000E+00  0.000000000E+00  1.201435535E+02  1.201435535E+02  0.000000000E+00  0.00000E+00  9.000E+00
      21    -1     0     0   501   502  0.000000000E+00  0.000000000E+00 -6.097699012E+02  6.097699012E+02  0.000000000E+00  0.00000E+00  9.000E+00
      25     1     1     2     0     0 -5.203542104E+01  2.260342727E+02 -2.378028208E+02  3.549286676E+02  1.250000000E+02  0.00000E+00  9.000E+00
      25     1     1     2     0     0  6.156761267E+01 -1.709587023E+02 -2.153021709E+02  3.082166018E+02  1.250000000E+02  0.00000E+00  9.000E+00
      21     1     1     2   501   512 -9.532191631E+00 -5.507557042E+01 -3.652135607E+01  6.676818541E+01  9.536743164E-07  0.00000E+00  9.000E+00
#rwgt            1           1   3.0165126047953312E-002          10      481972           0
</event>
<event>
      5   9999  3.79277E-02  9.53712E+01 -1.00000E+00  1.24761E-01
      21    -1     0     0   502   501  0.000000000E+00  0.000000000E+00  1.153347760E+03  1.153347760E+03  0.000000000E+00  0.00000E+00  9.000E+00
       1    -1     0     0   501     0  0.000000000E+00  0.000000000E+00 -1.834500736E+03  1.834500736E+03  0.000000000E+00  0.00000E+00  9.000E+00
      25     1     1     2     0     0 -2.278176695E+02 -8.219162518E+01  4.325002459E+02  5.112121052E+02  1.250000000E+02  0.00000E+00  9.000E+00
      25     1     1     2     0     0  2.471543288E+02  1.755820229E+02  6.406712649E+02  7.197214591E+02  1.250000000E+02  0.00000E+00  9.000E+00
       1     1     1     2   502     0 -1.933665931E+01 -9.339039772E+01 -1.754324487E+03  1.756914932E+03  2.157918644E-05  0.00000E+00  9.000E+00
#rwgt            1           1   3.9237435877241850E-002          10      482051           0
</event>
<event>
      5   9999  3.79277E-02  9.28699E+00 -1.00000E+00  1.99546E-01
      21    -1     0     0   502   501  0.000000000E+00  0.000000000E+00  8.096417356E+01  8.096417356E+01  0.000000000E+00  0.00000E+00  9.000E+00
      21    -1     0     0   501   511  0.000000000E+00  0.000000000E+00 -5.257325009E+02  5.257325009E+02  0.000000000E+00  0.00000E+00  9.000E+00
      25     1     1     2     0     0 -8.700036746E+01  8.409726028E+01 -7.355364069E+01  1.888823739E+02  1.250000000E+02  0.00000E+00  9.000E+00
      25     1     1     2     0     0  9.628221770E+01 -8.440621278E+01 -3.282286134E+02  3.738364574E+02  1.250000000E+02  0.00000E+00  9.000E+00
      21     1     1     2   502   511 -9.281850239E+00  3.089524997E-01 -4.298607327E+01  4.397784318E+01  4.768371582E-07  0.00000E+00  9.000E+00
#rwgt            1           1   3.9387736906618752E-002          10      482370           0
</event>
<event>
      5   9999  3.79277E-02  1.65228E+02 -1.00000E+00  1.14753E-01
      21    -1     0     0   502   512  0.000000000E+00  0.000000000E+00  8.198001766E+02  8.198001766E+02  0.000000000E+00  0.00000E+00  9.000E+00
      21    -1     0     0   501   502  0.000000000E+00  0.000000000E+00 -2.671240419E+02  2.671240419E+02  0.000000000E+00  0.00000E+00  9.000E+00
      25     1     1     2     0     0  2.004407429E+02  1.745234210E+01 -1.064788757E+02  2.596994930E+02  1.250000000E+02  0.00000E+00  9.000E+00
      25     1     1     2     0     0 -1.709894464E+02  1.451295021E+02  1.626300271E+02  3.039300724E+02  1.250000000E+02  0.00000E+00  9.000E+00
      21     1     1     2   501   512 -2.945129649E+01 -1.625818442E+02  4.965249833E+02  5.232946531E+02  5.394796609E-06  0.00000E+00  9.000E+00
#rwgt            1           1   3.9331689514751210E-002          10      482624           0
</event>
<event>
      5   9999  3.79277E-02  1.06649E+02 -1.00000E+00  1.22583E-01
      21    -1     0     0   511   501  0.000000000E+00  0.000000000E+00  7.236298411E+02  7.236298411E+02  0.000000000E+00  0.00000E+00  9.000E+00
      21    -1     0     0   501   502  0.000000000E+00  0.000000000E+00 -8.694358558E+01  8.694358558E+01  0.000000000E+00  0.00000E+00  9.000E+00
      25     1     1     2     0     0  1.127786950E+01  9.697206127E+01  8.833741817E+01  1.815468823E+02  1.250000000E+02  0.00000E+00  9.000E+00
      25     1     1     2     0     0  9.150789375E+01 -1.254164628E+02  3.199698648E+02  3.769730735E+02  1.250000000E+02  0.00000E+00  9.000E+00
      21     1     1     2   511   502 -1.027857633E+02  2.844440154E+01  2.283789725E+02  2.520534709E+02  3.814697266E-06  0.00000E+00  9.000E+00
#rwgt            2          11   1.9234207705717537E-003          10      482751           0
</event>
<event>
      5   9999  3.79277E-02  6.91861E+01 -1.00000E+00  1.31478E-01
      21    -1     0     0   502   501  0.000000000E+00  0.000000000E+00  2.047297803E+02  2.047297803E+02  0.000000000E+00  0.00000E+00  9.000E+00
      21    -1     0     0   501   512  0.000000000E+00  0.000000000E+00 -3.030500500E+02  3.030500500E+02  0.000000000E+00  0.00000E+00  9.000E+00
      25     1     1     2     0     0 -1.303878249E+02  1.212481618E+02  3.748434177E+01  2.207536580E+02  1.250000000E+02  0.00000E+00  9.000E+00
      25     1     1     2     0     0  1.048351730E+02 -5.695373782E+01 -5.653728194E+01  1.818120073E+02  1.250000000E+02  0.00000E+00  9.000E+00
      21     1     1     2   502   512  2.555265191E+01 -6.429442403E+01 -7.926732960E+01  1.052141650E+02  9.536743164E-07  0.00000E+00  9.000E+00
#rwgt            1           1   3.9766168903230807E-002          10      482786           0
</event>
<event>
      5   9999  3.79277E-02  9.00877E+01 -1.00000E+00  1.25902E-01
      21    -1     0     0   502   501  0.000000000E+00  0.000000000E+00  1.185641839E+02  1.185641839E+02  0.000000000E+00  0.00000E+00  9.000E+00
      21    -1     0     0   501   511  0.000000000E+00  0.000000000E+00 -4.207790939E+02  4.207790939E+02  0.000000000E+00  0.00000E+00  9.000E+00
      25     1     1     2     0     0  1.079289803E+02  3.370893052E+00 -1.727027652E+02  2.389796494E+02  1.250000000E+02  0.00000E+00  9.000E+00
      25     1     1     2     0     0 -5.557831745E+01  6.994492371E+01 -1.458192763E+01  1.543336462E+02  1.250000000E+02  0.00000E+00  9.000E+00
      21     1     1     2   502   511 -5.235066283E+01 -7.331581676E+01 -1.149302172E+02  1.460299823E+02  0.000000000E+00  0.00000E+00  9.000E+00
#rwgt            1           1   4.1050964940540308E-002          10      483000           0
</event>
<event>
      5   9999  3.79277E-02  3.90599E+01 -1.00000E+00  1.45484E-01
      21    -1     0     0   502   501  0.000000000E+00  0.000000000E+00  2.083859261E+02  2.083859261E+02  0.000000000E+00  0.00000E+00  9.000E+00
      21    -1     0     0   501   512  0.000000000E+00  0.000000000E+00 -6.677888917E+02  6.677888917E+02  0.000000000E+00  0.00000E+00  9.000E+00
      25     1     1     2     0     0  1.994061226E+02  1.684330074E+02 -3.594954229E+01  2.916330730E+02  1.250000000E+02  0.00000E+00  9.000E+00
      25     1     1     2     0     0 -1.754636064E+02 -1.992944609E+02 -1.940403375E+02  3.518272472E+02  1.250000000E+02  0.00000E+00  9.000E+00
      21     1     1     2   502   512 -2.394251615E+01  3.086145349E+01 -2.294130858E+02  2.327144974E+02  0.000000000E+00  0.00000E+00  9.000E+00
#rwgt            1           1   2.0463191781835983E-002          10      483070           0
</event>
<event>
      5   9999  3.79277E-02  3.87704E+01 -1.00000E+00  1.45686E-01
      21    -1     0     0   502   501  0.000000000E+00  0.000000000E+00  1.303538064E+03  1.303538064E+03  0.000000000E+00  0.00000E+00  9.000E+00
      21    -1     0     0   501   511  0.000000000E+00  0.000000000E+00 -1.872670017E+02  1.872670017E+02  0.000000000E+00  0.00000E+00  9.000E+00
      25     1     1     2     0     0 -1.719234920E+02  2.258693306E+02  2.582818740E+02  4.036200789E+02  1.250000000E+02  0.00000E+00  9.000E+00
      25     1     1     2     0     0  1.395208304E+02 -2.471581417E+02  9.435717973E+02  9.932300568E+02  1.250000000E+02  0.00000E+00  9.000E+00
      21     1     1     2   502   511  3.240266165E+01  2.128881109E+01 -8.558260883E+01  9.395493012E+01  1.348699152E-06  0.00000E+00  9.000E+00
#rwgt            1           1   3.4384054133413375E-002          10      483268           0
</event>
<event>
      5   9999  3.79277E-02  2.16609E+01 -1.00000E+00  1.63560E-01
      21    -1     0     0   502   501  0.000000000E+00  0.000000000E+00  3.330596533E+02  3.330596533E+02  0.000000000E+00  0.00000E+00  9.000E+00
      21    -1     0     0   501   512  0.000000000E+00  0.000000000E+00 -1.287931768E+02  1.287931768E+02  0.000000000E+00  0.00000E+00  9.000E+00
      25     1     1     2     0     0  3.842671722E+01 -1.232722159E+02  1.923604104E+02  2.632492721E+02  1.250000000E+02  0.00000E+00  9.000E+00
      25     1     1     2     0     0 -1.857400630E+01  1.146083227E+02  2.627012012E+01  1.726128053E+02  1.250000000E+02  0.00000E+00  9.000E+00
      21     1     1     2   502   512 -1.985271092E+01  8.663893225E+00 -1.436405398E+01  2.599075265E+01  2.384185791E-07  0.00000E+00  9.000E+00
#rwgt            1           1   3.6455890466848266E-002          10      483422           0
</event>
<event>
      5   9999  3.79277E-02  3.04199E+02 -1.00000E+00  1.05396E-01
      21    -1     0     0   502   501  0.000000000E+00  0.000000000E+00  1.235737872E+03  1.235737872E+03  0.000000000E+00  0.00000E+00  9.000E+00
      21    -1     0     0   501   511  0.000000000E+00  0.000000000E+00 -1.944582922E+02  1.944582922E+02  0.000000000E+00  0.00000E+00  9.000E+00
      25     1     1     2     0     0  2.595327814E+02 -6.755923191E+01  8.064079563E+02  8.589763130E+02  1.250000000E+02  0.00000E+00  9.000E+00
      25     1     1     2     0     0 -2.282210397E+01 -1.235045843E+02  1.965210477E+02  2.646124581E+02  1.250000000E+02  0.00000E+00  9.000E+00
      21     1     1     2   502   511 -2.367106775E+02  1.910638162E+02  3.835057558E+01  3.066073928E+02  3.504023184E-06  0.00000E+00  9.000E+00
#rwgt            2          11   1.5101805772167632E-003          10      483592           0
</event>
<event>
      5   9999  3.79277E-02  5.25042E+01 -1.00000E+00  1.37875E-01
      21    -1     0     0   512   501  0.000000000E+00  0.000000000E+00  3.402677235E+02  3.402677235E+02  0.000000000E+00  0.00000E+00  9.000E+00
      21    -1     0     0   501   502  0.000000000E+00  0.000000000E+00 -1.491623199E+02  1.491623199E+02  0.000000000E+00  0.00000E+00  9.000E+00
      25     1     1     2     0     0  7.133435793E+01  1.251737268E+02  9.887817347E+01  2.148463304E+02  1.250000000E+02  0.00000E+00  9.000E+00
      25     1     1     2     0     0 -3.015294262E+01 -1.577433917E+02  5.695482967E+01  2.113315646E+02  1.250000000E+02  0.00000E+00  9.000E+00
      21     1     1     2   512   502 -4.118141532E+01  3.256966495E+01  3.527240041E+01  6.325214837E+01  0.000000000E+00  0.00000E+00  9.000E+00
#rwgt            1           1   2.3506732279629360E-002          10      483687           0
</event>
<event>
      5   9999  3.79277E-02  3.56796E+01 -1.00000E+00  1.47987E-01
      21    -1     0     0   502   501  0.000000000E+00  0.000000000E+00  4.224965584E+01  4.224965584E+01  0.000000000E+00  0.00000E+00  9.000E+00
      21    -1     0     0   501   511  0.000000000E+00  0.000000000E+00 -2.143999878E+03  2.143999878E+03  0.000000000E+00  0.00000E+00  9.000E+00
      25     1     1     2     0     0 -3.878326048E+01  1.112554374E+02 -1.888115689E+02  2.552581482E+02  1.250000000E+02  0.00000E+00  9.000E+00
      25     1     1     2     0     0  3.648146278E+01 -1.468607157E+02 -1.107152182E+03  1.124415369E+03  1.250000000E+02  0.00000E+00  9.000E+00
      21     1     1     2   502   511  2.301797699E+00  3.560527829E+01 -8.057864716E+02  8.065760174E+02  1.078959322E-05  0.00000E+00  9.000E+00
#rwgt            1           1   3.9052656438881325E-002          10      483877           0
</event>
<event>
      5   9999  3.79277E-02  8.13420E+00 -1.00000E+00  2.06730E-01
      21    -1     0     0   502   501  0.000000000E+00  0.000000000E+00  7.670504286E+02  7.670504286E+02  0.000000000E+00  0.00000E+00  9.000E+00
      21    -1     0     0   501   512  0.000000000E+00  0.000000000E+00 -7.614888756E+01  7.614888756E+01  0.000000000E+00  0.00000E+00  9.000E+00
      25     1     1     2     0     0 -1.481586697E+02 -1.031273376E+02  4.217755434E+02  4.755058866E+02  1.250000000E+02  0.00000E+00  9.000E+00
      25     1     1     2     0     0  1.522049027E+02  1.101837685E+02  2.763650548E+02  3.568044825E+02  1.250000000E+02  0.00000E+00  9.000E+00
      21     1     1     2   502   512 -4.046233016E+00 -7.056430903E+00 -7.239057155E+00  1.088894702E+01  1.460009660E-07  0.00000E+00  9.000E+00
#rwgt            1           1   2.2145796208673331E-002          10      483998           0
</event>
<event>
      5   9999  3.79277E-02  6.79535E+01 -1.00000E+00  1.31877E-01
      21    -1     0     0   502   511  0.000000000E+00  0.000000000E+00  5.332032598E+02  5.332032598E+02  0.000000000E+00  0.00000E+00  9.000E+00
      21    -1     0     0   501   502  0.000000000E+00  0.000000000E+00 -2.668979873E+02  2.668979873E+02  0.000000000E+00  0.00000E+00  9.000E+00
      25     1     1     2     0     0 -1.000895501E+02 -1.943996514E+01 -2.141136149E+02  2.680773589E+02  1.250000000E+02  0.00000E+00  9.000E+00
      25     1     1     2     0     0  6.582947386E+01 -3.924502043E+01  2.317595477E+02  2.742465664E+02  1.250000000E+02  0.00000E+00  9.000E+00
      21     1     1     2   501   511  3.426007626E+01  5.868498558E+01  2.486593397E+02  2.577773217E+02  2.697398305E-06  0.00000E+00  9.000E+00
#rwgt            1           1   3.3087304193571823E-002          10      484487           0
</event>
<event>
      5   9999  3.79277E-02  6.84329E+01 -1.00000E+00  1.31721E-01
       5    -1     0     0   502     0  0.000000000E+00  0.000000000E+00  1.739015166E+02  1.739015166E+02  0.000000000E+00  0.00000E+00  9.000E+00
      21    -1     0     0   501   502  0.000000000E+00  0.000000000E+00 -1.555651060E+03  1.555651060E+03  0.000000000E+00  0.00000E+00  9.000E+00
      25     1     1     2     0     0  1.410144222E+02  1.170077626E+02 -1.056600476E+03  1.079632090E+03  1.250000000E+02  0.00000E+00  9.000E+00
      25     1     1     2     0     0 -1.436206297E+02 -4.862455027E+01 -4.591622740E+02  4.994459191E+02  1.250000000E+02  0.00000E+00  9.000E+00
       5     1     1     2   501     0  2.606207515E+00 -6.838321232E+01  1.340132064E+02  1.504745678E+02  1.907348633E-06  0.00000E+00  9.000E+00
#rwgt            1           1   4.7458969180771908E-002          10      484579           0
</event>
<event>
      5   9999  3.79277E-02  6.46586E+01 -1.00000E+00  1.32991E-01
       2    -1     0     0   502     0  0.000000000E+00  0.000000000E+00  2.026945009E+03  2.026945009E+03  0.000000000E+00  0.00000E+00  9.000E+00
      21    -1     0     0   501   502  0.000000000E+00  0.000000000E+00 -2.665961163E+02  2.665961163E+02  0.000000000E+00  0.00000E+00  9.000E+00
      25     1     1     2     0     0 -1.036333452E+02  8.354190562E+01 -2.171308783E+01  1.838901259E+02  1.250000000E+02  0.00000E+00  9.000E+00
      25     1     1     2     0     0  1.658666355E+02 -6.599891954E+01 -9.050065224E+01  2.359723844E+02  1.250000000E+02  0.00000E+00  9.000E+00
       2     1     1     2   501     0 -6.223329032E+01 -1.754298609E+01  1.872562633E+03  1.873678615E+03  3.051757812E-05  0.00000E+00  9.000E+00
#rwgt            1           1   2.9285092037552939E-002          10      484727           0
</event>
<event>
      5   9999  3.79277E-02  7.84126E+01 -1.00000E+00  1.28772E-01
      21    -1     0     0   502   511  0.000000000E+00  0.000000000E+00  3.760798631E+01  3.760798631E+01  0.000000000E+00  0.00000E+00  9.000E+00
      21    -1     0     0   501   502  0.000000000E+00  0.000000000E+00 -2.687812240E+03  2.687812240E+03  0.000000000E+00  0.00000E+00  9.000E+00
      25     1     1     2     0     0  8.206924296E+01  1.187591543E+02 -4.570285646E+02  4.953172783E+02  1.250000000E+02  0.00000E+00  9.000E+00
      25     1     1     2     0     0 -4.061584475E+01 -5.219980415E+01 -2.113808074E+03  2.118533465E+03  1.250000000E+02  0.00000E+00  9.000E+00
      21     1     1     2   501   511 -4.145339821E+01 -6.655935014E+01 -7.936761502E+01  1.115694834E+02  4.046097457E-06  0.00000E+00  9.000E+00
#rwgt            1           1   6.6184989591465557E-002          10      484834           0
</event>
<event>
      5   9999  3.79277E-02  6.88022E+01 -1.00000E+00  1.31601E-01
      21    -1     0     0   502   501  0.000000000E+00  0.000000000E+00  9.702066050E+02  9.702066050E+02  0.000000000E+00  0.00000E+00  9.000E+00
      21    -1     0     0   512   502  0.000000000E+00  0.000000000E+00 -1.261773681E+02  1.261773681E+02  0.000000000E+00  0.00000E+00  9.000E+00
      25     1     1     2     0     0 -1.455605812E+02 -2.597522795E+02  3.725896880E+02  4.930590280E+02  1.250000000E+02  0.00000E+00  9.000E+00
      25     1     1     2     0     0  1.540306038E+02  1.914733944E+02  4.559111276E+02  5.327921207E+02  1.250000000E+02  0.00000E+00  9.000E+00
      21     1     1     2   512   501 -8.470022558E+00  6.827888512E+01  1.552842130E+01  7.053282429E+01  1.261592536E-06  0.00000E+00  9.000E+00
#rwgt            1           1  0.10164228508285589               10      484956           0
</event>
<event>
      5   9999  3.79277E-02  1.48392E+01 -1.00000E+00  1.77826E-01
      21    -1     0     0   511   501  0.000000000E+00  0.000000000E+00  1.323094979E+03  1.323094979E+03  0.000000000E+00  0.00000E+00  9.000E+00
      21    -1     0     0   501   502  0.000000000E+00  0.000000000E+00 -6.849796868E+01  6.849796868E+01  0.000000000E+00  0.00000E+00  9.000E+00
      25     1     1     2     0     0  1.008270807E+02  5.797320003E+01  7.579330593E+01  1.868063632E+02  1.250000000E+02  0.00000E+00  9.000E+00
      25     1     1     2     0     0 -8.625191009E+01 -5.518646429E+01  4.926556674E+02  5.184781042E+02  1.250000000E+02  0.00000E+00  9.000E+00
      21     1     1     2   511   502 -1.457517061E+01 -2.786735742E+00  6.861480371E+02  6.863084804E+02  7.629394531E-06  0.00000E+00  9.000E+00
#rwgt            1           1   4.6021074672025895E-002          10      485009           0
</event>
<event>
      5   9999  3.79277E-02  4.18111E+01 -1.00000E+00  1.43657E-01
      21    -1     0     0   502   512  0.000000000E+00  0.000000000E+00  1.604271456E+02  1.604271456E+02  0.000000000E+00  0.00000E+00  9.000E+00
      21    -1     0     0   501   502  0.000000000E+00  0.000000000E+00 -7.707477971E+02  7.707477971E+02  0.000000000E+00  0.00000E+00  9.000E+00
      25     1     1     2     0     0  1.287423440E+02 -1.610387961E+02 -2.998269349E+02  3.847457289E+02  1.250000000E+02  0.00000E+00  9.000E+00
      25     1     1     2     0     0 -8.753151487E+01  1.539792252E+02 -3.958828440E+02  4.513530703E+02  1.250000000E+02  0.00000E+00  9.000E+00
      21     1     1     2   501   512 -4.121082918E+01  7.059570938E+00  8.538912743E+01  9.507614352E+01  2.523185073E-06  0.00000E+00  9.000E+00
#rwgt            1           1   3.3767489289692205E-002          10      485277           0
</event>
<event>
      5   9999  3.79277E-02  5.72007E+01 -1.00000E+00  1.35822E-01
      21    -1     0     0   502   511  0.000000000E+00  0.000000000E+00  4.866509899E+02  4.866509899E+02  0.000000000E+00  0.00000E+00  9.000E+00
      21    -1     0     0   501   502  0.000000000E+00  0.000000000E+00 -2.515415163E+02  2.515415163E+02  0.000000000E+00  0.00000E+00  9.000E+00
      25     1     1     2     0     0  1.109323621E+02 -4.231700158E+01 -1.443354120E+02  2.248431203E+02  1.250000000E+02  0.00000E+00  9.000E+00
      25     1     1     2     0     0 -1.223183292E+02  9.837304164E+01  9.284623917E+01  2.210982883E+02  1.250000000E+02  0.00000E+00  9.000E+00
      21     1     1     2   501   511  1.138596708E+01 -5.605604007E+01  2.865986464E+02  2.922510975E+02  3.814697266E-06  0.00000E+00  9.000E+00
#rwgt            1           1  0.10697209432317895               10      485376           0
</event>
<event>
      5   9999  3.79277E-02  1.02117E+01 -1.00000E+00  1.94711E-01
      21    -1     0     0   502   512  0.000000000E+00  0.000000000E+00  6.651772157E+01  6.651772157E+01  0.000000000E+00  0.00000E+00  9.000E+00
      21    -1     0     0   501   502  0.000000000E+00  0.000000000E+00 -1.116584810E+03  1.116584810E+03  0.000000000E+00  0.00000E+00  9.000E+00
      25     1     1     2     0     0 -2.001765092E+02 -7.028845875E+01 -3.952350784E+02  4.656681968E+02  1.250000000E+02  0.00000E+00  9.000E+00
      25     1     1     2     0     0  2.030111395E+02  6.047806119E+01 -6.611551530E+02  7.054234579E+02  1.250000000E+02  0.00000E+00  9.000E+00
      21     1     1     2   501   512 -2.834630324E+00  9.810397557E+00  6.323142912E+00  1.201087697E+01  6.529361695E-07  0.00000E+00  9.000E+00
#rwgt            1           1   3.3993594225016535E-002          10      485508           0
</event>
<event>
      5   9999  3.79277E-02  7.63431E+01 -1.00000E+00  1.29341E-01
       2    -1     0     0   502     0  0.000000000E+00  0.000000000E+00  1.647760655E+03  1.647760655E+03  0.000000000E+00  0.00000E+00  9.000E+00
      21    -1     0     0   501   502  0.000000000E+00  0.000000000E+00 -3.538912587E+01  3.538912587E+01  0.000000000E+00  0.00000E+00  9.000E+00
      25     1     1     2     0     0 -9.042180007E+01  5.281503644E+01  2.106797473E+02  2.664141249E+02  1.250000000E+02  0.00000E+00  9.000E+00
      25     1     1     2     0     0  1.807728827E+01 -2.843184578E+01  9.037719599E+02  9.129972145E+02  1.250000000E+02  0.00000E+00  9.000E+00
       2     1     1     2   501     0  7.234451180E+01 -2.438319066E+01  4.979198219E+02  5.037384415E+02  7.629394531E-06  0.00000E+00  9.000E+00
#rwgt            1           1   2.5821948656173294E-002          10      485793           0
</event>
<event>
      5   9999  3.79277E-02  5.97881E+01 -1.00000E+00  1.34786E-01
      21    -1     0     0   502   501  0.000000000E+00  0.000000000E+00  3.797247210E+02  3.797247210E+02  0.000000000E+00  0.00000E+00  9.000E+00
      21    -1     0     0   501   511  0.000000000E+00  0.000000000E+00 -3.210652821E+02  3.210652821E+02  0.000000000E+00  0.00000E+00  9.000E+00
      25     1     1     2     0     0  7.718199001E+01 -1.556461423E+02  2.752729251E+02  3.486874883E+02  1.250000000E+02  0.00000E+00  9.000E+00
      25     1     1     2     0     0 -1.200713571E+02  1.139914326E+02 -2.040967151E+02  2.910182926E+02  1.250000000E+02  0.00000E+00  9.000E+00
      21     1     1     2   502   511  4.288936707E+01  4.165470970E+01 -1.251677105E+01  6.108422223E+01  1.192092896E-06  0.00000E+00  9.000E+00
#rwgt            1           1   4.4923683142666496E-002          10      485872           0
</event>
<event>
      5   9999  3.79277E-02  8.97049E+01 -1.00000E+00  1.25988E-01
      21    -1     0     0   502   501  0.000000000E+00  0.000000000E+00  1.479436141E+02  1.479436141E+02  0.000000000E+00  0.00000E+00  9.000E+00
      21    -1     0     0   512   502  0.000000000E+00  0.000000000E+00 -5.314707195E+02  5.314707195E+02  0.000000000E+00  0.00000E+00  9.000E+00
      25     1     1     2     0     0 -1.345680620E+01 -1.860831198E+02 -1.077901966E+02  2.491018659E+02  1.250000000E+02  0.00000E+00  9.000E+00
      25     1     1     2     0     0  8.830172340E+01  1.366340981E+02 -8.997186979E+01  2.240223392E+02  1.250000000E+02  0.00000E+00  9.000E+00
      21     1     1     2   512   501 -7.484491719E+01  4.944902165E+01 -1.857650390E+02  2.062901284E+02  0.000000000E+00  0.00000E+00  9.000E+00
#rwgt            1           1   3.9276086859750474E-002          10      486037           0
</event>
<event>
      5   9999  3.79277E-02  3.90651E+01 -1.00000E+00  1.45480E-01
      21    -1     0     0   502   501  0.000000000E+00  0.000000000E+00  2.705859270E+02  2.705859270E+02  0.000000000E+00  0.00000E+00  9.000E+00
      21    -1     0     0   511   502  0.000000000E+00  0.000000000E+00 -3.546787223E+02  3.546787223E+02  0.000000000E+00  0.00000E+00  9.000E+00
      25     1     1     2     0     0  9.733039190E+01  1.813359208E+02 -1.210864498E+02  2.695233750E+02  1.250000000E+02  0.00000E+00  9.000E+00
      25     1     1     2     0     0 -1.051347341E+02 -1.430583121E+02  1.312476834E+02  2.537123320E+02  1.250000000E+02  0.00000E+00  9.000E+00
      21     1     1     2   511   501  7.804342233E+00 -3.827760869E+01 -9.425402898E+01  1.020289423E+02  1.348699152E-06  0.00000E+00  9.000E+00
#rwgt            1           1   4.5111322513095992E-002          10      486132           0
</event>
<event>
      5   9999  3.79277E-02  4.88230E+01 -1.00000E+00  1.39668E-01
       2    -1     0     0   502     0  0.000000000E+00  0.000000000E+00  2.101462223E+03  2.101462223E+03  0.000000000E+00  0.00000E+00  9.000E+00
      21    -1     0     0   501   502  0.000000000E+00  0.000000000E+00 -4.185253268E+02  4.185253268E+02  0.000000000E+00  0.00000E+00  9.000E+00
      25     1     1     2     0     0 -1.737675205E+01  3.205847614E+01 -3.249452820E+02  3.500630424E+02  1.250000000E+02  0.00000E+00  9.000E+00
      25     1     1     2     0     0  6.537194148E+01 -2.310620059E+01 -1.745076591E+01  1.440031822E+02  1.250000000E+02  0.00000E+00  9.000E+00
       2     1     1     2   501     0 -4.799518944E+01 -8.952275553E+00  2.025332944E+03  2.025921325E+03  2.157918644E-05  0.00000E+00  9.000E+00
#rwgt            1           1   4.1822175216203752E-002          10      486431           0
</event>
<event>
      5   9999  3.79277E-02  2.09306E+01 -1.00000E+00  1.64756E-01
      21    -1     0     0   502   501  0.000000000E+00  0.000000000E+00  2.337365312E+03  2.337365312E+03  0.000000000E+00  0.00000E+00  9.000E+00
      21    -1     0     0   511   502  0.000000000E+00  0.000000000E+00 -7.046850902E+02  7.046850902E+02  0.000000000E+00  0.00000E+00  9.000E+00
      25     1     1     2     0     0 -3.901431492E-01 -1.206470668E+02  1.480640213E+03  1.490797206E+03  1.250000000E+02  0.00000E+00  9.000E+00
      25     1     1     2     0     0 -2.757590620E+00  9.995447422E+01  8.439652009E+02  8.590115025E+02  1.250000000E+02  0.00000E+00  9.000E+00
      21     1     1     2   511   501  3.147733769E+00  2.069259262E+01 -6.919251922E+02  6.922416943E+02  1.705984480E-05  0.00000E+00  9.000E+00
#rwgt            1           1   8.1929198640877138E-002          10      486539           0
</event>
<event>
      5   9999  3.79277E-02  2.86513E+01 -1.00000E+00  1.54440E-01
      21    -1     0     0   502   501  0.000000000E+00  0.000000000E+00  2.771719894E+02  2.771719894E+02  0.000000000E+00  0.00000E+00  9.000E+00
      21    -1     0     0   512   502  0.000000000E+00  0.000000000E+00 -2.024279992E+02  2.024279992E+02  0.000000000E+00  0.00000E+00  9.000E+00
      25     1     1     2     0     0  7.755298872E+01  1.373296015E+02  8.994502581E+01  2.204291115E+02  1.250000000E+02  0.00000E+00  9.000E+00
      25     1     1     2     0     0 -7.229577884E+01 -1.091647401E+02  5.012939835E+01  1.878339072E+02  1.250000000E+02  0.00000E+00  9.000E+00
      21     1     1     2   512   501 -5.257209882E+00 -2.816486146E+01 -6.533043400E+01  7.133696996E+01  9.536743164E-07  0.00000E+00  9.000E+00
#rwgt            1           1   4.1790423998075588E-002          10      486786           0
</event>
<event>
      5   9999  3.79277E-02  4.09453E+01 -1.00000E+00  1.44214E-01
      21    -1     0     0   502   501  0.000000000E+00  0.000000000E+00  1.474411228E+02  1.474411228E+02  0.000000000E+00  0.00000E+00  9.000E+00
      21    -1     0     0   501   511  0.000000000E+00  0.000000000E+00 -2.732336793E+02  2.732336793E+02  0.000000000E+00  0.00000E+00  9.000E+00
      25     1     1     2     0     0 -9.596809621E+01 -2.222377828E+01  6.825595617E+00  1.592964550E+02  1.250000000E+02  0.00000E+00  9.000E+00
      25     1     1     2     0     0  1.188977054E+02  5.614650628E+01 -9.088884120E+01  2.029159333E+02  1.250000000E+02  0.00000E+00  9.000E+00
      21     1     1     2   502   511 -2.292960918E+01 -3.392272799E+01 -4.172931088E+01  5.846241389E+01  1.066240300E-06  0.00000E+00  9.000E+00
#rwgt            1           1   4.3892379332541615E-002          10      486882           0
</event>
<event>
      5   9999 -3.79277E-02  1.35514E+02 -1.00000E+00  1.18169E-01
       1    -1     0     0   502     0  0.000000000E+00  0.000000000E+00  6.752197778E+02  6.752197778E+02  0.000000000E+00  0.00000E+00  9.000E+00
      21    -1     0     0   501   502  0.000000000E+00  0.000000000E+00 -3.200770717E+02  3.200770717E+02  0.000000000E+00  0.00000E+00  9.000E+00
      25     1     1     2     0     0  1.337606437E+02 -7.740163979E+01 -2.351966062E+02  3.079372780E+02  1.250000000E+02  0.00000E+00  9.000E+00
      25     1     1     2     0     0 -5.447256423E+01 -3.249530169E+01  8.447548905E+01  1.636591370E+02  1.250000000E+02  0.00000E+00  9.000E+00
       1     1     1     2   501     0 -7.928807946E+01  1.098969415E+02  5.058638232E+02  5.237004344E+02  5.394796609E-06  0.00000E+00  9.000E+00
#rwgt            1           1  -3.5633015617076810E-002          10      487013           0
</event>
<event>
      5   9999 -3.79277E-02  3.20916E+01 -1.00000E+00  1.51034E-01
      21    -1     0     0   502   501  0.000000000E+00  0.000000000E+00  1.588577240E+03  1.588577240E+03  0.000000000E+00  0.00000E+00  9.000E+00
      21    -1     0     0   511   502  0.000000000E+00  0.000000000E+00 -4.342488099E+01  4.342488099E+01  0.000000000E+00  0.00000E+00  9.000E+00
      25     1     1     2     0     0 -9.078597616E+01  2.330758080E+01  6.631970401E+02  6.813520755E+02  1.250000000E+02  0.00000E+00  9.000E+00
      25     1     1     2     0     0  8.399517304E+01 -5.467243427E+01  8.997852049E+02  9.139380062E+02  1.250000000E+02  0.00000E+00  9.000E+00
      21     1     1     2   511   501  6.790803112E+00  3.136485347E+01 -1.782988560E+01  3.671203972E+01  1.390207266E-06  0.00000E+00  9.000E+00
#rwgt            1           1  -7.3390801647898976E-002          10      487105           0
</event>
<event>
      5   9999  3.79277E-02  4.05956E+01 -1.00000E+00  1.44443E-01
      21    -1     0     0   502   501  0.000000000E+00  0.000000000E+00  1.236335002E+02  1.236335002E+02  0.000000000E+00  0.00000E+00  9.000E+00
      -2    -1     0     0     0   502  0.000000000E+00  0.000000000E+00 -8.237783040E+02  8.237783040E+02  0.000000000E+00  0.00000E+00  9.000E+00
      25     1     1     2     0     0 -5.895084457E+01 -1.269820290E+02 -2.557570599E+01  1.894168802E+02  1.250000000E+02  0.00000E+00  9.000E+00
      25     1     1     2     0     0  2.319459609E+01  1.462042572E+02 -1.887769984E+02  2.705095733E+02  1.250000000E+02  0.00000E+00  9.000E+00
      -2     1     1     2     0   501  3.575624849E+01 -1.922222816E+01 -4.857920994E+02  4.874853507E+02  5.394796609E-06  0.00000E+00  9.000E+00
#rwgt            1           1   3.7938485382984721E-002          10      487208           0
</event>
<event>
      5   9999  3.79277E-02  1.84192E+02 -1.00000E+00  1.12966E-01
      21    -1     0     0   502   511  0.000000000E+00  0.000000000E+00  4.651363916E+02  4.651363916E+02  0.000000000E+00  0.00000E+00  9.000E+00
      21    -1     0     0   501   502  0.000000000E+00  0.000000000E+00 -4.161887539E+02  4.161887539E+02  0.000000000E+00  0.00000E+00  9.000E+00
      25     1     1     2     0     0  1.177234463E+02  2.088734133E+01 -7.247128904E+01  1.875424714E+02  1.250000000E+02  0.00000E+00  9.000E+00
      25     1     1     2     0     0 -1.916900274E+02 -1.895750149E+02 -1.749481132E+02  3.448414059E+02  1.250000000E+02  0.00000E+00  9.000E+00
      21     1     1     2   501   511  7.396658109E+01  1.686876736E+02  2.963670400E+02  3.489412683E+02  3.814697266E-06  0.00000E+00  9.000E+00
#rwgt            1           1   3.5617024422517136E-002          10      487322           0
</event>
<event>
      5   9999  3.79277E-02  3.65718E+01 -1.00000E+00  1.47296E-01
      21    -1     0     0   502   512  0.000000000E+00  0.000000000E+00  4.706334927E+02  4.706334927E+02  0.000000000E+00  0.00000E+00  9.000E+00
      21    -1     0     0   501   502  0.000000000E+00  0.000000000E+00 -5.068717427E+02  5.068717427E+02  0.000000000E+00  0.00000E+00  9.000E+00
      25     1     1     2     0     0  1.761080194E+02 -1.648341122E+02 -3.704857436E+02  4.594224693E+02  1.250000000E+02  0.00000E+00  9.000E+00
      25     1     1     2     0     0 -1.983966407E+02  1.938292192E+02  1.673401171E+02  3.472156506E+02  1.250000000E+02  0.00000E+00  9.000E+00
      21     1     1     2   501   512  2.228862134E+01 -2.899510691E+01  1.669073764E+02  1.708671155E+02  1.907348633E-06  0.00000E+00  9.000E+00
#rwgt            1           1   5.9968279227590127E-002          10      487362           0
</event>
<event>
      5   9999 -3.79277E-02  3.32739E+01 -1.00000E+00  1.49980E-01
      -1    -1     0     0     0   501  0.000000000E+00  0.000000000E+00  8.533783254E+02  8.533783254E+02  0.000000000E+00  0.00000E+00  9.000E+00
      21    -1     0     0   501   502  0.000000000E+00  0.000000000E+00 -1.177924313E+02  1.177924313E+02  0.000000000E+00  0.00000E+00  9.000E+00
      25     1     1     2     0     0 -2.008133546E+02  2.091671793E+01  1.711309452E+02  2.927017473E+02  1.250000000E+02  0.00000E+00  9.000E+00
      25     1     1     2     0     0  2.069600077E+02  1.178456628E+01  2.042328303E+02  3.167133874E+02  1.250000000E+02  0.00000E+00  9.000E+00
      -1     1     1     2     0   502 -6.146653117E+00 -3.270128421E+01  3.602221186E+02  3.617556221E+02  5.394796609E-06  0.00000E+00  9.000E+00
#rwgt            1           1  -4.7297891356321342E-002          10      487464           0
</event>
<event>
      5   9999  3.79277E-02  1.47227E+02 -1.00000E+00  1.16716E-01
      21    -1     0     0   502   501  0.000000000E+00  0.000000000E+00  2.257914503E+02  2.257914503E+02  0.000000000E+00  0.00000E+00  9.000E+00
       2    -1     0     0   501     0  0.000000000E+00  0.000000000E+00 -8.957329624E+02  8.957329624E+02  0.000000000E+00  0.00000E+00  9.000E+00
      25     1     1     2     0     0 -1.691001522E+02  1.729183842E+01 -1.728609412E+02  2.727632200E+02  1.250000000E+02  0.00000E+00  9.000E+00
      25     1     1     2     0     0  5.081969145E+01  7.037580234E+01  1.327523678E+02  2.019494634E+02  1.250000000E+02  0.00000E+00  9.000E+00
       2     1     1     2   502     0  1.182804608E+02 -8.766764076E+01 -6.298329386E+02  6.468117293E+02  7.629394531E-06  0.00000E+00  9.000E+00
#rwgt            1           1   4.2852922408853626E-002          10      487644           0
</event>
<event>
      5   9999  3.79277E-02  4.82529E+01 -1.00000E+00  1.39963E-01
      21    -1     0     0   502   501  0.000000000E+00  0.000000000E+00  6.941581295E+01  6.941581295E+01  0.000000000E+00  0.00000E+00  9.000E+00
      21    -1     0     0   511   502  0.000000000E+00  0.000000000E+00 -1.385781607E+03  1.385781607E+03  0.000000000E+00  0.00000E+00  9.000E+00
      25     1     1     2     0     0  1.597778013E+01  1.957816404E+02 -6.506620641E+02  6.910657435E+02  1.250000000E+02  0.00000E+00  9.000E+00
      25     1     1     2     0     0 -6.297736398E+01 -2.067079189E+02 -2.788010900E+02  3.742316928E+02  1.250000000E+02  0.00000E+00  9.000E+00
      21     1     1     2   511   501  4.699958386E+01  1.092627848E+01 -3.869026397E+02  3.898999834E+02  0.000000000E+00  0.00000E+00  9.000E+00
#rwgt            1           1   3.8519726343369774E-002          10      487771           0
</event>
<event>
      5   9999  3.79277E-02  4.08098E+01 -1.00000E+00  1.44302E-01
      21    -1     0     0   502   501  0.000000000E+00  0.000000000E+00  3.411830811E+02  3.411830811E+02  0.000000000E+00  0.00000E+00  9.000E+00
      21    -1     0     0   501   512  0.000000000E+00  0.000000000E+00 -3.718366112E+02  3.718366112E+02  0.000000000E+00  0.00000E+00  9.000E+00
      25     1     1     2     0     0 -1.296425197E+02  2.026450615E+02  1.598149206E+02  3.147030548E+02  1.250000000E+02  0.00000E+00  9.000E+00
      25     1     1     2     0     0  1.443706357E+02 -2.407045038E+02 -1.544788963E+02  3.439044461E+02  1.250000000E+02  0.00000E+00  9.000E+00
      21     1     1     2   502   512 -1.472811607E+01  3.805944231E+01 -3.598955439E+01  5.441219144E+01  4.768371582E-07  0.00000E+00  9.000E+00
#rwgt            1           1   1.8888676244398807E-002          10      487907           0
</event>
<event>
      5   9999  3.79277E-02  5.93709E+01 -1.00000E+00  1.34948E-01
      21    -1     0     0   511   501  0.000000000E+00  0.000000000E+00  2.167025067E+02  2.167025067E+02  0.000000000E+00  0.00000E+00  9.000E+00
      21    -1     0     0   501   502  0.000000000E+00  0.000000000E+00 -2.993714479E+02  2.993714479E+02  0.000000000E+00  0.00000E+00  9.000E+00
      25     1     1     2     0     0  7.537879999E+00 -1.715167606E+02 -1.358579209E+02  2.521055205E+02  1.250000000E+02  0.00000E+00  9.000E+00
      25     1     1     2     0     0  4.312210185E+01  1.405575547E+02  1.540245001E+01  1.935928132E+02  1.250000000E+02  0.00000E+00  9.000E+00
      21     1     1     2   511   502 -5.065998185E+01  3.095920592E+01  3.778652968E+01  7.037562091E+01  1.581489940E-06  0.00000E+00  9.000E+00
#rwgt            1           1   3.6892191988801719E-002          10      488038           0
</event>
<event>
      5   9999  3.79277E-02  1.79859E+01 -1.00000E+00  1.70265E-01
       2    -1     0     0   502     0  0.000000000E+00  0.000000000E+00  1.336415173E+03  1.336415173E+03  0.000000000E+00  0.00000E+00  9.000E+00
      21    -1     0     0   501   502  0.000000000E+00  0.000000000E+00 -5.146193841E+01  5.146193841E+01  0.000000000E+00  0.00000E+00  9.000E+00
      25     1     1     2     0     0 -1.089414449E+02  2.087734914E+01  1.423779917E+02  2.195463383E+02  1.250000000E+02  0.00000E+00  9.000E+00
      25     1     1     2     0     0  9.655692143E+01 -3.392018085E+01  4.989032381E+02  5.244075312E+02  1.250000000E+02  0.00000E+00  9.000E+00
       2     1     1     2   501     0  1.238452342E+01  1.304283172E+01  6.436720048E+02  6.439232420E+02  1.078959322E-05  0.00000E+00  9.000E+00
#rwgt            1           1   8.7019108951470900E-002          10      488144           0
</event>
<event>
      5   9999  3.79277E-02  4.71366E+01 -1.00000E+00  1.40553E-01
      21    -1     0     0   502   501  0.000000000E+00  0.000000000E+00  1.620366543E+02  1.620366543E+02  0.000000000E+00  0.00000E+00  9.000E+00
      21    -1     0     0   501   511  0.000000000E+00  0.000000000E+00 -7.915221197E+02  7.915221197E+02  0.000000000E+00  0.00000E+00  9.000E+00
      25     1     1     2     0     0  1.142058092E+02  1.669959870E+02  1.276364820E+01  2.381565394E+02  1.250000000E+02  0.00000E+00  9.000E+00
      25     1     1     2     0     0 -1.027340968E+02 -2.127153052E+02 -5.272387234E+02  5.911072383E+02  1.250000000E+02  0.00000E+00  9.000E+00
      21     1     1     2   502   511 -1.147171248E+01  4.571931823E+01 -1.150103902E+02  1.242949963E+02  0.000000000E+00  0.00000E+00  9.000E+00
#rwgt            1           1   2.8835734692753023E-002          10      488377           0
</event>
<event>
      5   9999  3.79277E-02  1.37287E+02 -1.00000E+00  1.17939E-01
      21    -1     0     0   502   501  0.000000000E+00  0.000000000E+00  1.446109968E+02  1.446109968E+02  0.000000000E+00  0.00000E+00  9.000E+00
       2    -1     0     0   501     0  0.000000000E+00  0.000000000E+00 -1.500965490E+03  1.500965490E+03  0.000000000E+00  0.00000E+00  9.000E+00
      25     1     1     2     0     0  6.183860051E+01 -1.404395563E+02 -7.893212230E+01  2.130787681E+02  1.250000000E+02  0.00000E+00  9.000E+00
      25     1     1     2     0     0 -4.468593769E+01  2.766511712E+02 -2.496013252E+02  3.955483853E+02  1.250000000E+02  0.00000E+00  9.000E+00
       2     1     1     2   502     0 -1.715266282E+01 -1.362116150E+02 -1.027821045E+03  1.036949333E+03  2.157918644E-05  0.00000E+00  9.000E+00
#rwgt            1           1   3.4089764198219262E-002          10      488595           0
</event>
<event>
      5   9999  3.79277E-02  1.39223E+01 -1.00000E+00  1.80489E-01
      -3    -1     0     0     0   501  0.000000000E+00  0.000000000E+00  2.572411061E+02  2.572411061E+02  0.000000000E+00  0.00000E+00  9.000E+00
      21    -1     0     0   501   502  0.000000000E+00  0.000000000E+00 -2.062901475E+02  2.062901475E+02  0.000000000E+00  0.00000E+00  9.000E+00
      25     1     1     2     0     0  2.097960676E+00  1.242728883E+02 -6.208533566E+01  1.868896496E+02  1.250000000E+02  0.00000E+00  9.000E+00
      25     1     1     2     0     0 -3.599799222E+00 -1.104318172E+02  4.165962102E+00  1.668846909E+02  1.250000000E+02  0.00000E+00  9.000E+00
      -3     1     1     2     0   502  1.501838546E+00 -1.384107110E+01  1.088703322E+02  1.097569132E+02  1.348699152E-06  0.00000E+00  9.000E+00
#rwgt            1           1   4.6194083173342802E-002          10      488758           0
</event>
<event>
      5   9999  3.79277E-02  1.73432E+01 -1.00000E+00  1.71644E-01
      21    -1     0     0   502   511  0.000000000E+00  0.000000000E+00  3.465726810E+02  3.465726810E+02  0.000000000E+00  0.00000E+00  9.000E+00
      21    -1     0     0   501   502  0.000000000E+00  0.000000000E+00 -2.404727193E+02  2.404727193E+02  0.000000000E+00  0.00000E+00  9.000E+00
      25     1     1     2     0     0 -1.578621995E+02 -2.136103633E+01 -3.451609139E+01  2.054096601E+02  1.250000000E+02  0.00000E+00  9.000E+00
      25     1     1     2     0     0  1.698843263E+02  8.860790032E+00 -2.726986314E+01  2.128563914E+02  1.250000000E+02  0.00000E+00  9.000E+00
      21     1     1     2   501   511 -1.202212680E+01  1.250024630E+01  1.678859162E+02  1.687793487E+02  1.907348633E-06  0.00000E+00  9.000E+00
#rwgt            1           1   2.5074359765017658E-002          10      488887           0
</event>
<event>
      5   9999  3.79277E-02  5.11717E+01 -1.00000E+00  1.38504E-01
      21    -1     0     0   512   501  0.000000000E+00  0.000000000E+00  1.095738855E+02  1.095738855E+02  0.000000000E+00  0.00000E+00  9.000E+00
      21    -1     0     0   501   502  0.000000000E+00  0.000000000E+00 -4.643111187E+02  4.643111187E+02  0.000000000E+00  0.00000E+00  9.000E+00
      25     1     1     2     0     0 -1.325884498E+02 -1.088203057E+01 -1.226327265E+02  2.199133948E+02  1.250000000E+02  0.00000E+00  9.000E+00
      25     1     1     2     0     0  1.330264594E+02 -4.028775988E+01 -2.378065690E+02  3.024832338E+02  1.250000000E+02  0.00000E+00  9.000E+00
      21     1     1     2   512   502 -4.380095864E-01  5.116979045E+01  5.702062234E+00  5.148837559E+01  8.960542904E-07  0.00000E+00  9.000E+00
#rwgt            1           1   4.0124162969170228E-002          10      489329           0
</event>
<event>
      5   9999  3.79277E-02  1.46351E+02 -1.00000E+00  1.16819E-01
      21    -1     0     0   511   501  0.000000000E+00  0.000000000E+00  4.203626832E+02  4.203626832E+02  0.000000000E+00  0.00000E+00  9.000E+00
      21    -1     0     0   501   502  0.000000000E+00  0.000000000E+00 -2.892085478E+02  2.892085478E+02  0.000000000E+00  0.00000E+00  9.000E+00
      25     1     1     2     0     0 -1.507163925E+01 -6.032146298E+01  1.156963988E+02  1.813187522E+02  1.250000000E+02  0.00000E+00  9.000E+00
      25     1     1     2     0     0  1.425119526E+02 -1.163319390E+01 -1.948094011E+02  2.720674376E+02  1.250000000E+02  0.00000E+00  9.000E+00
      21     1     1     2   511   502 -1.274403134E+02  7.195465688E+01  2.102671377E+02  2.561850412E+02  2.697398305E-06  0.00000E+00  9.000E+00
#rwgt            1           1   3.7819264663940630E-002          10      489445           0
</event>
<event>
      5   9999  3.79277E-02  9.02565E+01 -1.00000E+00  1.25864E-01
      21    -1     0     0   502   501  0.000000000E+00  0.000000000E+00  2.444413452E+02  2.444413452E+02  0.000000000E+00  0.00000E+00  9.000E+00
      21    -1     0     0   512   502  0.000000000E+00  0.000000000E+00 -1.882332707E+02  1.882332707E+02  0.000000000E+00  0.00000E+00  9.000E+00
      25     1     1     2     0     0  2.924815628E+01 -7.630466764E+01  8.546710649E+01  1.720682517E+02  1.250000000E+02  0.00000E+00  9.000E+00
      25     1     1     2     0     0  5.980882478E+01  9.097086749E+01 -3.756828157E+01  1.699681442E+02  1.250000000E+02  0.00000E+00  9.000E+00
      21     1     1     2   512   501 -8.905698106E+01 -1.466619985E+01  8.309249600E+00  9.063821999E+01  3.371747881E-07  0.00000E+00  9.000E+00
#rwgt            1           1   2.5088434080211650E-002          10      489505           0
</event>
<event>
      5   9999  3.79277E-02  6.98342E+00 -1.00000E+00  2.15699E-01
      21    -1     0     0   511   501  0.000000000E+00  0.000000000E+00  3.488014011E+02  3.488014011E+02  0.000000000E+00  0.00000E+00  9.000E+00
      21    -1     0     0   501   502  0.000000000E+00  0.000000000E+00 -1.633175539E+02  1.633175539E+02  0.000000000E+00  0.00000E+00  9.000E+00
      25     1     1     2     0     0 -1.917051447E+01 -1.028645491E+02  2.289715949E+02  2.810722600E+02  1.250000000E+02  0.00000E+00  9.000E+00
      25     1     1     2     0     0  1.285863406E+01  9.987651008E+01 -8.999110952E+01  1.840219050E+02  1.250000000E+02  0.00000E+00  9.000E+00
      21     1     1     2   511   502  6.311880412E+00  2.988038990E+00  4.650336183E+01  4.702478998E+01  6.743495762E-07  0.00000E+00  9.000E+00
#rwgt            1           1   4.3914659452769629E-002          10      489700           0
</event>
<event>
      5   9999  3.79277E-02  2.53435E+01 -1.00000E+00  1.58308E-01
      21    -1     0     0   502   501  0.000000000E+00  0.000000000E+00  1.202712963E+02  1.202712963E+02  0.000000000E+00  0.00000E+00  9.000E+00
      21    -1     0     0   512   502  0.000000000E+00  0.000000000E+00 -9.716499243E+02  9.716499243E+02  0.000000000E+00  0.00000E+00  9.000E+00
      25     1     1     2     0     0  1.202681868E+02  1.357401915E+02 -7.890025334E+02  8.191702107E+02  1.250000000E+02  0.00000E+00  9.000E+00
      25     1     1     2     0     0 -1.112978567E+02 -1.120373640E+02  4.266980838E+00  2.014517088E+02  1.250000000E+02  0.00000E+00  9.000E+00
      21     1     1     2   512   501 -8.970330160E+00 -2.370282744E+01 -6.664307535E+01  7.129930115E+01  9.536743164E-07  0.00000E+00  9.000E+00
#rwgt            1           1   4.0896264954154271E-002          10      490007           0
</event>
<event>
      5   9999  3.79277E-02  1.68877E+02 -1.00000E+00  1.14389E-01
      21    -1     0     0   502   501  0.000000000E+00  0.000000000E+00  2.003248848E+02  2.003248848E+02  0.000000000E+00  0.00000E+00  9.000E+00
      21    -1     0     0   511   502  0.000000000E+00  0.000000000E+00 -8.322322195E+02  8.322322195E+02  0.000000000E+00  0.00000E+00  9.000E+00
      25     1     1     2     0     0 -1.411063490E+02  9.321472202E+01 -6.141311732E+01  2.190811656E+02  1.250000000E+02  0.00000E+00  9.000E+00
      25     1     1     2     0     0  1.250337788E+01 -2.026714770E+02 -2.186999696E+01  2.394480295E+02  1.250000000E+02  0.00000E+00  9.000E+00
      21     1     1     2   511   501  1.286029711E+02  1.094567550E+02 -5.486242205E+02  5.740279093E+02  0.000000000E+00  0.00000E+00  9.000E+00
#rwgt            1           1   3.2517452203699719E-002          10      490208           0
</event>
<event>
      5   9999  3.79277E-02  9.51576E+01 -1.00000E+00  1.24805E-01
      21    -1     0     0   502   512  0.000000000E+00  0.000000000E+00  1.711906113E+02  1.711906113E+02  0.000000000E+00  0.00000E+00  9.000E+00
      21    -1     0     0   501   502  0.000000000E+00  0.000000000E+00 -1.079322523E+03  1.079322523E+03  0.000000000E+00  0.00000E+00  9.000E+00
      25     1     1     2     0     0 -1.855014932E+02  2.917383451E+02 -2.771905407E+02  4.604146629E+02  1.250000000E+02  0.00000E+00  9.000E+00
      25     1     1     2     0     0  1.089312157E+02 -2.352408611E+02 -6.325306840E+02  6.949275780E+02  1.250000000E+02  0.00000E+00  9.000E+00
      21     1     1     2   501   512  7.657027744E+01 -5.649748394E+01  1.589312724E+00  9.517089363E+01  2.729313541E-06  0.00000E+00  9.000E+00
#rwgt            1           1   3.0749029489455019E-002          10      490425           0
</event>
<event>
      5   9999  3.79277E-02  3.95251E+01 -1.00000E+00  1.45163E-01
      21    -1     0     0   502   511  0.000000000E+00  0.000000000E+00  5.584169124E+02  5.584169124E+02  0.000000000E+00  0.00000E+00  9.000E+00
      21    -1     0     0   501   502  0.000000000E+00  0.000000000E+00 -6.141314875E+02  6.141314875E+02  0.000000000E+00  0.00000E+00  9.000E+00
      25     1     1     2     0     0 -3.419675488E+01 -2.801983178E+01 -4.757609966E+02  4.938907317E+02  1.250000000E+02  0.00000E+00  9.000E+00
      25     1     1     2     0     0  3.782788149E+01  6.737780121E+01 -8.653251577E+01  1.705391245E+02  1.250000000E+02  0.00000E+00  9.000E+00
      21     1     1     2   501   511 -3.631126609E+00 -3.935796942E+01  5.065789372E+02  5.081185437E+02  0.000000000E+00  0.00000E+00  9.000E+00
#rwgt            1           1   3.6941767727690734E-002          10      490528           0
</event>
<event>
      5   9999  3.79277E-02  8.26277E+01 -1.00000E+00  1.27674E-01
      21    -1     0     0   502   501  0.000000000E+00  0.000000000E+00  3.896206432E+02  3.896206432E+02  0.000000000E+00  0.00000E+00  9.000E+00
       2    -1     0     0   501     0  0.000000000E+00  0.000000000E+00 -6.313262786E+02  6.313262786E+02  0.000000000E+00  0.00000E+00  9.000E+00
      25     1     1     2     0     0 -1.834066503E+02 -9.578971103E+01 -2.685430957E+01  2.432279220E+02  1.250000000E+02  0.00000E+00  9.000E+00
      25     1     1     2     0     0  1.597752993E+02  1.661336897E+01  2.404205276E+02  3.150098100E+02  1.250000000E+02  0.00000E+00  9.000E+00
       2     1     1     2   502     0  2.363135091E+01  7.917634206E+01 -4.552718534E+02  4.627091899E+02  5.394796609E-06  0.00000E+00  9.000E+00
#rwgt            1           1   3.9916799559730202E-002          10      490664           0
</event>
<event>
      5   9999  3.79277E-02  2.71961E+01 -1.00000E+00  1.56060E-01
      21    -1     0     0   502   501  0.000000000E+00  0.000000000E+00  2.628775085E+02  2.628775085E+02  0.000000000E+00  0.00000E+00  9.000E+00
      21    -1     0     0   511   502  0.000000000E+00  0.000000000E+00 -2.624146739E+02  2.624146739E+02  0.000000000E+00  0.00000E+00  9.000E+00
      25     1     1     2     0     0 -1.976970988E+02  2.867419604E+01 -9.889335228E+00  2.358583290E+02  1.250000000E+02  0.00000E+00  9.000E+00
      25     1     1     2     0     0  2.243099760E+02 -3.427632848E+01  2.168429382E+01  2.599712304E+02  1.250000000E+02  0.00000E+00  9.000E+00
      21     1     1     2   511   501 -2.661287718E+01  5.602132444E+00 -1.133212394E+01  2.946262298E+01  2.384185791E-07  0.00000E+00  9.000E+00
#rwgt            1           1   4.3496548975711577E-002          10      490833           0
</event>
<event>
      5   9999  3.79277E-02  5.87000E+00 -1.00000E+00  2.26959E-01
      21    -1     0     0   502   501  0.000000000E+00  0.000000000E+00  1.721950644E+01  1.721950644E+01  0.000000000E+00  0.00000E+00  9.000E+00
      21    -1     0     0   512   502  0.000000000E+00  0.000000000E+00 -2.813487656E+03  2.813487656E+03  0.000000000E+00  0.00000E+00  9.000E+00
      25     1     1     2     0     0  9.619612911E+01  3.330744043E+01 -2.151234252E+03  2.157266068E+03  1.250000000E+02  0.00000E+00  9.000E+00
      25     1     1     2     0     0 -9.137674392E+01 -3.665862990E+01 -4.327499768E+02  4.610760316E+02  1.250000000E+02  0.00000E+00  9.000E+00
      21     1     1     2   512   501 -4.819385193E+00  3.351189463E+00 -2.122839207E+02  2.123650629E+02  2.697398305E-06  0.00000E+00  9.000E+00
#rwgt            1           1   3.7276347379226436E-002          10      490937           0
</event>
<event>
      5   9999  3.79277E-02  7.47900E+01 -1.00000E+00  1.29781E-01
      21    -1     0     0   502   501  0.000000000E+00  0.000000000E+00  3.967749295E+02  3.967749295E+02  0.000000000E+00  0.00000E+00  9.000E+00
      21    -1     0     0   511   502  0.000000000E+00  0.000000000E+00 -2.132017167E+02  2.132017167E+02  0.000000000E+00  0.00000E+00  9.000E+00
      25     1     1     2     0     0 -1.564202080E+02  1.088608188E+01  1.854389303E+02  2.731270494E+02  1.250000000E+02  0.00000E+00  9.000E+00
      25     1     1     2     0     0  9.205838142E+01 -4.897929771E+01  1.141482059E+02  1.988178314E+02  1.250000000E+02  0.00000E+00  9.000E+00
      21     1     1     2   511   501  6.436182660E+01  3.809321583E+01 -1.160139234E+02  1.380317654E+02  0.000000000E+00  0.00000E+00  9.000E+00
#rwgt            1           1  0.14690097289109108               10      491352           0
</event>
<event>
      5   9999  3.79277E-02  1.66879E+02 -1.00000E+00  1.14587E-01
      21    -1     0     0   502   512  0.000000000E+00  0.000000000E+00  8.551831420E+02  8.551831420E+02  0.000000000E+00  0.00000E+00  9.000E+00
      21    -1     0     0   501   502  0.000000000E+00  0.000000000E+00 -3.898088077E+02  3.898088077E+02  0.000000000E+00  0.00000E+00  9.000E+00
      25     1     1     2     0     0  2.970433958E+01 -1.737915699E+02 -1.949193159E+02  2.910401987E+02  1.250000000E+02  0.00000E+00  9.000E+00
      25     1     1     2     0     0  6.693862715E+01  3.098384155E+02  7.982068712E+01  3.499670922E+02  1.250000000E+02  0.00000E+00  9.000E+00
      21     1     1     2   501   512 -9.664296673E+01 -1.360468456E+02  5.804729631E+02  6.039846589E+02  7.629394531E-06  0.00000E+00  9.000E+00
#rwgt            2          11   1.3944822932270493E-003          10      491487           0
</event>
<event>
      5   9999  3.79277E-02  3.90937E+01 -1.00000E+00  1.45460E-01
      -2    -1     0     0     0   501  0.000000000E+00  0.000000000E+00  6.571319141E+01  6.571319141E+01  0.000000000E+00  0.00000E+00  9.000E+00
      21    -1     0     0   501   502  0.000000000E+00  0.000000000E+00 -1.278279202E+03  1.278279202E+03  0.000000000E+00  0.00000E+00  9.000E+00
      25     1     1     2     0     0  1.108653216E+02  6.573345506E+01 -9.452206065E+02  9.621221345E+02  1.250000000E+02  0.00000E+00  9.000E+00
      25     1     1     2     0     0 -8.785284198E+01 -3.413061715E+01 -2.950126211E+02  3.339767469E+02  1.250000000E+02  0.00000E+00  9.000E+00
      -2     1     1     2     0   502 -2.301247962E+01 -3.160283791E+01  2.766721712E+01  4.789351194E+01  5.840038640E-07  0.00000E+00  9.000E+00
#rwgt            1           1   3.7734525703565142E-002          10      491507           0
</event>
<event>
      5   9999  3.79277E-02  2.06375E+02 -1.00000E+00  1.11154E-01
      21    -1     0     0   502   511  0.000000000E+00  0.000000000E+00  1.123190678E+02  1.123190678E+02  0.000000000E+00  0.00000E+00  9.000E+00
      21    -1     0     0   501   502  0.000000000E+00  0.000000000E+00 -2.137359832E+03  2.137359832E+03  0.000000000E+00  0.00000E+00  9.000E+00
      25     1     1     2     0     0  1.451795607E+02 -1.965642043E+02 -9.764958379E+02  1.014339052E+03  1.250000000E+02  0.00000E+00  9.000E+00
      25     1     1     2     0     0  2.741190276E+01  8.341443202E+01 -1.014789662E+03  1.026222412E+03  1.250000000E+02  0.00000E+00  9.000E+00
      21     1     1     2   501   511 -1.725914634E+02  1.131497723E+02 -3.375526437E+01  2.091174361E+02  3.844384073E-06  0.00000E+00  9.000E+00
#rwgt            1           1  0.16505857960935241               10      491855           0
</event>
<event>
      5   9999  3.79277E-02  2.85510E+01 -1.00000E+00  1.54548E-01
      21    -1     0     0   502   501  0.000000000E+00  0.000000000E+00  4.890234745E+02  4.890234745E+02  0.000000000E+00  0.00000E+00  9.000E+00
      21    -1     0     0   512   502  0.000000000E+00  0.000000000E+00 -2.208157838E+02  2.208157838E+02  0.000000000E+00  0.00000E+00  9.000E+00
      25     1     1     2     0     0 -2.289325738E+02 -1.803585111E+02  1.886517295E+02  3.689902315E+02  1.250000000E+02  0.00000E+00  9.000E+00
      25     1     1     2     0     0  2.042104886E+02  1.660764500E+02  9.733229585E+01  3.072163516E+02  1.250000000E+02  0.00000E+00  9.000E+00
      21     1     1     2   512   501  2.472208525E+01  1.428206110E+01 -1.777633461E+01  3.363267519E+01  3.371747881E-07  0.00000E+00  9.000E+00
#rwgt            1           1   3.1617895700764016E-002          10      492043           0
</event>
<event>
      5   9999  3.79277E-02  6.83035E+01 -1.00000E+00  1.31763E-01
      21    -1     0     0   502   501  0.000000000E+00  0.000000000E+00  3.383400984E+02  3.383400984E+02  0.000000000E+00  0.00000E+00  9.000E+00
      21    -1     0     0   501   511  0.000000000E+00  0.000000000E+00 -1.890697182E+02  1.890697182E+02  0.000000000E+00  0.00000E+00  9.000E+00
      25     1     1     2     0     0 -5.049320924E+01 -1.448766339E+02  8.336287635E+01  2.147397783E+02  1.250000000E+02  0.00000E+00  9.000E+00
      25     1     1     2     0     0  1.118156726E+02  1.147946405E+02  1.102692972E+02  2.312247219E+02  1.250000000E+02  0.00000E+00  9.000E+00
      21     1     1     2   502   511 -6.132246340E+01  3.008199342E+01 -4.436179335E+01  8.144531635E+01  8.259061849E-07  0.00000E+00  9.000E+00
#rwgt            1           1   3.6181594141061688E-002          10      492364           0
</event>
<event>
      5   9999  3.79277E-02  5.58471E+01 -1.00000E+00  1.36389E-01
      21    -1     0     0   502   501  0.000000000E+00  0.000000000E+00  3.340741055E+02  3.340741055E+02  0.000000000E+00  0.00000E+00  9.000E+00
      21    -1     0     0   512   502  0.000000000E+00  0.000000000E+00 -2.185313224E+02  2.185313224E+02  0.000000000E+00  0.00000E+00  9.000E+00
      25     1     1     2     0     0  4.978015087E+01  1.099524431E+02 -2.296132801E+01  1.752707213E+02  1.250000000E+02  0.00000E+00  9.000E+00
      25     1     1     2     0     0 -1.027466485E+02 -1.276569849E+02  2.048665449E+02  2.906002078E+02  1.250000000E+02  0.00000E+00  9.000E+00
      21     1     1     2   512   501  5.296649762E+01  1.770454171E+01 -6.636243380E+01  8.673449883E+01  1.651812370E-06  0.00000E+00  9.000E+00
#rwgt            1           1   3.9006066706768386E-002          10      492584           0
</event>
<event>
      5   9999  3.79277E-02  3.15487E+01 -1.00000E+00  1.51537E-01
      21    -1     0     0   502   511  0.000000000E+00  0.000000000E+00  8.322027412E+02  8.322027412E+02  0.000000000E+00  0.00000E+00  9.000E+00
      21    -1     0     0   501   502  0.000000000E+00  0.000000000E+00 -4.996364069E+02  4.996364069E+02  0.000000000E+00  0.00000E+00  9.000E+00
      25     1     1     2     0     0  1.307496521E+02 -1.316560078E+02 -3.007554452E+02  3.748434523E+02  1.250000000E+02  0.00000E+00  9.000E+00
      25     1     1     2     0     0 -1.597869776E+02  1.193208254E+02 -7.572911844E+01  2.472432749E+02  1.250000000E+02  0.00000E+00  9.000E+00
      21     1     1     2   501   511  2.903732557E+01  1.233518237E+01  7.090508980E+02  7.097524209E+02  1.321449896E-05  0.00000E+00  9.000E+00
#rwgt            1           1   4.1739055696610385E-002          10      492658           0
</event>
<event>
      5   9999  3.79277E-02  1.42386E+01 -1.00000E+00  1.79542E-01
      21    -1     0     0   512   501  0.000000000E+00  0.000000000E+00  1.192446034E+02  1.192446034E+02  0.000000000E+00  0.00000E+00  9.000E+00
      21    -1     0     0   501   502  0.000000000E+00  0.000000000E+00 -6.911629144E+02  6.911629144E+02  0.000000000E+00  0.00000E+00  9.000E+00
      25     1     1     2     0     0 -1.024997863E+02 -1.610428251E+02 -5.203304790E+02  5.681635372E+02  1.250000000E+02  0.00000E+00  9.000E+00
      25     1     1     2     0     0  8.834534193E+01  1.594966769E+02 -4.183969201E+01  2.249881091E+02  1.250000000E+02  0.00000E+00  9.000E+00
      21     1     1     2   512   502  1.415444436E+01  1.546148182E+00 -9.748140020E+00  1.725587156E+01  1.685873940E-07  0.00000E+00  9.000E+00
#rwgt            1           1   4.1192185120938182E-002          10      492790           0
</event>
<event>
      5   9999  3.79277E-02  3.61552E+01 -1.00000E+00  1.47616E-01
       2    -1     0     0   502     0  0.000000000E+00  0.000000000E+00  2.817929653E+03  2.817929653E+03  0.000000000E+00  0.00000E+00  9.000E+00
      21    -1     0     0   501   502  0.000000000E+00  0.000000000E+00 -1.715092805E+01  1.715092805E+01  0.000000000E+00  0.00000E+00  9.000E+00
      25     1     1     2     0     0 -2.106445826E+00  2.717312392E+01  2.926979391E+02  3.194368472E+02  1.250000000E+02  0.00000E+00  9.000E+00
      25     1     1     2     0     0 -3.359870884E+01 -2.148607265E+01  2.342026055E+03  2.345698524E+03  1.250000000E+02  0.00000E+00  9.000E+00
       2     1     1     2   501     0  3.570515467E+01 -5.687051268E+00  1.660547309E+02  1.699452096E+02  1.907348633E-06  0.00000E+00  9.000E+00
#rwgt            1           1   4.7416639211000818E-002          10      493012           0
</event>
<event>
      5   9999  3.79277E-02  1.07763E+01 -1.00000E+00  1.92077E-01
      21    -1     0     0   511   501  0.000000000E+00  0.000000000E+00  1.257740454E+02  1.257740454E+02  0.000000000E+00  0.00000E+00  9.000E+00
      21    -1     0     0   501   502  0.000000000E+00  0.000000000E+00 -3.697075101E+02  3.697075101E+02  0.000000000E+00  0.00000E+00  9.000E+00
      25     1     1     2     0     0 -2.076942899E+01  8.080773175E+01  4.478330326E+01  1.568177380E+02  1.250000000E+02  0.00000E+00  9.000E+00
      25     1     1     2     0     0  2.762760606E+01 -7.249545492E+01 -2.923592532E+02  3.272885707E+02  1.250000000E+02  0.00000E+00  9.000E+00
      21     1     1     2   511   502 -6.858177071E+00 -8.312276824E+00  3.642485261E+00  1.137524671E+01  1.632340424E-07  0.00000E+00  9.000E+00
#rwgt            1           1   3.7558895163907750E-002          10      493188           0
</event>
<event>
      5   9999  3.79277E-02  6.80559E+01 -1.00000E+00  1.31843E-01
      21    -1     0     0   502   501  0.000000000E+00  0.000000000E+00  7.831949852E+02  7.831949852E+02  0.000000000E+00  0.00000E+00  9.000E+00
      21    -1     0     0   512   502  0.000000000E+00  0.000000000E+00 -1.034966300E+02  1.034966300E+02  0.000000000E+00  0.00000E+00  9.000E+00
      25     1     1     2     0     0 -3.396898682E+01  1.644674491E+02  4.540762760E+02  5.000136981E+02  1.250000000E+02  0.00000E+00  9.000E+00
      25     1     1     2     0     0 -3.382303935E+01 -1.704546103E+02  2.351109210E+02  3.179637044E+02  1.250000000E+02  0.00000E+00  9.000E+00
      21     1     1     2   512   501  6.779202617E+01  5.987161244E+00 -9.488841814E+00  6.871421273E+01  5.591411304E-07  0.00000E+00  9.000E+00
#rwgt            1           1   4.2592196472708087E-002          10      493378           0
</event>
<event>
      5   9999  3.79277E-02  1.28898E+01 -1.00000E+00  1.83820E-01
      21    -1     0     0   502   501  0.000000000E+00  0.000000000E+00  3.202416124E+02  3.202416124E+02  0.000000000E+00  0.00000E+00  9.000E+00
      21    -1     0     0   511   502  0.000000000E+00  0.000000000E+00 -3.787960084E+02  3.787960084E+02  0.000000000E+00  0.00000E+00  9.000E+00
      25     1     1     2     0     0 -2.130841652E+02 -9.629865074E+01  1.963670482E+02  3.299444032E+02  1.250000000E+02  0.00000E+00  9.000E+00
      25     1     1     2     0     0  2.015149451E+02  9.061525149E+01 -2.452775101E+02  3.529949771E+02  1.250000000E+02  0.00000E+00  9.000E+00
      21     1     1     2   511   501  1.156922009E+01  5.683399255E+00 -9.643934192E+00  1.609824050E+01  0.000000000E+00  0.00000E+00  9.000E+00
#rwgt            1           1   4.5606777255087681E-002          10      493578           0
</event>
<event>
      5   9999 -3.79277E-02  7.10070E+01 -1.00000E+00  1.30907E-01
      21    -1     0     0   512   501  0.000000000E+00  0.000000000E+00  1.573314060E+02  1.573314060E+02  0.000000000E+00  0.00000E+00  9.000E+00
      21    -1     0     0   501   502  0.000000000E+00  0.000000000E+00 -7.083192932E+02  7.083192932E+02  0.000000000E+00  0.00000E+00  9.000E+00
      25     1     1     2     0     0  2.489246296E+02  1.218707453E+01 -9.895728143E+01  2.958539159E+02  1.250000000E+02  0.00000E+00  9.000E+00
      25     1     1     2     0     0 -1.879368510E+02 -4.855309838E+01 -4.412171329E+02  4.979711053E+02  1.250000000E+02  0.00000E+00  9.000E+00
      21     1     1     2   512   502 -6.098777856E+01  3.636602385E+01 -1.081347281E+01  7.182567799E+01  1.630162517E-06  0.00000E+00  9.000E+00
#rwgt            1           1 -0.15756560209628548               10      493983           0
</event>
<event>
      5   9999  3.79277E-02  1.32420E+02 -1.00000E+00  1.18580E-01
      21    -1     0     0   511   501  0.000000000E+00  0.000000000E+00  1.316630753E+02  1.316630753E+02  0.000000000E+00  0.00000E+00  9.000E+00
      21    -1     0     0   501   502  0.000000000E+00  0.000000000E+00 -5.546171219E+02  5.546171219E+02  0.000000000E+00  0.00000E+00  9.000E+00
      25     1     1     2     0     0  2.459192642E+01 -7.727062841E+01 -1.304981417E+02  1.980663471E+02  1.250000000E+02  0.00000E+00  9.000E+00
      25     1     1     2     0     0 -1.342282734E+02  3.007466762E+00 -3.042454690E+02  3.552697280E+02  1.250000000E+02  0.00000E+00  9.000E+00
      21     1     1     2   511   502  1.096363470E+02  7.426316165E+01  1.178956403E+01  1.329441220E+02  1.410503336E-06  0.00000E+00  9.000E+00
#rwgt            1           1   5.1871956981432314E-002          10      494188           0
</event>
<event>
      5   9999  3.79277E-02  6.29502E+01 -1.00000E+00  1.33599E-01
      21    -1     0     0   502   501  0.000000000E+00  0.000000000E+00  3.880193922E+02  3.880193922E+02  0.000000000E+00  0.00000E+00  9.000E+00
      21    -1     0     0   512   502  0.000000000E+00  0.000000000E+00 -2.242179069E+02  2.242179069E+02  0.000000000E+00  0.00000E+00  9.000E+00
      25     1     1     2     0     0 -1.944358906E+02 -6.389225099E+01  2.010286850E+02  3.129298124E+02  1.250000000E+02  0.00000E+00  9.000E+00
      25     1     1     2     0     0  1.759856830E+02  3.706585241E+00  1.653358523E+01  2.165249612E+02  1.250000000E+02  0.00000E+00  9.000E+00
      21     1     1     2   512   501  1.845020767E+01  6.018566575E+01 -5.376078489E+01  8.278252543E+01  9.536743164E-07  0.00000E+00  9.000E+00
#rwgt            1           1   2.9966358550486575E-002          10      494413           0
</event>
<event>
      5   9999  3.79277E-02  3.98502E+01 -1.00000E+00  1.44941E-01
      21    -1     0     0   502   511  0.000000000E+00  0.000000000E+00  2.647747931E+02  2.647747931E+02  0.000000000E+00  0.00000E+00  9.000E+00
      21    -1     0     0   501   502  0.000000000E+00  0.000000000E+00 -2.031190099E+02  2.031190099E+02  0.000000000E+00  0.00000E+00  9.000E+00
      25     1     1     2     0     0  1.101969066E+02  7.150021906E+01 -1.792986977E+01  1.822144884E+02  1.250000000E+02  0.00000E+00  9.000E+00
      25     1     1     2     0     0 -1.417175468E+02 -4.711803787E+01 -2.129241366E+00  1.947652593E+02  1.250000000E+02  0.00000E+00  9.000E+00
      21     1     1     2   501   511  3.152064015E+01 -2.438218119E+01  8.171489433E+01  9.091405541E+01  1.348699152E-06  0.00000E+00  9.000E+00
#rwgt            2          11   1.1386784268626353E-003          10      494631           0
</event>
<event>
      5   9999  3.79277E-02  7.41792E+01 -1.00000E+00  1.29958E-01
      21    -1     0     0   502   501  0.000000000E+00  0.000000000E+00  4.062228856E+02  4.062228856E+02  0.000000000E+00  0.00000E+00  9.000E+00
      21    -1     0     0   501   512  0.000000000E+00  0.000000000E+00 -3.028895333E+02  3.028895333E+02  0.000000000E+00  0.00000E+00  9.000E+00
      25     1     1     2     0     0 -2.665700992E+02  4.834160376E+01  1.401347594E+02  3.296350698E+02  1.250000000E+02  0.00000E+00  9.000E+00
      25     1     1     2     0     0  2.586322025E+02  2.541160968E+01  1.537386077E+01  2.887866369E+02  1.250000000E+02  0.00000E+00  9.000E+00
      21     1     1     2   502   512  7.937896731E+00 -7.375321343E+01 -5.217526781E+01  9.069071213E+01  9.536743164E-07  0.00000E+00  9.000E+00
#rwgt            1           1  0.16788309617105435               10      494651           0
</event>
<event>
      5   9999  3.79277E-02  6.76561E+01 -1.00000E+00  1.31974E-01
      21    -1     0     0   502   501  0.000000000E+00  0.000000000E+00  3.637498782E+02  3.637498782E+02  0.000000000E+00  0.00000E+00  9.000E+00
      21    -1     0     0   511   502  0.000000000E+00  0.000000000E+00 -2.320121515E+02  2.320121515E+02  0.000000000E+00  0.00000E+00  9.000E+00
      25     1     1     2     0     0  2.127877871E+02 -7.743427419E+00  1.551173371E+02  2.915904513E+02  1.250000000E+02  0.00000E+00  9.000E+00
      25     1     1     2     0     0 -1.733775632E+02  6.273602002E+01  2.023775488E+01  2.236742148E+02  1.250000000E+02  0.00000E+00  9.000E+00
      21     1     1     2   511   501 -3.941022389E+01 -5.499259260E+01 -4.361736539E+01  8.049736363E+01  1.507891493E-06  0.00000E+00  9.000E+00
#rwgt            1           1   2.8891529167885715E-002          10      494775           0
</event>
<event>
      5   9999  3.79277E-02  1.67616E+01 -1.00000E+00  1.72958E-01
      -2    -1     0     0     0   501  0.000000000E+00  0.000000000E+00  2.120746903E+02  2.120746903E+02  0.000000000E+00  0.00000E+00  9.000E+00
      21    -1     0     0   501   502  0.000000000E+00  0.000000000E+00 -1.706709746E+03  1.706709746E+03  0.000000000E+00  0.00000E+00  9.000E+00
      25     1     1     2     0     0 -1.194040053E+02  8.254336276E+00 -7.416316968E+02  7.615563172E+02  1.250000000E+02  0.00000E+00  9.000E+00
      25     1     1     2     0     0  1.190798319E+02  8.504091626E+00 -9.469309255E+02  9.625775312E+02  1.250000000E+02  0.00000E+00  9.000E+00
      -2     1     1     2     0   502  3.241734330E-01 -1.675842790E+01  1.939275669E+02  1.946505875E+02  3.814697266E-06  0.00000E+00  9.000E+00
#rwgt            1           1  0.18951190789315928               10      494922           0
</event>
<event>
      5   9999  3.79277E-02  4.83680E+01 -1.00000E+00  1.39903E-01
      21    -1     0     0   502   501  0.000000000E+00  0.000000000E+00  3.039833521E+02  3.039833521E+02  0.000000000E+00  0.00000E+00  9.000E+00
      21    -1     0     0   511   502  0.000000000E+00  0.000000000E+00 -2.861994771E+02  2.861994771E+02  0.000000000E+00  0.00000E+00  9.000E+00
      25     1     1     2     0     0  3.580892922E+01  1.118703125E+02  8.160828066E+01  1.899530408E+02  1.250000000E+02  0.00000E+00  9.000E+00
      25     1     1     2     0     0 -2.579226903E+01 -1.591897308E+02  1.015606619E+02  2.279170454E+02  1.250000000E+02  0.00000E+00  9.000E+00
      21     1     1     2   511   501 -1.001666019E+01  4.731941834E+01 -1.653850676E+02  1.723127430E+02  0.000000000E+00  0.00000E+00  9.000E+00
#rwgt            1           1   3.1607012105729575E-002          10      495098           0
</event>
<event>
      5   9999  3.79277E-02  1.47530E+02 -1.00000E+00  1.16680E-01
       2    -1     0     0   502     0  0.000000000E+00  0.000000000E+00  1.291829218E+03  1.291829218E+03  0.000000000E+00  0.00000E+00  9.000E+00
      21    -1     0     0   501   502  0.000000000E+00  0.000000000E+00 -1.887790645E+02  1.887790645E+02  0.000000000E+00  0.00000E+00  9.000E+00
      25     1     1     2     0     0 -4.529975908E+01 -6.340096772E+01 -7.462227054E+01  1.651218766E+02  1.250000000E+02  0.00000E+00  9.000E+00
      25     1     1     2     0     0  1.732394521E+02 -1.006052752E+01  1.153895962E+02  2.430079852E+02  1.250000000E+02  0.00000E+00  9.000E+00
       2     1     1     2   501     0 -1.279396930E+02  7.346149523E+01  1.062282828E+03  1.072478421E+03  1.525878906E-05  0.00000E+00  9.000E+00
#rwgt            1           1   5.2450724622192531E-002          10      495294           0
</event>
<event>
      5   9999  3.79277E-02  9.15991E+01 -1.00000E+00  1.25567E-01
      21    -1     0     0   502   501  0.000000000E+00  0.000000000E+00  1.179131565E+02  1.179131565E+02  0.000000000E+00  0.00000E+00  9.000E+00
       1    -1     0     0   501     0  0.000000000E+00  0.000000000E+00 -2.211786785E+03  2.211786785E+03  0.000000000E+00  0.00000E+00  9.000E+00
      25     1     1     2     0     0  2.074628690E+02  4.016013572E+00 -5.689623076E+02  6.183850563E+02  1.250000000E+02  0.00000E+00  9.000E+00
      25     1     1     2     0     0 -1.288651542E+02 -5.105632761E+01 -3.024361005E+00  1.866738420E+02  1.250000000E+02  0.00000E+00  9.000E+00
       1     1     1     2   502     0 -7.859771480E+01  4.704031404E+01 -1.521886960E+03  1.524641043E+03  0.000000000E+00  0.00000E+00  9.000E+00
#rwgt            1           1   3.0129366038296360E-002          10      495372           0
</event>
<event>
      5   9999  3.79277E-02  3.85734E+01 -1.00000E+00  1.45825E-01
      21    -1     0     0   502   501  0.000000000E+00  0.000000000E+00  7.077437795E+02  7.077437795E+02  0.000000000E+00  0.00000E+00  9.000E+00
       2    -1     0     0   501     0  0.000000000E+00  0.000000000E+00 -3.727013244E+02  3.727013244E+02  0.000000000E+00  0.00000E+00  9.000E+00
      25     1     1     2     0     0 -3.224180502E+02  1.263335847E+02  5.027104194E+01  3.715720003E+02  1.250000000E+02  0.00000E+00  9.000E+00
      25     1     1     2     0     0  3.151452002E+02 -1.642151178E+02  4.223790998E+02  5.659613115E+02  1.250000000E+02  0.00000E+00  9.000E+00
       2     1     1     2   502     0  7.272850047E+00  3.788153310E+01 -1.376076867E+02  1.429117921E+02  1.907348633E-06  0.00000E+00  9.000E+00
#rwgt            1           1   3.4665107305844038E-002          10      495430           0
</event>
<event>
      5   9999  3.79277E-02  5.01117E+01 -1.00000E+00  1.39020E-01
      21    -1     0     0   511   501  0.000000000E+00  0.000000000E+00  1.617179698E+02  1.617179698E+02  0.000000000E+00  0.00000E+00  9.000E+00
      21    -1     0     0   501   502  0.000000000E+00  0.000000000E+00 -7.725025758E+02  7.725025758E+02  0.000000000E+00  0.00000E+00  9.000E+00
      25     1     1     2     0     0 -6.485100988E-01  3.310887151E+01 -2.780020689E+01  1.322666604E+02  1.250000000E+02  0.00000E+00  9.000E+00
      25     1     1     2     0     0 -2.171737695E+01 -7.795251233E+01 -6.782009597E+02  6.943556584E+02  1.250000000E+02  0.00000E+00  9.000E+00
      21     1     1     2   511   502  2.236588704E+01  4.484364082E+01  9.521656056E+01  1.075982269E+02  3.814697266E-06  0.00000E+00  9.000E+00
#rwgt            1           1   4.2389289301262595E-002          10      495533           0
</event>
<event>
      5   9999  3.79277E-02  1.97499E+01 -1.00000E+00  1.66821E-01
      21    -1     0     0   502   512  0.000000000E+00  0.000000000E+00  1.724195700E+02  1.724195700E+02  0.000000000E+00  0.00000E+00  9.000E+00
      21    -1     0     0   501   502  0.000000000E+00  0.000000000E+00 -5.408821673E+02  5.408821673E+02  0.000000000E+00  0.00000E+00  9.000E+00
      25     1     1     2     0     0 -2.918606753E+01 -2.499663565E+02 -5.612837671E+01  2.865491242E+02  1.250000000E+02  0.00000E+00  9.000E+00
      25     1     1     2     0     0  3.467506813E+01  2.309945620E+02 -3.084850476E+02  4.066311259E+02  1.250000000E+02  0.00000E+00  9.000E+00
      21     1     1     2   501   512 -5.489000606E+00  1.897179449E+01 -3.849172975E+00  2.012148718E+01  1.837138534E-07  0.00000E+00  9.000E+00
#rwgt            1           1   2.6655286639077357E-002          10      495625           0
</event>
<event>
      5   9999  3.79277E-02  7.04713E+01 -1.00000E+00  1.31073E-01
      21    -1     0     0   502   501  0.000000000E+00  0.000000000E+00  6.157834519E+02  6.157834519E+02  0.000000000E+00  0.00000E+00  9.000E+00
      21    -1     0     0   501   511  0.000000000E+00  0.000000000E+00 -2.428794127E+02  2.428794127E+02  0.000000000E+00  0.00000E+00  9.000E+00
      25     1     1     2     0     0 -1.637709137E+02 -2.312836651E+01  4.280753054E+02  4.756356805E+02  1.250000000E+02  0.00000E+00  9.000E+00
      25     1     1     2     0     0  2.314940987E+02  3.640569435E+00  3.838733738E+01  2.658972718E+02  1.250000000E+02  0.00000E+00  9.000E+00
      21     1     1     2   502   511 -6.772318507E+01  1.948779707E+01 -9.355860364E+01  1.171299123E+02  1.348699152E-06  0.00000E+00  9.000E+00
#rwgt            1           1   2.6202340343310680E-002          10      495838           0
</event>
<event>
      5   9999  3.79277E-02  3.08739E+01 -1.00000E+00  1.52179E-01
      21    -1     0     0   502   501  0.000000000E+00  0.000000000E+00  8.974748070E+01  8.974748070E+01  0.000000000E+00  0.00000E+00  9.000E+00
      21    -1     0     0   501   512  0.000000000E+00  0.000000000E+00 -1.628548834E+03  1.628548834E+03  0.000000000E+00  0.00000E+00  9.000E+00
      25     1     1     2     0     0  1.249953697E+02  1.421465323E+02 -5.481423140E+02  5.932237988E+02  1.250000000E+02  0.00000E+00  9.000E+00
      25     1     1     2     0     0 -1.106780002E+02 -1.694999626E+02 -1.445230195E+02  2.783734187E+02  1.250000000E+02  0.00000E+00  9.000E+00
      21     1     1     2   502   512 -1.431736950E+01  2.735343026E+01 -8.461360194E+02  8.466990969E+02  1.525878906E-05  0.00000E+00  9.000E+00
#rwgt            1           1   3.0208064046879916E-002          10      495944           0
</event>
<event>
      5   9999  3.79277E-02  1.85357E+01  7.55638E-03  1.69141E-01
      -2    -1     0     0     0   501  0.000000000E+00  0.000000000E+00  2.045155640E+03  2.045155640E+03  0.000000000E+00  0.00000E+00  9.000E+00
       2    -1     0     0   502     0  0.000000000E+00  0.000000000E+00 -3.395268132E+01  3.395268132E+01  0.000000000E+00  0.00000E+00  9.000E+00
      25     1     1     2     0     0 -3.751619519E+01 -1.279798368E+02  6.787053500E+02  7.028885087E+02  1.250000000E+02  0.00000E+00  9.000E+00
      25     1     1     2     0     0  4.275903204E+01  1.457585833E+02  4.227069113E+02  4.662403160E+02  1.250000000E+02  0.00000E+00  9.000E+00
      21     1     1     2   502   501 -5.242836854E+00 -1.777874649E+01  9.097906974E+02  9.099794966E+02  1.078959322E-05  0.00000E+00  9.000E+00
#rwgt            3           4   6.5270681044808439E-007          10      496120           0
</event>
<event>
      5   9999  3.79277E-02  2.41851E+01 -1.00000E+00  1.59837E-01
      21    -1     0     0   502   501  0.000000000E+00  0.000000000E+00  7.238461882E+01  7.238461882E+01  0.000000000E+00  0.00000E+00  9.000E+00
      21    -1     0     0   501   511  0.000000000E+00  0.000000000E+00 -8.662593730E+02  8.662593730E+02  0.000000000E+00  0.00000E+00  9.000E+00
      25     1     1     2     0     0 -6.839490068E+01 -8.381217346E+01 -5.341264437E+01  1.737246483E+02  1.250000000E+02  0.00000E+00  9.000E+00
      25     1     1     2     0     0  8.597053802E+01  6.719848225E+01 -6.761103529E+02  6.961729517E+02  1.250000000E+02  0.00000E+00  9.000E+00
      21     1     1     2   502   511 -1.757563734E+01  1.661369121E+01 -6.435175691E+01  6.874639177E+01  0.000000000E+00  0.00000E+00  9.000E+00
#rwgt            1           1   1.2190631824363930E-002          10      496379           0
</event>
<event>
      5   9999  3.79277E-02  8.91274E+01 -1.00000E+00  1.26119E-01
      21    -1     0     0   502   501  0.000000000E+00  0.000000000E+00  7.344372882E+02  7.344372882E+02  0.000000000E+00  0.00000E+00  9.000E+00
      21    -1     0     0   512   502  0.000000000E+00  0.000000000E+00 -4.967414633E+02  4.967414633E+02  0.000000000E+00  0.00000E+00  9.000E+00
      25     1     1     2     0     0  1.369443264E+02  1.086607171E+02  2.933495880E+02  3.636480176E+02  1.250000000E+02  0.00000E+00  9.000E+00
      25     1     1     2     0     0 -8.044061734E+01 -3.973307405E+01  3.867527841E+02  4.162356618E+02  1.250000000E+02  0.00000E+00  9.000E+00
      21     1     1     2   512   501 -5.650370903E+01 -6.892764304E+01 -4.424065472E+02  4.512950721E+02  0.000000000E+00  0.00000E+00  9.000E+00
#rwgt            1           1   1.8523546724975200E-002          10      496572           0
</event>
<event>
      5   9999  3.79277E-02  2.32776E+01 -1.00000E+00  1.61108E-01
      21    -1     0     0   502   501  0.000000000E+00  0.000000000E+00  6.982946020E+01  6.982946020E+01  0.000000000E+00  0.00000E+00  9.000E+00
      21    -1     0     0   501   511  0.000000000E+00  0.000000000E+00 -6.153398334E+02  6.153398334E+02  0.000000000E+00  0.00000E+00  9.000E+00
      25     1     1     2     0     0 -7.144111740E+01  4.768178131E+01 -5.669229850E+01  1.619147993E+02  1.250000000E+02  0.00000E+00  9.000E+00
      25     1     1     2     0     0  9.280619532E+01 -3.844158975E+01 -4.529107138E+02  4.804621321E+02  1.250000000E+02  0.00000E+00  9.000E+00
      21     1     1     2   502   511 -2.136507792E+01 -9.240191564E+00 -3.590736091E+01  4.279236219E+01  4.768371582E-07  0.00000E+00  9.000E+00
#rwgt            1           1   3.6858831707133978E-002          10      496649           0
</event>
<event>
      5   9999  3.79277E-02  1.25408E+02 -1.00000E+00  1.19561E-01
      21    -1     0     0   502   501  0.000000000E+00  0.000000000E+00  5.429260267E+02  5.429260267E+02  0.000000000E+00  0.00000E+00  9.000E+00
      21    -1     0     0   512   502  0.000000000E+00  0.000000000E+00 -7.772334253E+02  7.772334253E+02  0.000000000E+00  0.00000E+00  9.000E+00
      25     1     1     2     0     0 -7.982808940E+01 -7.296086336E+01  1.899811077E+02  2.518206360E+02  1.250000000E+02  0.00000E+00  9.000E+00
      25     1     1     2     0     0 -3.845256048E+01  1.146360816E+02  2.926987216E+02  3.404666977E+02  1.250000000E+02  0.00000E+00  9.000E+00
      21     1     1     2   512   501  1.182806499E+02 -4.167521823E+01 -7.169872278E+02  7.278721184E+02  7.629394531E-06  0.00000E+00  9.000E+00
#rwgt            1           1   3.1633098495853773E-002          10      496812           0
</event>
<event>
      5   9999  3.79277E-02  9.93895E+01 -1.00000E+00  1.23948E-01
       2    -1     0     0   502     0  0.000000000E+00  0.000000000E+00  2.927935832E+03  2.927935832E+03  0.000000000E+00  0.00000E+00  9.000E+00
      21    -1     0     0   501   502  0.000000000E+00  0.000000000E+00 -3.013820351E+01  3.013820351E+01  0.000000000E+00  0.00000E+00  9.000E+00
      25     1     1     2     0     0 -7.363680629E+01 -7.868471251E+01  3.782932765E+02  4.127280779E+02  1.250000000E+02  0.00000E+00  9.000E+00
      25     1     1     2     0     0 -1.056322114E+01  1.314921023E+02  7.025193313E+02  7.256446551E+02  1.250000000E+02  0.00000E+00  9.000E+00
       2     1     1     2   501     0  8.420002743E+01 -5.280738984E+01  1.816985020E+03  1.819701302E+03  3.051757812E-05  0.00000E+00  9.000E+00
#rwgt            1           1   2.7547206961420333E-002          10      496864           0
</event>
<event>
      5   9999  3.79277E-02  1.26027E+01 -1.00000E+00  1.84818E-01
      21    -1     0     0   511   501  0.000000000E+00  0.000000000E+00  8.177184907E+02  8.177184907E+02  0.000000000E+00  0.00000E+00  9.000E+00
      21    -1     0     0   501   502  0.000000000E+00  0.000000000E+00 -9.999689548E+01  9.999689548E+01  0.000000000E+00  0.00000E+00  9.000E+00
      25     1     1     2     0     0 -8.904598071E+01  2.336050671E+01 -2.483855965E+01  1.572159470E+02  1.250000000E+02  0.00000E+00  9.000E+00
      25     1     1     2     0     0  7.960795473E+01 -3.171230692E+01  6.904329293E+02  7.068703748E+02  1.250000000E+02  0.00000E+00  9.000E+00
      21     1     1     2   511   502  9.438025983E+00  8.351800209E+00  5.212722557E+01  5.362906438E+01  0.000000000E+00  0.00000E+00  9.000E+00
#rwgt            1           1   4.1700830771252861E-002          10      497012           0
</event>
<event>
      5   9999  3.79277E-02  1.14079E+01 -1.00000E+00  1.89368E-01
      21    -1     0     0   502   501  0.000000000E+00  0.000000000E+00  1.629232357E+02  1.629232357E+02  0.000000000E+00  0.00000E+00  9.000E+00
       2    -1     0     0   501     0  0.000000000E+00  0.000000000E+00 -8.589963877E+02  8.589963877E+02  0.000000000E+00  0.00000E+00  9.000E+00
      25     1     1     2     0     0 -6.555473834E+01  1.602813193E+02 -2.301634428E+02  3.139868395E+02  1.250000000E+02  0.00000E+00  9.000E+00
      25     1     1     2     0     0  7.487224271E+01 -1.668634971E+02  1.950487118E+01  2.223841707E+02  1.250000000E+02  0.00000E+00  9.000E+00
       2     1     1     2   502     0 -9.317504373E+00  6.582177811E+00 -4.854145803E+02  4.855486132E+02  7.629394531E-06  0.00000E+00  9.000E+00
#rwgt            1           1   3.6568401570024146E-002          10      497323           0
</event>
<event>
      5   9999  3.79277E-02  2.70325E+01 -1.00000E+00  1.56250E-01
      21    -1     0     0   502   501  0.000000000E+00  0.000000000E+00  8.806077382E+02  8.806077382E+02  0.000000000E+00  0.00000E+00  9.000E+00
      21    -1     0     0   501   511  0.000000000E+00  0.000000000E+00 -6.979675746E+01  6.979675746E+01  0.000000000E+00  0.00000E+00  9.000E+00
      25     1     1     2     0     0 -7.617122931E+00  1.968214709E+02  4.902518999E+02  5.429259961E+02  1.250000000E+02  0.00000E+00  9.000E+00
      25     1     1     2     0     0  1.458415793E+00 -1.704999071E+02  3.157920940E+02  3.800289357E+02  1.250000000E+02  0.00000E+00  9.000E+00
      21     1     1     2   502   511  6.158707137E+00 -2.632156374E+01  4.766986834E+00  2.744956384E+01  5.430241572E-07  0.00000E+00  9.000E+00
#rwgt            1           1   3.9838448161219814E-002          10      497614           0
</event>
<event>
      5   9999  3.79277E-02  7.11529E+01 -1.00000E+00  1.30862E-01
      21    -1     0     0   502   512  0.000000000E+00  0.000000000E+00  2.154256786E+02  2.154256786E+02  0.000000000E+00  0.00000E+00  9.000E+00
      21    -1     0     0   501   502  0.000000000E+00  0.000000000E+00 -1.020184353E+03  1.020184353E+03  0.000000000E+00  0.00000E+00  9.000E+00
      25     1     1     2     0     0  7.294726157E+01  4.695670522E+01 -1.728667794E+02  2.302914644E+02  1.250000000E+02  0.00000E+00  9.000E+00
      25     1     1     2     0     0 -1.375385091E+02 -7.680152101E+01 -7.988807748E+02  8.238026508E+02  1.250000000E+02  0.00000E+00  9.000E+00
      21     1     1     2   501   512  6.459124750E+01  2.984481579E+01  1.669888793E+02  1.815159169E+02  4.264961200E-06  0.00000E+00  9.000E+00
#rwgt            1           1   3.6806131733980237E-002          10      497771           0
</event>
<event>
      5   9999  3.79277E-02  2.21203E+01 -1.00000E+00  1.62838E-01
      21    -1     0     0   502   501  0.000000000E+00  0.000000000E+00  2.582489461E+03  2.582489461E+03  0.000000000E+00  0.00000E+00  9.000E+00
      21    -1     0     0   501   511  0.000000000E+00  0.000000000E+00 -2.054049496E+01  2.054049496E+01  0.000000000E+00  0.00000E+00  9.000E+00
      25     1     1     2     0     0  5.351173549E+01  5.762302073E+01  5.874205739E+02  6.056994709E+02  1.250000000E+02  0.00000E+00  9.000E+00
      25     1     1     2     0     0 -3.192748894E+01 -6.246316631E+01  1.969418239E+03  1.974627613E+03  1.250000000E+02  0.00000E+00  9.000E+00
      21     1     1     2   502   511 -2.158424654E+01  4.840145573E+00  5.110152894E+00  2.270287142E+01  1.855418970E-06  0.00000E+00  9.000E+00
#rwgt            1           1   1.2149771613054397E-002          10      497834           0
</event>
<event>
      5   9999  3.79277E-02  5.75190E+01 -1.00000E+00  1.35691E-01
      21    -1     0     0   502   501  0.000000000E+00  0.000000000E+00  8.814223249E+01  8.814223249E+01  0.000000000E+00  0.00000E+00  9.000E+00
      21    -1     0     0   501   512  0.000000000E+00  0.000000000E+00 -5.909304587E+02  5.909304587E+02  0.000000000E+00  0.00000E+00  9.000E+00
      25     1     1     2     0     0  1.311483253E+02  4.965562164E-01 -2.904528705E+02  3.423273284E+02  1.250000000E+02  0.00000E+00  9.000E+00
      25     1     1     2     0     0 -1.412775680E+02  5.612348783E+01 -1.283932766E+02  2.349872987E+02  1.250000000E+02  0.00000E+00  9.000E+00
      21     1     1     2   502   512  1.012924271E+01 -5.662004405E+01 -8.394207920E+01  1.017580641E+02  9.536743164E-07  0.00000E+00  9.000E+00
#rwgt            1           1   4.2917717834623739E-002          10      498106           0
</event>
<event>
      5   9999  3.79277E-02  4.33155E+01 -1.00000E+00  1.42727E-01
      21    -1     0     0   502   511  0.000000000E+00  0.000000000E+00  2.493124894E+02  2.493124894E+02  0.000000000E+00  0.00000E+00  9.000E+00
      21    -1     0     0   501   502  0.000000000E+00  0.000000000E+00 -5.225786860E+02  5.225786860E+02  0.000000000E+00  0.00000E+00  9.000E+00
      25     1     1     2     0     0  1.546398988E+02  8.991005136E-01  1.415003808E+01  1.993477621E+02  1.250000000E+02  0.00000E+00  9.000E+00
      25     1     1     2     0     0 -1.224626250E+02  2.809848141E+01 -4.077759592E+02  4.446266435E+02  1.250000000E+02  0.00000E+00  9.000E+00
      21     1     1     2   501   511 -3.217727375E+01 -2.899758193E+01  1.203597246E+02  1.279167698E+02  1.907348633E-06  0.00000E+00  9.000E+00
#rwgt            1           1   3.9309519040434976E-002          10      498230           0
</event>
<event>
      5   9999  3.79277E-02  5.69727E+00 -1.00000E+00  2.29021E-01
      21    -1     0     0   512   501  0.000000000E+00  0.000000000E+00  3.198196549E+02  3.198196549E+02  0.000000000E+00  0.00000E+00  9.000E+00
      21    -1     0     0   501   502  0.000000000E+00  0.000000000E+00 -1.132759133E+02  1.132759133E+02  0.000000000E+00  0.00000E+00  9.000E+00
      25     1     1     2     0     0  1.300553690E+02  3.788030007E+01  8.040898674E+01  2.010967958E+02  1.250000000E+02  0.00000E+00  9.000E+00
      25     1     1     2     0     0 -1.339209010E+02 -4.206557536E+01  1.175382200E+02  2.216857088E+02  1.250000000E+02  0.00000E+00  9.000E+00
      21     1     1     2   512   502  3.865531977E+00  4.185275289E+00  8.596534869E+00  1.031306349E+01  1.192092896E-07  0.00000E+00  9.000E+00
#rwgt            1           1   3.4545796152208583E-002          10      498336           0
</event>
<event>
      5   9999  3.79277E-02  2.80140E+01 -1.00000E+00  1.55135E-01
      21    -1     0     0   502   501  0.000000000E+00  0.000000000E+00  1.171939758E+03  1.171939758E+03  0.000000000E+00  0.00000E+00  9.000E+00
      21    -1     0     0   501   511  0.000000000E+00  0.000000000E+00 -3.473619011E+02  3.473619011E+02  0.000000000E+00  0.00000E+00  9.000E+00
      25     1     1     2     0     0 -1.785521390E+01  6.958364282E+01  3.683350062E+02  3.955456596E+02  1.250000000E+02  0.00000E+00  9.000E+00
      25     1     1     2     0     0 -8.166397893E+00 -7.995953495E+01  7.824046878E+02  7.963933154E+02  1.250000000E+02  0.00000E+00  9.000E+00
      21     1     1     2   502   511  2.602161179E+01  1.037589213E+01 -3.261618368E+02  3.273626845E+02  1.144409180E-05  0.00000E+00  9.000E+00
#rwgt            1           1   3.7403267368938488E-002          10      498774           0
</event>
<event>
      5   9999  3.79277E-02  1.38761E+01 -1.00000E+00  1.80631E-01
      21    -1     0     0   502   501  0.000000000E+00  0.000000000E+00  1.700436657E+03  1.700436657E+03  0.000000000E+00  0.00000E+00  9.000E+00
      21    -1     0     0   501   512  0.000000000E+00  0.000000000E+00 -9.510550091E+01  9.510550091E+01  0.000000000E+00  0.00000E+00  9.000E+00
      25     1     1     2     0     0  3.465936161E+01 -3.019914232E+02  6.676145234E+02  7.441332158E+02  1.250000000E+02  0.00000E+00  9.000E+00
      25     1     1     2     0     0 -4.505881199E+01  3.111782096E+02  9.640166742E+02  1.021672806E+03  1.250000000E+02  0.00000E+00  9.000E+00
      21     1     1     2   502   512  1.039945038E+01 -9.186786395E+00 -2.630004139E+01  2.973613609E+01  0.000000000E+00  0.00000E+00  9.000E+00
#rwgt            1           1   3.5056201734019979E-002          10      498872           0
</event>
<event>
      5   9999  3.79277E-02  3.04003E+01 -1.00000E+00  1.52641E-01
      21    -1     0     0   502   501  0.000000000E+00  0.000000000E+00  2.148704697E+03  2.148704697E+03  0.000000000E+00  0.00000E+00  9.000E+00
      21    -1     0     0   511   502  0.000000000E+00  0.000000000E+00 -9.577650608E+01  9.577650608E+01  0.000000000E+00  0.00000E+00  9.000E+00
      25     1     1     2     0     0  1.184635622E+02  2.106741274E+02  1.812363935E+03  1.832677068E+03  1.250000000E+02  0.00000E+00  9.000E+00
      25     1     1     2     0     0 -1.443854797E+02 -2.265559290E+02  2.401392811E+02  3.814008784E+02  1.250000000E+02  0.00000E+00  9.000E+00
      21     1     1     2   511   501  2.592191747E+01  1.588180163E+01  4.249752854E-01  3.040325694E+01  3.985538348E-07  0.00000E+00  9.000E+00
#rwgt            1           1   3.2314066170855062E-002          10      499083           0
</event>
<event>
      5   9999  3.79277E-02  7.89164E+01 -1.00000E+00  1.28637E-01
      21    -1     0     0   502   501  0.000000000E+00  0.000000000E+00  9.590130957E+02  9.590130957E+02  0.000000000E+00  0.00000E+00  9.000E+00
      21    -1     0     0   512   502  0.000000000E+00  0.000000000E+00 -3.140940912E+02  3.140940912E+02  0.000000000E+00  0.00000E+00  9.000E+00
      25     1     1     2     0     0 -2.996950552E+02 -1.587738727E+02 -1.314373285E+01  3.616960416E+02  1.250000000E+02  0.00000E+00  9.000E+00
      25     1     1     2     0     0  2.540516046E+02  2.231515008E+02  7.238598024E+02  8.086636035E+02  1.250000000E+02  0.00000E+00  9.000E+00
      21     1     1     2   512   501  4.564345056E+01 -6.437762807E+01 -6.579706511E+01  1.027475418E+02  2.336015456E-06  0.00000E+00  9.000E+00
#rwgt            1           1  0.11778608111667194               10      499473           0
</event>
<event>
      5   9999  3.79277E-02  6.19565E+01 -1.00000E+00  1.33963E-01
      21    -1     0     0   511   501  0.000000000E+00  0.000000000E+00  3.536543627E+02  3.536543627E+02  0.000000000E+00  0.00000E+00  9.000E+00
      21    -1     0     0   501   502  0.000000000E+00  0.000000000E+00 -1.968926953E+02  1.968926953E+02  0.000000000E+00  0.00000E+00  9.000E+00
      25     1     1     2     0     0  1.491055825E+01  1.476337945E+02  4.759751784E+01  1.997713336E+02  1.250000000E+02  0.00000E+00  9.000E+00
      25     1     1     2     0     0  1.825149054E+01 -1.999681333E+02  1.364282361E+01  2.369208684E+02  1.250000000E+02  0.00000E+00  9.000E+00
      21     1     1     2   511   502 -3.316204879E+01  5.233433885E+01  9.552132604E+01  1.138548560E+02  1.907348633E-06  0.00000E+00  9.000E+00
#rwgt            1           1   3.7033057554969079E-002          10      499709           0
</event>
<event>
      5   9999  3.79277E-02  2.49768E+01 -1.00000E+00  1.58781E-01
      21    -1     0     0   502   512  0.000000000E+00  0.000000000E+00  5.815618162E+02  5.815618162E+02  0.000000000E+00  0.00000E+00  9.000E+00
      21    -1     0     0   501   502  0.000000000E+00  0.000000000E+00 -2.357445861E+02  2.357445861E+02  0.000000000E+00  0.00000E+00  9.000E+00
      25     1     1     2     0     0  4.258817996E+01  1.549939225E+02  1.818620850E+02  2.730122470E+02  1.250000000E+02  0.00000E+00  9.000E+00
      25     1     1     2     0     0 -2.398180454E+01 -1.716566040E+02 -1.294374750E+02  2.498403021E+02  1.250000000E+02  0.00000E+00  9.000E+00
      21     1     1     2   501   512 -1.860637542E+01  1.666268150E+01  2.933926201E+02  2.944538532E+02  5.394796609E-06  0.00000E+00  9.000E+00
#rwgt            1           1   3.7939918897702186E-002          10      499824           0
</event>
<event>
      5   9999 -3.79277E-02  4.92488E+01 -1.00000E+00  1.39452E-01
      21    -1     0     0   502   501  0.000000000E+00  0.000000000E+00  3.632714297E+02  3.632714297E+02  0.000000000E+00  0.00000E+00  9.000E+00
       1    -1     0     0   501     0  0.000000000E+00  0.000000000E+00 -7.727097421E+02  7.727097421E+02  0.000000000E+00  0.00000E+00  9.000E+00
      25     1     1     2     0     0  1.009000688E+02 -1.042117505E+02  2.127695482E+01  1.926619361E+02  1.250000000E+02  0.00000E+00  9.000E+00
      25     1     1     2     0     0 -9.578460720E+01  1.531941414E+02  2.080981283E+02  3.026102559E+02  1.250000000E+02  0.00000E+00  9.000E+00
       1     1     1     2   502     0 -5.115461569E+00 -4.898239095E+01 -6.388133955E+02  6.407089798E+02  7.629394531E-06  0.00000E+00  9.000E+00
#rwgt            1           1  -3.5275704061563440E-002          10      499986           0
</event>
<event>
      5   9999  3.79277E-02  3.44027E+01 -1.00000E+00  1.49021E-01
      21    -1     0     0   502   511  0.000000000E+00  0.000000000E+00  1.934661920E+02  1.934661920E+02  0.000000000E+00  0.00000E+00  9.000E+00
      21    -1     0     0   501   502  0.000000000E+00  0.000000000E+00 -2.841142248E+02  2.841142248E+02  0.000000000E+00  0.00000E+00  9.000E+00
      25     1     1     2     0     0  1.250407313E+02  1.236197859E+02 -1.240185137E+02  2.488425761E+02  1.250000000E+02  0.00000E+00  9.000E+00
      25     1     1     2     0     0 -1.074365208E+02 -9.406239373E+01  1.670446286E+01  1.905108369E+02  1.250000000E+02  0.00000E+00  9.000E+00
      21     1     1     2   501   511 -1.760421051E+01 -2.955739217E+01  1.666601809E+01  3.822700379E+01  4.129530925E-07  0.00000E+00  9.000E+00
#rwgt            1           1  0.26249255014184275               10      500073           0
</event>
<event>
      5   9999  3.79277E-02  6.76196E+01 -1.00000E+00  1.31986E-01
      21    -1     0     0   502   512  0.000000000E+00  0.000000000E+00  6.111568765E+01  6.111568765E+01  0.000000000E+00  0.00000E+00  9.000E+00
      21    -1     0     0   501   502  0.000000000E+00  0.000000000E+00 -6.831555984E+02  6.831555984E+02  0.000000000E+00  0.00000E+00  9.000E+00
      25     1     1     2     0     0  3.130877809E+01  8.041117269E+00 -3.944060042E+02  4.150011991E+02  1.250000000E+02  0.00000E+00  9.000E+00
      25     1     1     2     0     0 -4.459062091E+01 -7.434349754E+01 -2.101462340E+02  2.594257481E+02  1.250000000E+02  0.00000E+00  9.000E+00
      21     1     1     2   501   512  1.328184283E+01  6.630238027E+01 -1.748767258E+01  6.984433886E+01  1.327458468E-06  0.00000E+00  9.000E+00
#rwgt            1           1   8.3486616625236876E-002          10      500203           0
</event>
<event>
      5   9999  3.79277E-02  3.28652E+01 -1.00000E+00  1.50338E-01
      21    -1     0     0   502   511  0.000000000E+00  0.000000000E+00  1.810985904E+02  1.810985904E+02  0.000000000E+00  0.00000E+00  9.000E+00
      21    -1     0     0   501   502  0.000000000E+00  0.000000000E+00 -3.669819516E+02  3.669819516E+02  0.000000000E+00  0.00000E+00  9.000E+00
      25     1     1     2     0     0 -8.866102728E+01  1.486311036E+02 -1.950460233E+02  2.891711153E+02  1.250000000E+02  0.00000E+00  9.000E+00
      25     1     1     2     0     0  6.024238308E+01 -1.651386823E+02 -1.775779922E+01  2.164261272E+02  1.250000000E+02  0.00000E+00  9.000E+00
      21     1     1     2   501   511  2.841864420E+01  1.650757866E+01  2.692046132E+01  4.248329942E+01  4.768371582E-07  0.00000E+00  9.000E+00
#rwgt            1           1   4.0673609779228063E-002          10      500316           0
</event>
<event>
      5   9999  3.79277E-02  9.92782E+01 -1.00000E+00  1.23970E-01
      21    -1     0     0   502   501  0.000000000E+00  0.000000000E+00  1.590048195E+02  1.590048195E+02  0.000000000E+00  0.00000E+00  9.000E+00
      21    -1     0     0   501   512  0.000000000E+00  0.000000000E+00 -5.306842518E+02  5.306842518E+02  0.000000000E+00  0.00000E+00  9.000E+00
      25     1     1     2     0     0  3.802920594E+01  1.896346518E+02 -2.388384377E+02  3.317775173E+02  1.250000000E+02  0.00000E+00  9.000E+00
      25     1     1     2     0     0 -1.239771131E+02 -1.399444382E+02 -5.440248675E+01  2.313858269E+02  1.250000000E+02  0.00000E+00  9.000E+00
      21     1     1     2   502   512  8.594790713E+01 -4.969021367E+01 -7.843850799E+01  1.265257271E+02  9.536743164E-07  0.00000E+00  9.000E+00
#rwgt            2          11   2.6289036873633456E-003          10      501024           0
</event>
<event>
      5   9999  3.79277E-02  6.96506E+01 -1.00000E+00  1.31331E-01
      21    -1     0     0   502   511  0.000000000E+00  0.000000000E+00  2.576123528E+03  2.576123528E+03  0.000000000E+00  0.00000E+00  9.000E+00
      21    -1     0     0   501   502  0.000000000E+00  0.000000000E+00 -4.153486086E+01  4.153486086E+01  0.000000000E+00  0.00000E+00  9.000E+00
      25     1     1     2     0     0  9.595997642E+01  4.232661537E+01  1.071070856E+03  1.083428649E+03  1.250000000E+02  0.00000E+00  9.000E+00
      25     1     1     2     0     0 -3.486187583E+01 -7.576649314E+01  1.294317034E+02  1.983266944E+02  1.250000000E+02  0.00000E+00  9.000E+00
      21     1     1     2   501   511 -6.109810058E+01  3.343987778E+01  1.334086108E+03  1.335903045E+03  0.000000000E+00  0.00000E+00  9.000E+00
#rwgt            1           1   4.2338140741133956E-002          10      501149           0
</event>
<event>
      5   9999  3.79277E-02  1.87338E+01 -1.00000E+00  1.68747E-01
      21    -1     0     0   502   501  0.000000000E+00  0.000000000E+00  4.449034898E+02  4.449034898E+02  0.000000000E+00  0.00000E+00  9.000E+00
      21    -1     0     0   512   502  0.000000000E+00  0.000000000E+00 -3.157091391E+02  3.157091391E+02  0.000000000E+00  0.00000E+00  9.000E+00
      25     1     1     2     0     0  1.452420624E+02  2.888209878E+02  1.545327081E+02  3.794972695E+02  1.250000000E+02  0.00000E+00  9.000E+00
      25     1     1     2     0     0 -1.337647488E+02 -3.036272584E+02 -6.593361338E+00  3.546138639E+02  1.250000000E+02  0.00000E+00  9.000E+00
      21     1     1     2   512   501 -1.147731359E+01  1.480627061E+01 -1.874499616E+01  2.650149539E+01  2.384185791E-07  0.00000E+00  9.000E+00
#rwgt            1           1   3.0221108831242519E-002          10      501371           0
</event>
<event>
      5   9999 -3.79277E-02  5.07145E+01 -1.00000E+00  1.38725E-01
      21    -1     0     0   511   501  0.000000000E+00  0.000000000E+00  8.836985927E+01  8.836985927E+01  0.000000000E+00  0.00000E+00  9.000E+00
      21    -1     0     0   501   502  0.000000000E+00  0.000000000E+00 -8.648715493E+02  8.648715493E+02  0.000000000E+00  0.00000E+00  9.000E+00
      25     1     1     2     0     0 -9.206902036E+01  1.404859785E+02 -1.043842366E+02  2.339531652E+02  1.250000000E+02  0.00000E+00  9.000E+00
      25     1     1     2     0     0  4.427831191E+01 -1.235152223E+02 -6.224855906E+02  6.483285352E+02  1.250000000E+02  0.00000E+00  9.000E+00
      21     1     1     2   511   502  4.779070845E+01 -1.697075617E+01 -4.963186290E+01  7.095970825E+01  6.743495762E-07  0.00000E+00  9.000E+00
#rwgt            1           1 -0.14142085223833703               10      501581           0
</event>
<event>
      5   9999  3.79277E-02  7.40256E+01 -1.00000E+00  1.30003E-01
      21    -1     0     0   502   501  0.000000000E+00  0.000000000E+00  9.802498264E+02  9.802498264E+02  0.000000000E+00  0.00000E+00  9.000E+00
      21    -1     0     0   512   502  0.000000000E+00  0.000000000E+00 -1.273282609E+02  1.273282609E+02  0.000000000E+00  0.00000E+00  9.000E+00
      25     1     1     2     0     0 -3.579786771E+01  1.795191207E+02  4.493491870E+02  5.010471973E+02  1.250000000E+02  0.00000E+00  9.000E+00
      25     1     1     2     0     0  8.687691919E+01 -1.259399805E+02  4.682541039E+02  5.082276888E+02  1.250000000E+02  0.00000E+00  9.000E+00
      21     1     1     2   512   501 -5.107905148E+01 -5.357914024E+01 -6.468172548E+01  9.830320127E+01  0.000000000E+00  0.00000E+00  9.000E+00
#rwgt            1           1   4.3780323777770566E-002          10      501719           0
</event>
<event>
      5   9999  3.79277E-02  3.06033E+01 -1.00000E+00  1.52442E-01
      21    -1     0     0   511   501  0.000000000E+00  0.000000000E+00  4.655850089E+01  4.655850089E+01  0.000000000E+00  0.00000E+00  9.000E+00
      21    -1     0     0   501   502  0.000000000E+00  0.000000000E+00 -1.107372574E+03  1.107372574E+03  0.000000000E+00  0.00000E+00  9.000E+00
      25     1     1     2     0     0 -4.171394802E+01  1.163686248E+02 -4.137023525E+02  4.495067817E+02  1.250000000E+02  0.00000E+00  9.000E+00
      25     1     1     2     0     0  5.676661138E+01 -1.430140629E+02 -6.438131874E+02  6.736437416E+02  1.250000000E+02  0.00000E+00  9.000E+00
      21     1     1     2   511   502 -1.505266336E+01  2.664543816E+01 -3.298533443E+00  3.078055184E+01  5.654593098E-07  0.00000E+00  9.000E+00
#rwgt            1           1   6.5147946612494123E-002          10      501787           0
</event>
<event>
      5   9999  3.79277E-02  1.77663E+02 -1.00000E+00  1.13553E-01
      21    -1     0     0   512   501  0.000000000E+00  0.000000000E+00  9.342765459E+02  9.342765459E+02  0.000000000E+00  0.00000E+00  9.000E+00
      21    -1     0     0   501   502  0.000000000E+00  0.000000000E+00 -1.600324690E+02  1.600324690E+02  0.000000000E+00  0.00000E+00  9.000E+00
      25     1     1     2     0     0  8.211701502E+01 -2.179269880E+02  1.601678919E+02  3.090536035E+02  1.250000000E+02  0.00000E+00  9.000E+00
      25     1     1     2     0     0 -1.352803639E+02  4.840499371E+01  5.440535236E+01  1.980625221E+02  1.250000000E+02  0.00000E+00  9.000E+00
      21     1     1     2   512   502  5.316334893E+01  1.695219943E+02  5.596708327E+02  5.871928893E+02  1.078959322E-05  0.00000E+00  9.000E+00
#rwgt            2          11   1.6039483259363758E-003          10      502011           0
</event>
<event>
      5   9999 -3.79277E-02  1.33725E+01 -1.00000E+00  1.82215E-01
      21    -1     0     0   502   501  0.000000000E+00  0.000000000E+00  1.775951971E+02  1.775951971E+02  0.000000000E+00  0.00000E+00  9.000E+00
      21    -1     0     0   511   502  0.000000000E+00  0.000000000E+00 -1.618863167E+03  1.618863167E+03  0.000000000E+00  0.00000E+00  9.000E+00
      25     1     1     2     0     0  1.026608457E+02 -1.628987421E+02  8.355321168E+00  2.297173498E+02  1.250000000E+02  0.00000E+00  9.000E+00
      25     1     1     2     0     0 -9.288817778E+01  1.537708253E+02 -1.460847243E+02  2.631338575E+02  1.250000000E+02  0.00000E+00  9.000E+00
      21     1     1     2   511   501 -9.772667926E+00  9.127916769E+00 -1.303538567E+03  1.303607157E+03  1.525878906E-05  0.00000E+00  9.000E+00
#rwgt            1           1  -5.5089421962031190E-002          10      502031           0
</event>
<event>
      5   9999  3.79277E-02  7.96101E+01 -1.00000E+00  1.28452E-01
      21    -1     0     0   502   501  0.000000000E+00  0.000000000E+00  5.829660597E+02  5.829660597E+02  0.000000000E+00  0.00000E+00  9.000E+00
      21    -1     0     0   512   502  0.000000000E+00  0.000000000E+00 -1.389918123E+02  1.389918123E+02  0.000000000E+00  0.00000E+00  9.000E+00
      25     1     1     2     0     0 -5.819139788E+01 -1.115281928E+02  2.588424020E+02  3.137661002E+02  1.250000000E+02  0.00000E+00  9.000E+00
      25     1     1     2     0     0  3.602836645E+01  1.879910039E+02  2.235935264E+02  3.197776193E+02  1.250000000E+02  0.00000E+00  9.000E+00
      21     1     1     2   512   501  2.216303144E+01 -7.646281118E+01 -3.846168096E+01  8.841415247E+01  2.023048729E-06  0.00000E+00  9.000E+00
#rwgt            1           1   4.6406709053985307E-002          10      502306           0
</event>
<event>
      5   9999  3.79277E-02  2.47202E+01 -1.00000E+00  1.59118E-01
      21    -1     0     0   502   501  0.000000000E+00  0.000000000E+00  8.624596634E+02  8.624596634E+02  0.000000000E+00  0.00000E+00  9.000E+00
      21    -1     0     0   501   511  0.000000000E+00  0.000000000E+00 -1.374234542E+02  1.374234542E+02  0.000000000E+00  0.00000E+00  9.000E+00
      25     1     1     2     0     0 -7.728135735E+01  1.063284250E+02  7.188899921E+02  7.414215824E+02  1.250000000E+02  0.00000E+00  9.000E+00
      25     1     1     2     0     0  8.144276625E+01 -8.196098668E+01  7.447307698E+01  1.858003410E+02  1.250000000E+02  0.00000E+00  9.000E+00
      21     1     1     2   502   511 -4.161408894E+00 -2.436743829E+01 -6.832685979E+01  7.266119419E+01  1.348699152E-06  0.00000E+00  9.000E+00
#rwgt            1           1   2.9595039554174564E-002          10      502383           0
</event>
<event>
      5   9999  3.79277E-02  2.84006E+01 -1.00000E+00  1.54711E-01
      21    -1     0     0   502   501  0.000000000E+00  0.000000000E+00  1.376027736E+02  1.376027736E+02  0.000000000E+00  0.00000E+00  9.000E+00
      21    -1     0     0   512   502  0.000000000E+00  0.000000000E+00 -3.978332212E+02  3.978332212E+02  0.000000000E+00  0.00000E+00  9.000E+00
      25     1     1     2     0     0  1.367512060E+02 -5.153466077E+01 -2.069716947E+02  2.825225584E+02  1.250000000E+02  0.00000E+00  9.000E+00
      25     1     1     2     0     0 -1.594733124E+02  6.857283665E+01 -2.960428341E+01  2.159522745E+02  1.250000000E+02  0.00000E+00  9.000E+00
      21     1     1     2   512   501  2.272210634E+01 -1.703817588E+01 -2.365446952E+01  3.696116181E+01  4.768371582E-07  0.00000E+00  9.000E+00
#rwgt            1           1   4.2926683120108118E-002          10      502467           0
</event>
<event>
      5   9999  3.79277E-02  1.68417E+02 -1.00000E+00  1.14435E-01
      21    -1     0     0   502   511  0.000000000E+00  0.000000000E+00  3.121462181E+02  3.121462181E+02  0.000000000E+00  0.00000E+00  9.000E+00
      21    -1     0     0   501   502  0.000000000E+00  0.000000000E+00 -9.251532874E+02  9.251532874E+02  0.000000000E+00  0.00000E+00  9.000E+00
      25     1     1     2     0     0  4.963449861E+00 -2.334746914E+02 -7.907000199E+02  8.338864365E+02  1.250000000E+02  0.00000E+00  9.000E+00
      25     1     1     2     0     0  1.613080111E+01  6.638400521E+01 -1.984508476E+01  1.438258192E+02  1.250000000E+02  0.00000E+00  9.000E+00
      21     1     1     2   501   511 -2.109425098E+01  1.670906862E+02  1.975380354E+02  2.595872498E+02  2.697398305E-06  0.00000E+00  9.000E+00
#rwgt            1           1   1.9428682888863538E-002          10      502591           0
</event>
<event>
      5   9999  3.79277E-02  1.24060E+02 -1.00000E+00  1.19758E-01
       1    -1     0     0   502     0  0.000000000E+00  0.000000000E+00  2.400000748E+03  2.400000748E+03  0.000000000E+00  0.00000E+00  9.000E+00
      21    -1     0     0   501   502  0.000000000E+00  0.000000000E+00 -6.523082094E+01  6.523082094E+01  0.000000000E+00  0.00000E+00  9.000E+00
      25     1     1     2     0     0  8.454035470E+01  1.663180963E+02  6.982081728E+02  7.334360458E+02  1.250000000E+02  0.00000E+00  9.000E+00
      25     1     1     2     0     0 -8.183495327E+01 -4.228770586E+01  8.840797514E+01  1.786789851E+02  1.250000000E+02  0.00000E+00  9.000E+00
       1     1     1     2   501     0 -2.705401425E+00 -1.240303904E+02  1.548153779E+03  1.553116538E+03  2.157918644E-05  0.00000E+00  9.000E+00
#rwgt            1           1   4.3522744534323997E-002          10      502729           0
</event>
<event>
      5   9999  3.79277E-02  4.15410E+01 -1.00000E+00  1.43829E-01
      21    -1     0     0   511   501  0.000000000E+00  0.000000000E+00  3.873137529E+02  3.873137529E+02  0.000000000E+00  0.00000E+00  9.000E+00
      21    -1     0     0   501   502  0.000000000E+00  0.000000000E+00 -3.551207037E+02  3.551207037E+02  0.000000000E+00  0.00000E+00  9.000E+00
      25     1     1     2     0     0 -2.907511502E+02 -1.406647576E+02  7.696486931E+01  3.547835911E+02  1.250000000E+02  0.00000E+00  9.000E+00
      25     1     1     2     0     0  2.964163552E+02  9.951182731E+01 -6.249881370E+01  3.424855634E+02  1.250000000E+02  0.00000E+00  9.000E+00
      21     1     1     2   511   502 -5.665204993E+00  4.115293026E+01  1.772699358E+01  4.516530214E+01  4.768371582E-07  0.00000E+00  9.000E+00
#rwgt            1           1   3.1374947768213916E-002          10      502864           0
</event>
<event>
      5   9999  3.79277E-02  1.33936E+01 -1.00000E+00  1.82147E-01
      21    -1     0     0   502   501  0.000000000E+00  0.000000000E+00  1.309764275E+02  1.309764275E+02  0.000000000E+00  0.00000E+00  9.000E+00
      21    -1     0     0   512   502  0.000000000E+00  0.000000000E+00 -4.278612584E+02  4.278612584E+02  0.000000000E+00  0.00000E+00  9.000E+00
      25     1     1     2     0     0 -1.415853239E+02 -9.418065765E+01 -1.774660435E+02  2.757455291E+02  1.250000000E+02  0.00000E+00  9.000E+00
      25     1     1     2     0     0  1.468361957E+02  1.065020675E+02 -6.888112890E+01  2.308098106E+02  1.250000000E+02  0.00000E+00  9.000E+00
      21     1     1     2   512   501 -5.250871775E+00 -1.232140981E+01 -5.053765847E+01  5.228234614E+01  9.536743164E-07  0.00000E+00  9.000E+00
#rwgt            1           1   1.8860110475318846E-002          10      503050           0
</event>
<event>
      5   9999  3.79277E-02  3.46781E+01 -1.00000E+00  1.48793E-01
      21    -1     0     0   502   501  0.000000000E+00  0.000000000E+00  3.296827266E+02  3.296827266E+02  0.000000000E+00  0.00000E+00  9.000E+00
      21    -1     0     0   511   502  0.000000000E+00  0.000000000E+00 -6.494485086E+02  6.494485086E+02  0.000000000E+00  0.00000E+00  9.000E+00
      25     1     1     2     0     0  1.956562033E+02 -2.323303221E+02  1.754074727E+02  3.723593828E+02  1.250000000E+02  0.00000E+00  9.000E+00
      25     1     1     2     0     0 -1.618398198E+02  2.400129683E+02 -4.567071294E+02  5.549817603E+02  1.250000000E+02  0.00000E+00  9.000E+00
      21     1     1     2   511   501 -3.381638341E+01 -7.682646157E+00 -3.846612537E+01  5.179009210E+01  6.743495762E-07  0.00000E+00  9.000E+00
#rwgt            1           1   3.5857139079165164E-002          10      503261           0
</event>
<event>
      5   9999  3.79277E-02  4.25457E+01 -1.00000E+00  1.43198E-01
      21    -1     0     0   502   501  0.000000000E+00  0.000000000E+00  4.559111276E+02  4.559111276E+02  0.000000000E+00  0.00000E+00  9.000E+00
      21    -1     0     0   501   512  0.000000000E+00  0.000000000E+00 -2.211472089E+02  2.211472089E+02  0.000000000E+00  0.00000E+00  9.000E+00
      25     1     1     2     0     0 -8.888544565E+01 -1.773384697E+01  3.690722121E+02  4.000680062E+02  1.250000000E+02  0.00000E+00  9.000E+00
      25     1     1     2     0     0  6.665914123E+01  5.401236077E+01 -1.743009648E+01  1.526092543E+02  1.250000000E+02  0.00000E+00  9.000E+00
      21     1     1     2   502   512  2.222630442E+01 -3.627851380E+01 -1.168781969E+02  1.243810761E+02  0.000000000E+00  0.00000E+00  9.000E+00
#rwgt            1           1   4.4143716481061607E-002          10      503490           0
</event>
<event>
      5   9999  3.79277E-02  5.53448E+01 -1.00000E+00  1.36605E-01
      21    -1     0     0   502   501  0.000000000E+00  0.000000000E+00  1.849782516E+02  1.849782516E+02  0.000000000E+00  0.00000E+00  9.000E+00
      21    -1     0     0   511   502  0.000000000E+00  0.000000000E+00 -1.142193711E+03  1.142193711E+03  0.000000000E+00  0.00000E+00  9.000E+00
      25     1     1     2     0     0 -2.949385256E+02 -8.125590128E+01 -2.232899398E+01  3.312323042E+02  1.250000000E+02  0.00000E+00  9.000E+00
      25     1     1     2     0     0  2.396147101E+02  7.973165066E+01 -6.991979243E+02  7.538402236E+02  1.250000000E+02  0.00000E+00  9.000E+00
      21     1     1     2   511   501  5.532381550E+01  1.524250621E+00 -2.356885415E+02  2.420994351E+02  0.000000000E+00  0.00000E+00  9.000E+00
#rwgt            1           1   8.1408018865865669E-002          10      503575           0
</event>
<event>
      5   9999  3.79277E-02  5.91839E+01 -1.00000E+00  1.35022E-01
      21    -1     0     0   502   501  0.000000000E+00  0.000000000E+00  6.621119938E+02  6.621119938E+02  0.000000000E+00  0.00000E+00  9.000E+00
      21    -1     0     0   501   512  0.000000000E+00  0.000000000E+00 -3.349191622E+02  3.349191622E+02  0.000000000E+00  0.00000E+00  9.000E+00
      25     1     1     2     0     0  2.585240721E-01 -6.429183628E+01 -6.119610175E+01  1.533084144E+02  1.250000000E+02  0.00000E+00  9.000E+00
      25     1     1     2     0     0 -2.299767779E+01  9.650579340E+00  6.054581854E+02  6.187298612E+02  1.250000000E+02  0.00000E+00  9.000E+00
      21     1     1     2   502   512  2.273915372E+01  5.464125694E+01 -2.170692520E+02  2.249928804E+02  2.697398305E-06  0.00000E+00  9.000E+00
#rwgt            1           1   3.9108304159174823E-002          10      503722           0
</event>
<event>
      5   9999  3.79277E-02  4.18410E+01 -1.00000E+00  1.43639E-01
      21    -1     0     0   502   501  0.000000000E+00  0.000000000E+00  3.011143533E+02  3.011143533E+02  0.000000000E+00  0.00000E+00  9.000E+00
      21    -1     0     0   501   511  0.000000000E+00  0.000000000E+00 -1.708434728E+02  1.708434728E+02  0.000000000E+00  0.00000E+00  9.000E+00
      25     1     1     2     0     0  1.557994995E+02 -2.504938361E+01  9.767937368E+01  2.237570461E+02  1.250000000E+02  0.00000E+00  9.000E+00
      25     1     1     2     0     0 -1.448195954E+02 -1.532525366E+01  5.643394627E+01  2.000434175E+02  1.250000000E+02  0.00000E+00  9.000E+00
      21     1     1     2   502   511 -1.097990407E+01  4.037463727E+01 -2.384243947E+01  4.815736234E+01  8.920806376E-07  0.00000E+00  9.000E+00
#rwgt            1           1   3.8528396203463197E-002          10      503988           0
</event>
<event>
      5   9999  3.79277E-02  5.79598E+01 -1.00000E+00  1.35511E-01
      21    -1     0     0   512   501  0.000000000E+00  0.000000000E+00  1.087304138E+02  1.087304138E+02  0.000000000E+00  0.00000E+00  9.000E+00
      21    -1     0     0   501   502  0.000000000E+00  0.000000000E+00 -3.699114141E+02  3.699114141E+02  0.000000000E+00  0.00000E+00  9.000E+00
      25     1     1     2     0     0 -5.267737248E+01 -4.936797966E+01  1.640417529E-01  1.443507184E+02  1.250000000E+02  0.00000E+00  9.000E+00
      25     1     1     2     0     0 -8.290576618E-01  2.708785609E+01 -2.410479080E+02  2.728800711E+02  1.250000000E+02  0.00000E+00  9.000E+00
      21     1     1     2   512   502  5.350643014E+01  2.228012357E+01 -2.029713407E+01  6.141103830E+01  8.920806376E-07  0.00000E+00  9.000E+00
#rwgt            1           1   4.8922128761779531E-002          10      504096           0
</event>
<event>
      5   9999  3.79277E-02  2.50312E+01 -1.00000E+00  1.58710E-01
      21    -1     0     0   502   511  0.000000000E+00  0.000000000E+00  8.703775664E+01  8.703775664E+01  0.000000000E+00  0.00000E+00  9.000E+00
      21    -1     0     0   501   502  0.000000000E+00  0.000000000E+00 -1.923132539E+03  1.923132539E+03  0.000000000E+00  0.00000E+00  9.000E+00
      25     1     1     2     0     0  1.769503774E+02  4.036678742E+01 -7.740237955E+01  2.335744891E+02  1.250000000E+02  0.00000E+00  9.000E+00
      25     1     1     2     0     0 -1.519268350E+02 -4.098779820E+01 -1.710738922E+03  1.722502372E+03  1.250000000E+02  0.00000E+00  9.000E+00
      21     1     1     2   501   511 -2.502354238E+01  6.210107722E-01 -4.795348078E+01  5.409343442E+01  9.536743164E-07  0.00000E+00  9.000E+00
#rwgt            1           1   5.0813147857787642E-002          10      504174           0
</event>
<event>
      5   9999  3.79277E-02  7.39818E+00 -1.00000E+00  2.12213E-01
      21    -1     0     0   502   501  0.000000000E+00  0.000000000E+00  1.764274921E+02  1.764274921E+02  0.000000000E+00  0.00000E+00  9.000E+00
      21    -1     0     0   501   512  0.000000000E+00  0.000000000E+00 -8.033009803E+02  8.033009803E+02  0.000000000E+00  0.00000E+00  9.000E+00
      25     1     1     2     0     0  1.446537584E+02  3.003078302E+02 -3.218657850E+02  4.799292513E+02  1.250000000E+02  0.00000E+00  9.000E+00
      25     1     1     2     0     0 -1.449342680E+02 -3.077006908E+02 -2.406048122E+02  4.349727955E+02  1.250000000E+02  0.00000E+00  9.000E+00
      21     1     1     2   502   512  2.805095962E-01  7.392860584E+00 -6.440289100E+01  6.482642549E+01  9.536743164E-07  0.00000E+00  9.000E+00
#rwgt            1           1   4.4773374712801288E-002          10      504400           0
</event>
<event>
      5   9999  3.79277E-02  2.06692E+02 -1.00000E+00  1.11130E-01
      21    -1     0     0   502   501  0.000000000E+00  0.000000000E+00  9.700261392E+02  9.700261392E+02  0.000000000E+00  0.00000E+00  9.000E+00
      21    -1     0     0   511   502  0.000000000E+00  0.000000000E+00 -8.469387888E+02  8.469387888E+02  0.000000000E+00  0.00000E+00  9.000E+00
      25     1     1     2     0     0  2.762096181E+02 -6.215186089E+01  4.111820931E+02  5.146361051E+02  1.250000000E+02  0.00000E+00  9.000E+00
      25     1     1     2     0     0 -8.331539669E+01  1.364032486E+02  4.724595833E+02  5.141890308E+02  1.250000000E+02  0.00000E+00  9.000E+00
      21     1     1     2   511   501 -1.928942215E+02 -7.425138767E+01 -7.605543259E+02  7.881397921E+02  0.000000000E+00  0.00000E+00  9.000E+00
#rwgt            1           1   2.7222719152391196E-002          10      504786           0
</event>
<event>
      5   9999  3.79277E-02  2.48290E+01 -1.00000E+00  1.58974E-01
      21    -1     0     0   502   512  0.000000000E+00  0.000000000E+00  1.267490017E+02  1.267490017E+02  0.000000000E+00  0.00000E+00  9.000E+00
      21    -1     0     0   501   502  0.000000000E+00  0.000000000E+00 -4.371628409E+02  4.371628409E+02  0.000000000E+00  0.00000E+00  9.000E+00
      25     1     1     2     0     0 -1.197448083E+02 -1.012837027E+02 -2.421747266E+02  3.144372843E+02  1.250000000E+02  0.00000E+00  9.000E+00
      25     1     1     2     0     0  1.439656158E+02  9.582183057E+01 -7.002724166E+01  2.245812466E+02  1.250000000E+02  0.00000E+00  9.000E+00
      21     1     1     2   501   512 -2.422080748E+01  5.461872137E+00  1.788129106E+00  2.489331171E+01  3.775614339E-07  0.00000E+00  9.000E+00
#rwgt            1           1   2.4933046523386206E-002          10      504894           0
</event>
<event>
      5   9999  3.79277E-02  1.15052E+02 -1.00000E+00  1.21150E-01
      21    -1     0     0   502   501  0.000000000E+00  0.000000000E+00  1.825660793E+02  1.825660793E+02  0.000000000E+00  0.00000E+00  9.000E+00
      21    -1     0     0   501   511  0.000000000E+00  0.000000000E+00 -3.396405052E+02  3.396405052E+02  0.000000000E+00  0.00000E+00  9.000E+00
      25     1     1     2     0     0 -3.125212526E+01 -7.791407330E+01  1.058578581E+00  1.505769529E+02  1.250000000E+02  0.00000E+00  9.000E+00
      25     1     1     2     0     0 -2.062001839E+01  1.806091469E+02 -1.147376665E+02  2.486656012E+02  1.250000000E+02  0.00000E+00  9.000E+00
      21     1     1     2   502   511  5.187214365E+01 -1.026950736E+02 -4.339533807E+01  1.229640305E+02  2.697398305E-06  0.00000E+00  9.000E+00
#rwgt            2          11   2.4083453550879257E-003          10      505041           0
</event>
<event>
      5   9999  3.79277E-02  4.41415E+01 -1.00000E+00  1.42236E-01
      21    -1     0     0   502   501  0.000000000E+00  0.000000000E+00  4.934365974E+02  4.934365974E+02  0.000000000E+00  0.00000E+00  9.000E+00
      21    -1     0     0   501   512  0.000000000E+00  0.000000000E+00 -1.850629620E+02  1.850629620E+02  0.000000000E+00  0.00000E+00  9.000E+00
      25     1     1     2     0     0  9.526375057E+01  1.789068340E+01 -1.052272038E+02  1.899816390E+02  1.250000000E+02  0.00000E+00  9.000E+00
      25     1     1     2     0     0 -1.387788719E+02 -2.530047807E+01  4.002397411E+02  4.423986210E+02  1.250000000E+02  0.00000E+00  9.000E+00
      21     1     1     2   502   512  4.351512136E+01  7.409794672E+00  1.336109813E+01  4.611929951E+01  4.129530925E-07  0.00000E+00  9.000E+00
#rwgt            1           1   4.8374079396918825E-002          10      505106           0
</event>
<event>
      5   9999 -3.79277E-02  3.07158E+01 -1.00000E+00  1.52332E-01
      21    -1     0     0   511   501  0.000000000E+00  0.000000000E+00  8.674181373E+01  8.674181373E+01  0.000000000E+00  0.00000E+00  9.000E+00
      21    -1     0     0   501   502  0.000000000E+00  0.000000000E+00 -6.209260606E+02  6.209260606E+02  0.000000000E+00  0.00000E+00  9.000E+00
      25     1     1     2     0     0 -1.802765330E+01  1.470799077E+02 -1.617640162E+02  2.524878066E+02  1.250000000E+02  0.00000E+00  9.000E+00
      25     1     1     2     0     0  3.679229503E+01 -1.713975097E+02 -3.646961061E+02  4.235080036E+02  1.250000000E+02  0.00000E+00  9.000E+00
      21     1     1     2   511   502 -1.876464173E+01  2.431760204E+01 -7.724124552E+00  3.167206417E+01  5.717076687E-07  0.00000E+00  9.000E+00
#rwgt            1           1  -6.2957792944817847E-002          10      505273           0
</event>
<event>
      5   9999  3.79277E-02  3.20032E+01 -1.00000E+00  1.51115E-01
      21    -1     0     0   512   501  0.000000000E+00  0.000000000E+00  7.591842031E+01  7.591842031E+01  0.000000000E+00  0.00000E+00  9.000E+00
      21    -1     0     0   501   502  0.000000000E+00  0.000000000E+00 -2.425696404E+03  2.425696404E+03  0.000000000E+00  0.00000E+00  9.000E+00
      25     1     1     2     0     0  6.222737287E+00  7.407639187E+01 -2.305591097E+02  2.725959232E+02  1.250000000E+02  0.00000E+00  9.000E+00
      25     1     1     2     0     0 -3.817522126E+01 -7.587825094E+01 -2.166587769E+03  2.171852301E+03  1.250000000E+02  0.00000E+00  9.000E+00
      21     1     1     2   512   502  3.195248398E+01  1.801859066E+00  4.736889513E+01  5.716659999E+01  3.932099939E-06  0.00000E+00  9.000E+00
#rwgt            1           1   8.4239643150348625E-002          10      505429           0
</event>
<event>
      5   9999  3.79277E-02  1.03336E+02 -1.00000E+00  1.23190E-01
      21    -1     0     0   511   501  0.000000000E+00  0.000000000E+00  3.647560418E+02  3.647560418E+02  0.000000000E+00  0.00000E+00  9.000E+00
      21    -1     0     0   501   502  0.000000000E+00  0.000000000E+00 -6.412845586E+02  6.412845586E+02  0.000000000E+00  0.00000E+00  9.000E+00
      25     1     1     2     0     0  7.976054594E+01  9.111740986E+01 -5.632957449E+02  5.895686756E+02  1.250000000E+02  0.00000E+00  9.000E+00
      25     1     1     2     0     0  3.499734682E+00 -2.991323261E+01  1.965827511E+01  1.300711244E+02  1.250000000E+02  0.00000E+00  9.000E+00
      21     1     1     2   511   502 -8.326028063E+01 -6.120417725E+01  2.671089530E+02  2.864008003E+02  0.000000000E+00  0.00000E+00  9.000E+00
#rwgt            1           1   3.7157175856263443E-002          10      505615           0
</event>
<event>
      5   9999  3.79277E-02  1.22345E+01 -1.00000E+00  1.86149E-01
      21    -1     0     0   512   501  0.000000000E+00  0.000000000E+00  9.851402304E+02  9.851402304E+02  0.000000000E+00  0.00000E+00  9.000E+00
      21    -1     0     0   501   502  0.000000000E+00  0.000000000E+00 -3.724431230E+02  3.724431230E+02  0.000000000E+00  0.00000E+00  9.000E+00
      25     1     1     2     0     0 -2.471793749E+01  4.675243725E+01  3.059158644E+01  1.391316355E+02  1.250000000E+02  0.00000E+00  9.000E+00
      25     1     1     2     0     0  3.530501601E+01 -5.288397496E+01 -3.026747756E+02  3.335868384E+02  1.250000000E+02  0.00000E+00  9.000E+00
      21     1     1     2   512   502 -1.058707852E+01  6.131537708E+00  8.847802965E+02  8.848648796E+02  1.078959322E-05  0.00000E+00  9.000E+00
#rwgt            1           1   4.1778869941341903E-002          10      505711           0
</event>
<event>
      5   9999  3.79277E-02  3.04665E+01 -1.00000E+00  1.52576E-01
      21    -1     0     0   502   501  0.000000000E+00  0.000000000E+00  1.541620022E+03  1.541620022E+03  0.000000000E+00  0.00000E+00  9.000E+00
      21    -1     0     0   511   502  0.000000000E+00  0.000000000E+00 -1.021818275E+02  1.021818275E+02  0.000000000E+00  0.00000E+00  9.000E+00
      25     1     1     2     0     0  1.199464147E+02 -2.717459013E+02  4.972836316E+02  5.925782544E+02  1.250000000E+02  0.00000E+00  9.000E+00
      25     1     1     2     0     0 -1.384378956E+02  2.959589278E+02  9.558235923E+02  1.017831262E+03  1.250000000E+02  0.00000E+00  9.000E+00
      21     1     1     2   511   501  1.849148090E+01 -2.421302656E+01 -1.366902990E+01  3.339233294E+01  8.259061849E-07  0.00000E+00  9.000E+00
#rwgt            1           1   2.7449493886132950E-002          10      505922           0
</event>
<event>
      5   9999  3.79277E-02  4.37075E+01 -1.00000E+00  1.42492E-01
      -1    -1     0     0     0   501  0.000000000E+00  0.000000000E+00  1.038952601E+02  1.038952601E+02  0.000000000E+00  0.00000E+00  9.000E+00
      21    -1     0     0   501   502  0.000000000E+00  0.000000000E+00 -1.423236072E+03  1.423236072E+03  0.000000000E+00  0.00000E+00  9.000E+00
      25     1     1     2     0     0  8.533434616E+01  1.246900331E+02 -5.216207310E+02  5.572636198E+02  1.250000000E+02  0.00000E+00  9.000E+00
      25     1     1     2     0     0 -1.019647669E+02 -8.427004221E+01 -8.681259920E+02  8.869983042E+02  1.250000000E+02  0.00000E+00  9.000E+00
      -1     1     1     2     0   502  1.663042072E+01 -4.041999087E+01  7.040591082E+01  8.286940832E+01  9.536743164E-07  0.00000E+00  9.000E+00
#rwgt            1           1   4.8879483086902147E-002          10      506069           0
</event>
<event>
      5   9999  3.79277E-02  8.19156E+01 -1.00000E+00  1.27854E-01
      21    -1     0     0   502   501  0.000000000E+00  0.000000000E+00  6.974403968E+02  6.974403968E+02  0.000000000E+00  0.00000E+00  9.000E+00
      21    -1     0     0   511   502  0.000000000E+00  0.000000000E+00 -7.744855316E+02  7.744855316E+02  0.000000000E+00  0.00000E+00  9.000E+00
      25     1     1     2     0     0 -2.148196744E+01  7.983288664E+01  3.005654884E+01  1.528501254E+02  1.250000000E+02  0.00000E+00  9.000E+00
      25     1     1     2     0     0 -5.808153286E+01 -6.034388504E+01  5.942262518E+02  6.129801687E+02  1.250000000E+02  0.00000E+00  9.000E+00
      21     1     1     2   511   501  7.956350029E+01 -1.948900161E+01 -7.013279354E+02  7.060956342E+02  7.629394531E-06  0.00000E+00  9.000E+00
#rwgt            1           1   5.2216661536146652E-002          10      506225           0
</event>
<event>
      5   9999  3.79277E-02  1.12747E+02 -1.00000E+00  1.21529E-01
      21    -1     0     0   502   512  0.000000000E+00  0.000000000E+00  4.955759449E+02  4.955759449E+02  0.000000000E+00  0.00000E+00  9.000E+00
      21    -1     0     0   501   502  0.000000000E+00  0.000000000E+00 -3.635765228E+02  3.635765228E+02  0.000000000E+00  0.00000E+00  9.000E+00
      25     1     1     2     0     0 -9.207511082E+01  8.765094998E+01 -2.856931537E+02  3.367582117E+02  1.250000000E+02  0.00000E+00  9.000E+00
      25     1     1     2     0     0  8.509090282E+01  2.487988592E+01  9.435930333E+01  1.799670764E+02  1.250000000E+02  0.00000E+00  9.000E+00
      21     1     1     2   501   512  6.984207998E+00 -1.125308359E+02  3.233332726E+02  3.424271796E+02  3.814697266E-06  0.00000E+00  9.000E+00
#rwgt            1           1   4.6485353426445337E-002          10      506416           0
</event>
<event>
      5   9999  3.79277E-02  2.30998E+01 -1.00000E+00  1.61366E-01
      21    -1     0     0   511   501  0.000000000E+00  0.000000000E+00  2.540076640E+02  2.540076640E+02  0.000000000E+00  0.00000E+00  9.000E+00
      21    -1     0     0   501   502  0.000000000E+00  0.000000000E+00 -5.256959866E+02  5.256959866E+02  0.000000000E+00  0.00000E+00  9.000E+00
      25     1     1     2     0     0  1.041894085E+02 -1.442050870E+01  1.985806296E+02  2.571432488E+02  1.250000000E+02  0.00000E+00  9.000E+00
      25     1     1     2     0     0 -1.214927040E+02  2.972395456E+01 -4.668394530E+02  4.992074373E+02  1.250000000E+02  0.00000E+00  9.000E+00
      21     1     1     2   511   502  1.730329547E+01 -1.530344587E+01 -3.429499222E+00  2.335296458E+01  1.115100797E-07  0.00000E+00  9.000E+00
#rwgt            1           1   4.3775770236339190E-002          10      506487           0
</event>
<event>
      5   9999  3.79277E-02  8.90167E+01 -1.00000E+00  1.26144E-01
      21    -1     0     0   502   512  0.000000000E+00  0.000000000E+00  7.236671538E+02  7.236671538E+02  0.000000000E+00  0.00000E+00  9.000E+00
      21    -1     0     0   501   502  0.000000000E+00  0.000000000E+00 -1.781035761E+02  1.781035761E+02  0.000000000E+00  0.00000E+00  9.000E+00
      25     1     1     2     0     0 -7.598971328E+01  2.533549070E+01  3.296352346E+02  3.615255337E+02  1.250000000E+02  0.00000E+00  9.000E+00
      25     1     1     2     0     0  5.661261656E+01  6.154658502E+01 -1.202025860E+02  1.925269648E+02  1.250000000E+02  0.00000E+00  9.000E+00
      21     1     1     2   501   512  1.937709672E+01 -8.688207572E+01  3.361309292E+02  3.477182315E+02  5.394796609E-06  0.00000E+00  9.000E+00
#rwgt            1           1   4.2679789723337948E-002          10      506655           0
</event>
<event>
      5   9999  3.79277E-02  1.59575E+02 -1.00000E+00  1.15338E-01
      21    -1     0     0   502   511  0.000000000E+00  0.000000000E+00  4.256011265E+02  4.256011265E+02  0.000000000E+00  0.00000E+00  9.000E+00
      21    -1     0     0   501   502  0.000000000E+00  0.000000000E+00 -4.557226180E+02  4.557226180E+02  0.000000000E+00  0.00000E+00  9.000E+00
      25     1     1     2     0     0  7.895291958E+01 -2.361704480E+02 -2.053053752E+02  3.461001894E+02  1.250000000E+02  0.00000E+00  9.000E+00
      25     1     1     2     0     0 -2.371236817E+02  2.150479677E+02  1.441308237E+02  3.726552873E+02  1.250000000E+02  0.00000E+00  9.000E+00
      21     1     1     2   501   511  1.581707621E+02  2.112248026E+01  3.105306001E+01  1.625682678E+02  1.966049969E-06  0.00000E+00  9.000E+00
#rwgt            1           1   3.6972611136082821E-002          10      506845           0
</event>
<event>
      5   9999  3.79277E-02  3.64002E+01 -1.00000E+00  1.47427E-01
      21    -1     0     0   502   501  0.000000000E+00  0.000000000E+00  9.191235177E+02  9.191235177E+02  0.000000000E+00  0.00000E+00  9.000E+00
      21    -1     0     0   512   502  0.000000000E+00  0.000000000E+00 -9.716446502E+01  9.716446502E+01  0.000000000E+00  0.00000E+00  9.000E+00
      25     1     1     2     0     0 -1.004086254E+02 -1.232616758E+02  7.152913751E+01  2.145151517E+02  1.250000000E+02  0.00000E+00  9.000E+00
      25     1     1     2     0     0  8.281707766E+01  1.551288175E+02  7.273452468E+02  7.586697084E+02  1.250000000E+02  0.00000E+00  9.000E+00
      21     1     1     2   512   501  1.759154775E+01 -3.186714164E+01  2.308466835E+01  4.310312264E+01  8.920806376E-07  0.00000E+00  9.000E+00
#rwgt            1           1   4.4290037008815793E-002          10      506994           0
</event>
<event>
      5   9999  3.79277E-02  2.46618E+01 -1.00000E+00  1.59195E-01
      21    -1     0     0   502   501  0.000000000E+00  0.000000000E+00  3.144372350E+02  3.144372350E+02  0.000000000E+00  0.00000E+00  9.000E+00
      21    -1     0     0   501   511  0.000000000E+00  0.000000000E+00 -7.513832268E+02  7.513832268E+02  0.000000000E+00  0.00000E+00  9.000E+00
      25     1     1     2     0     0  3.048304717E+01  1.716527280E+02  9.895819166E+01  2.362447859E+02  1.250000000E+02  0.00000E+00  9.000E+00
      25     1     1     2     0     0 -3.611944792E+01 -1.476436333E+02  8.054021956E+01  2.126381526E+02  1.250000000E+02  0.00000E+00  9.000E+00
      21     1     1     2   502   511  5.636400747E+00 -2.400909466E+01 -6.164444030E+02  6.169375233E+02  1.078959322E-05  0.00000E+00  9.000E+00
#rwgt            1           1   3.6720361375029938E-002          10      507126           0
</event>
<event>
      5   9999  3.79277E-02  1.97184E+01 -1.00000E+00  1.66879E-01
      21    -1     0     0   502   501  0.000000000E+00  0.000000000E+00  2.572413283E+02  2.572413283E+02  0.000000000E+00  0.00000E+00  9.000E+00
      21    -1     0     0   501   512  0.000000000E+00  0.000000000E+00 -2.447222620E+02  2.447222620E+02  0.000000000E+00  0.00000E+00  9.000E+00
      25     1     1     2     0     0 -9.697056820E+01 -9.950081301E+01 -9.325828715E+01  2.088679272E+02  1.250000000E+02  0.00000E+00  9.000E+00
      25     1     1     2     0     0  1.025004395E+02  8.057364319E+01  1.563021480E+02  2.388594012E+02  1.250000000E+02  0.00000E+00  9.000E+00
      21     1     1     2   502   512 -5.529871254E+00  1.892716982E+01 -5.052479462E+01  5.423626190E+01  9.536743164E-07  0.00000E+00  9.000E+00
#rwgt            1           1   4.0640732436146659E-002          10      507224           0
</event>
<event>
      5   9999  3.79277E-02  1.11357E+02 -1.00000E+00  1.21763E-01
      21    -1     0     0   502   501  0.000000000E+00  0.000000000E+00  3.290029249E+02  3.290029249E+02  0.000000000E+00  0.00000E+00  9.000E+00
      21    -1     0     0   511   502  0.000000000E+00  0.000000000E+00 -2.921399693E+02  2.921399693E+02  0.000000000E+00  0.00000E+00  9.000E+00
      25     1     1     2     0     0 -7.685893690E+01  7.673570395E+01  4.776255111E+01  1.723424664E+02  1.250000000E+02  0.00000E+00  9.000E+00
      25     1     1     2     0     0  9.686580986E+01 -1.862805512E+02  1.238867885E+02  2.739641678E+02  1.250000000E+02  0.00000E+00  9.000E+00
      21     1     1     2   511   501 -2.000687296E+01  1.095448472E+02 -1.347863840E+02  1.748362600E+02  2.697398305E-06  0.00000E+00  9.000E+00
#rwgt            1           1   2.9107117597721721E-002          10      507417           0
</event>
<event>
      5   9999  3.79277E-02  8.50339E+01 -1.00000E+00  1.27080E-01
      21    -1     0     0   502   512  0.000000000E+00  0.000000000E+00  2.584599734E+03  2.584599734E+03  0.000000000E+00  0.00000E+00  9.000E+00
      21    -1     0     0   501   502  0.000000000E+00  0.000000000E+00 -1.253992078E+02  1.253992078E+02  0.000000000E+00  0.00000E+00  9.000E+00
      25     1     1     2     0     0  1.921388917E+02 -2.373826319E+02  1.983327954E+02  3.850048900E+02  1.250000000E+02  0.00000E+00  9.000E+00
      25     1     1     2     0     0 -2.427420829E+02  3.057206023E+02  1.368068721E+03  1.428154694E+03  1.250000000E+02  0.00000E+00  9.000E+00
      21     1     1     2   501   512  5.060319125E+01 -6.833797041E+01  8.927990096E+02  8.968393572E+02  1.525878906E-05  0.00000E+00  9.000E+00
#rwgt            1           1  0.14017009571013930               10      507473           0
</event>
<event>
      5   9999  3.79277E-02  3.04114E+02 -1.00000E+00  1.05400E-01
      21    -1     0     0   502   511  0.000000000E+00  0.000000000E+00  1.449033392E+03  1.449033392E+03  0.000000000E+00  0.00000E+00  9.000E+00
      21    -1     0     0   501   502  0.000000000E+00  0.000000000E+00 -2.750998956E+02  2.750998956E+02  0.000000000E+00  0.00000E+00  9.000E+00
      25     1     1     2     0     0 -9.828611733E+00 -2.854530476E+02  2.454837857E+02  3.968215380E+02  1.250000000E+02  0.00000E+00  9.000E+00
      25     1     1     2     0     0 -3.938423822E+01 -1.465297316E+01 -1.541188304E+02  2.028384621E+02  1.250000000E+02  0.00000E+00  9.000E+00
      21     1     1     2   501   511  4.921284995E+01  3.001060207E+02  1.082568542E+03  1.124473288E+03  0.000000000E+00  0.00000E+00  9.000E+00
#rwgt            2          11   9.1237411833180169E-004          10      507673           0
</event>
<event>
      5   9999  3.79277E-02  5.44213E+01 -1.00000E+00  1.37008E-01
      21    -1     0     0   502   501  0.000000000E+00  0.000000000E+00  7.129323751E+02  7.129323751E+02  0.000000000E+00  0.00000E+00  9.000E+00
      21    -1     0     0   512   502  0.000000000E+00  0.000000000E+00 -1.802155874E+02  1.802155874E+02  0.000000000E+00  0.00000E+00  9.000E+00
      25     1     1     2     0     0  1.042775435E+02  1.358586949E+02 -1.845689673E+00  2.120372552E+02  1.250000000E+02  0.00000E+00  9.000E+00
      25     1     1     2     0     0 -6.779564323E+01 -9.547616025E+01  5.833788446E+02  6.080031437E+02  1.250000000E+02  0.00000E+00  9.000E+00
      21     1     1     2   512   501 -3.648190022E+01 -4.038253460E+01 -4.881636721E+01  7.310756358E+01  1.168007728E-06  0.00000E+00  9.000E+00
#rwgt            1           1   3.9401135164821466E-002          10      507723           0
</event>
<event>
      5   9999  3.79277E-02  1.30030E+02 -1.00000E+00  1.18907E-01
      21    -1     0     0   502   501  0.000000000E+00  0.000000000E+00  6.139300038E+02  6.139300038E+02  0.000000000E+00  0.00000E+00  9.000E+00
       1    -1     0     0   501     0  0.000000000E+00  0.000000000E+00 -6.787651390E+02  6.787651390E+02  0.000000000E+00  0.00000E+00  9.000E+00
      25     1     1     2     0     0  3.810324974E+01 -1.858331694E+02  2.469340229E+02  3.355402154E+02  1.250000000E+02  0.00000E+00  9.000E+00
      25     1     1     2     0     0  8.498171044E+01  1.439055612E+02  2.811504413E+02  3.501446448E+02  1.250000000E+02  0.00000E+00  9.000E+00
       1     1     1     2   502     0 -1.230849602E+02  4.192760812E+01 -5.929195994E+02  6.070102825E+02  1.078959322E-05  0.00000E+00  9.000E+00
#rwgt            1           1   4.6017953841381423E-002          10      507844           0
</event>
<event>
      5   9999  3.79277E-02  3.78329E+01 -1.00000E+00  1.46357E-01
      21    -1     0     0   511   501  0.000000000E+00  0.000000000E+00  7.679448338E+02  7.679448338E+02  0.000000000E+00  0.00000E+00  9.000E+00
      21    -1     0     0   501   502  0.000000000E+00  0.000000000E+00 -1.862585216E+02  1.862585216E+02  0.000000000E+00  0.00000E+00  9.000E+00
      25     1     1     2     0     0  2.945348182E+01 -8.723263627E+01 -1.211514813E+02  1.969256759E+02  1.250000000E+02  0.00000E+00  9.000E+00
      25     1     1     2     0     0  8.258320772E+00  9.025755764E+01  1.982909831E+02  2.513144257E+02  1.250000000E+02  0.00000E+00  9.000E+00
      21     1     1     2   511   502 -3.771180259E+01 -3.024921372E+00  5.045468105E+02  5.059632537E+02  5.394796609E-06  0.00000E+00  9.000E+00
#rwgt            1           1   4.5077129664822919E-002          10      507907           0
</event>
<event>
      5   9999  3.79277E-02  1.05163E+02 -1.00000E+00  1.22853E-01
      21    -1     0     0   502   501  0.000000000E+00  0.000000000E+00  1.839565691E+02  1.839565691E+02  0.000000000E+00  0.00000E+00  9.000E+00
      21    -1     0     0   512   502  0.000000000E+00  0.000000000E+00 -4.935323916E+02  4.935323916E+02  0.000000000E+00  0.00000E+00  9.000E+00
      25     1     1     2     0     0  1.496259725E+02  6.634552914E-01 -8.784153767E+01  2.138445874E+02  1.250000000E+02  0.00000E+00  9.000E+00
      25     1     1     2     0     0 -9.926823580E+01  9.165813538E+01  3.395632966E+01  1.871721901E+02  1.250000000E+02  0.00000E+00  9.000E+00
      21     1     1     2   512   501 -5.035773667E+01 -9.232159067E+01 -2.556906145E+02  2.764721832E+02  0.000000000E+00  0.00000E+00  9.000E+00
#rwgt            1           1   3.1701702532899827E-002          10      508070           0
</event>
<event>
      5   9999 -3.79277E-02  1.22613E+01 -1.00000E+00  1.86050E-01
      21    -1     0     0   511   501  0.000000000E+00  0.000000000E+00  6.134955797E+02  6.134955797E+02  0.000000000E+00  0.00000E+00  9.000E+00
      21    -1     0     0   501   502  0.000000000E+00  0.000000000E+00 -6.807537834E+02  6.807537834E+02  0.000000000E+00  0.00000E+00  9.000E+00
      25     1     1     2     0     0 -1.024699631E+02  6.520672228E+01 -3.165881302E+02  3.613932127E+02  1.250000000E+02  0.00000E+00  9.000E+00
      25     1     1     2     0     0  9.032579423E+01 -6.689757394E+01 -3.210217284E+02  3.623727150E+02  1.250000000E+02  0.00000E+00  9.000E+00
      21     1     1     2   511   502  1.214416890E+01  1.690851658E+00  5.703516549E+02  5.704834354E+02  7.629394531E-06  0.00000E+00  9.000E+00
#rwgt            1           1  -3.8357212747028101E-002          10      508131           0
</event>
<event>
      5   9999  3.79277E-02  9.69039E+01 -1.00000E+00  1.24445E-01
      21    -1     0     0   502   512  0.000000000E+00  0.000000000E+00  1.166872671E+02  1.166872671E+02  0.000000000E+00  0.00000E+00  9.000E+00
      21    -1     0     0   501   502  0.000000000E+00  0.000000000E+00 -7.593684722E+02  7.593684722E+02  0.000000000E+00  0.00000E+00  9.000E+00
      25     1     1     2     0     0 -1.527217911E+02  1.604584652E+02 -3.633235007E+02  4.435085464E+02  1.250000000E+02  0.00000E+00  9.000E+00
      25     1     1     2     0     0  6.074708532E+01 -1.299458099E+02 -2.764526465E+02  3.355997433E+02  1.250000000E+02  0.00000E+00  9.000E+00
      21     1     1     2   501   512  9.197470581E+01 -3.051265528E+01 -2.905057818E+00  9.694744969E+01  6.377975511E-07  0.00000E+00  9.000E+00
#rwgt            1           1   3.2978974251942017E-002          10      508428           0
</event>
<event>
      5   9999  3.79277E-02  1.39655E+02 -1.00000E+00  1.17637E-01
      21    -1     0     0   502   511  0.000000000E+00  0.000000000E+00  1.327967258E+02  1.327967258E+02  0.000000000E+00  0.00000E+00  9.000E+00
      21    -1     0     0   501   502  0.000000000E+00  0.000000000E+00 -5.244259821E+02  5.244259821E+02  0.000000000E+00  0.00000E+00  9.000E+00
      25     1     1     2     0     0  8.099011384E+01 -1.570326304E+02 -2.092972206E+02  3.010796773E+02  1.250000000E+02  0.00000E+00  9.000E+00
      25     1     1     2     0     0  3.805378642E+01  8.401131040E+01 -1.427905833E+02  2.109979659E+02  1.250000000E+02  0.00000E+00  9.000E+00
      21     1     1     2   501   511 -1.190439003E+02  7.302132004E+01 -3.954145249E+01  1.451450648E+02  4.768371582E-07  0.00000E+00  9.000E+00
#rwgt            1           1  0.26242223113496915               10      508648           0
</event>
<event>
      5   9999  3.79277E-02  3.76351E+01 -1.00000E+00  1.46501E-01
      21    -1     0     0   502   512  0.000000000E+00  0.000000000E+00  6.935253174E+02  6.935253174E+02  0.000000000E+00  0.00000E+00  9.000E+00
      21    -1     0     0   501   502  0.000000000E+00  0.000000000E+00 -1.594300015E+02  1.594300015E+02  0.000000000E+00  0.00000E+00  9.000E+00
      25     1     1     2     0     0  8.488516760E+01  2.361038241E+02  1.810136655E+02  3.336786696E+02  1.250000000E+02  0.00000E+00  9.000E+00
      25     1     1     2     0     0 -1.140870816E+02 -2.598450651E+02  2.180178343E+02  3.790674031E+02  1.250000000E+02  0.00000E+00  9.000E+00
      21     1     1     2   501   512  2.920191403E+01  2.374124099E+01  1.350638161E+02  1.402092462E+02  0.000000000E+00  0.00000E+00  9.000E+00
#rwgt            1           1   4.1472146422885624E-002          10      508785           0
</event>
<event>
      5   9999  3.79277E-02  9.78201E+00 -1.00000E+00  1.96870E-01
      21    -1     0     0   511   501  0.000000000E+00  0.000000000E+00  2.068367934E+03  2.068367934E+03  0.000000000E+00  0.00000E+00  9.000E+00
      21    -1     0     0   501   502  0.000000000E+00  0.000000000E+00 -2.139483174E+01  2.139483174E+01  0.000000000E+00  0.00000E+00  9.000E+00
      25     1     1     2     0     0  6.336371904E+01  8.554790016E+01  3.932688510E+02  4.261675648E+02  1.250000000E+02  0.00000E+00  9.000E+00
      25     1     1     2     0     0 -7.066926154E+01 -9.205304130E+01  1.593335889E+03  1.602439441E+03  1.250000000E+02  0.00000E+00  9.000E+00
      21     1     1     2   511   502  7.305542496E+00  6.505141142E+00  6.036836234E+01  6.115576002E+01  9.536743164E-07  0.00000E+00  9.000E+00
#rwgt            1           1  0.13614285734897680               10      508925           0
</event>
<event>
      5   9999 -3.79277E-02  1.51793E+02 -1.00000E+00  1.16189E-01
      21    -1     0     0   502   501  0.000000000E+00  0.000000000E+00  3.647459225E+02  3.647459225E+02  0.000000000E+00  0.00000E+00  9.000E+00
       2    -1     0     0   501     0  0.000000000E+00  0.000000000E+00 -3.660495730E+02  3.660495730E+02  0.000000000E+00  0.00000E+00  9.000E+00
      25     1     1     2     0     0 -1.700541844E+02  3.843610923E+01  2.127009820E+02  3.020967856E+02  1.250000000E+02  0.00000E+00  9.000E+00
      25     1     1     2     0     0  6.984796222E+01  7.558033969E+01  5.283087414E+00  1.620001129E+02  1.250000000E+02  0.00000E+00  9.000E+00
       2     1     1     2   502     0  1.002062222E+02 -1.140164489E+02 -2.192877198E+02  2.666985970E+02  2.697398305E-06  0.00000E+00  9.000E+00
#rwgt            1           1  -6.4926324897996879E-002          10      509143           0
</event>
<event>
      5   9999  3.79277E-02  6.02008E+01 -1.00000E+00  1.34626E-01
      21    -1     0     0   502   511  0.000000000E+00  0.000000000E+00  8.448002339E+02  8.448002339E+02  0.000000000E+00  0.00000E+00  9.000E+00
      21    -1     0     0   501   502  0.000000000E+00  0.000000000E+00 -3.032647953E+02  3.032647953E+02  0.000000000E+00  0.00000E+00  9.000E+00
      25     1     1     2     0     0 -1.370982336E+02 -1.955540927E+02 -7.993851984E+01  2.811627568E+02  1.250000000E+02  0.00000E+00  9.000E+00
      25     1     1     2     0     0  1.053534593E+02  1.444032801E+02 -2.326581513E+01  2.193580563E+02  1.250000000E+02  0.00000E+00  9.000E+00
      21     1     1     2   501   511  3.174477434E+01  5.115081261E+01  6.447397735E+02  6.475442162E+02  0.000000000E+00  0.00000E+00  9.000E+00
#rwgt            1           1   2.9849026091265964E-002          10      509206           0
</event>
<event>
      5   9999  3.79277E-02  4.48117E+01 -1.00000E+00  1.41846E-01
      21    -1     0     0   502   501  0.000000000E+00  0.000000000E+00  4.178270019E+01  4.178270019E+01  0.000000000E+00  0.00000E+00  9.000E+00
       2    -1     0     0   501     0  0.000000000E+00  0.000000000E+00 -2.321546470E+03  2.321546470E+03  0.000000000E+00  0.00000E+00  9.000E+00
      25     1     1     2     0     0  1.843100967E+02 -6.931455615E+01 -5.719430730E+02  6.176719179E+02  1.250000000E+02  0.00000E+00  9.000E+00
      25     1     1     2     0     0 -1.418192445E+02  8.354902497E+01 -5.593745645E+02  5.963371874E+02  1.250000000E+02  0.00000E+00  9.000E+00
       2     1     1     2   502     0 -4.249085214E+01 -1.423446883E+01 -1.148446132E+03  1.149320065E+03  1.525878906E-05  0.00000E+00  9.000E+00
#rwgt            1           1  0.28588867436734056               10      509340           0
</event>
<event>
      5   9999  3.79277E-02  1.03407E+01 -1.00000E+00  1.94090E-01
      21    -1     0     0   502   501  0.000000000E+00  0.000000000E+00  6.789311266E+02  6.789311266E+02  0.000000000E+00  0.00000E+00  9.000E+00
      21    -1     0     0   501   511  0.000000000E+00  0.000000000E+00 -7.630291363E+01  7.630291363E+01  0.000000000E+00  0.00000E+00  9.000E+00
      25     1     1     2     0     0  9.717968462E+01  9.005425113E+01  5.112381065E+02  5.427182149E+02  1.250000000E+02  0.00000E+00  9.000E+00
      25     1     1     2     0     0 -8.916527886E+01 -9.658876475E+01  8.813751859E+01  2.016756272E+02  1.250000000E+02  0.00000E+00  9.000E+00
      21     1     1     2   502   511 -8.014405761E+00  6.534513615E+00  3.252587924E+00  1.084019816E+01  1.632340424E-07  0.00000E+00  9.000E+00
#rwgt            1           1   4.2451589315070135E-002          10      509460           0
</event>
<event>
      5   9999  3.79277E-02  1.32777E+02 -1.00000E+00  1.18532E-01
      21    -1     0     0   502   501  0.000000000E+00  0.000000000E+00  1.851388637E+02  1.851388637E+02  0.000000000E+00  0.00000E+00  9.000E+00
      21    -1     0     0   512   502  0.000000000E+00  0.000000000E+00 -6.739082782E+02  6.739082782E+02  0.000000000E+00  0.00000E+00  9.000E+00
      25     1     1     2     0     0  1.677569134E+02 -6.018452916E+01  2.590861686E+01  2.192277719E+02  1.250000000E+02  0.00000E+00  9.000E+00
      25     1     1     2     0     0 -4.617209403E+01  1.135408713E+02 -9.404593755E+01  1.987285337E+02  1.250000000E+02  0.00000E+00  9.000E+00
      21     1     1     2   512   501 -1.215848194E+02 -5.335634215E+01 -4.206320938E+02  4.410908363E+02  5.394796609E-06  0.00000E+00  9.000E+00
#rwgt            1           1   3.2853345298230988E-002          10      509829           0
</event>
<event>
      5   9999  3.79277E-02  4.68056E+01 -1.00000E+00  1.40731E-01
      21    -1     0     0   502   501  0.000000000E+00  0.000000000E+00  6.586209793E+02  6.586209793E+02  0.000000000E+00  0.00000E+00  9.000E+00
      21    -1     0     0   511   502  0.000000000E+00  0.000000000E+00 -8.268183521E+01  8.268183521E+01  0.000000000E+00  0.00000E+00  9.000E+00
      25     1     1     2     0     0  1.381800755E+02  8.757317879E+01  1.603494626E+02  2.609592785E+02  1.250000000E+02  0.00000E+00  9.000E+00
      25     1     1     2     0     0 -1.230010509E+02 -4.329720061E+01  3.825467616E+02  4.230495608E+02  1.250000000E+02  0.00000E+00  9.000E+00
      21     1     1     2   511   501 -1.517902461E+01 -4.427597818E+01  3.304291987E+01  5.729397512E+01  8.259061849E-07  0.00000E+00  9.000E+00
#rwgt            1           1   3.1830834648317936E-002          10      509904           0
</event>
<event>
      5   9999  3.79277E-02  4.13603E+01 -1.00000E+00  1.43945E-01
      21    -1     0     0   502   501  0.000000000E+00  0.000000000E+00  5.045352460E+02  5.045352460E+02  0.000000000E+00  0.00000E+00  9.000E+00
      -3    -1     0     0     0   502  0.000000000E+00  0.000000000E+00 -1.134271660E+02  1.134271660E+02  0.000000000E+00  0.00000E+00  9.000E+00
      25     1     1     2     0     0 -1.237578747E+02  5.356337882E+01  3.025198606E+02  3.540173911E+02  1.250000000E+02  0.00000E+00  9.000E+00
      25     1     1     2     0     0  1.335822968E+02 -9.373994449E+01  6.174143182E+01  2.146355320E+02  1.250000000E+02  0.00000E+00  9.000E+00
      -3     1     1     2     0   501 -9.824422027E+00  4.017656566E+01  2.684678756E+01  4.930948893E+01  5.840038640E-07  0.00000E+00  9.000E+00
#rwgt            1           1   5.0049672094966399E-002          10      509974           0
</event>
<event>
      5   9999  3.79277E-02  3.61780E+01 -1.00000E+00  1.47598E-01
      21    -1     0     0   502   501  0.000000000E+00  0.000000000E+00  5.529560948E+02  5.529560948E+02  0.000000000E+00  0.00000E+00  9.000E+00
      21    -1     0     0   501   511  0.000000000E+00  0.000000000E+00 -9.657160092E+01  9.657160092E+01  0.000000000E+00  0.00000E+00  9.000E+00
      25     1     1     2     0     0  1.508534186E+02 -6.312584839E+01  2.152374186E+02  2.978149980E+02  1.250000000E+02  0.00000E+00  9.000E+00
      25     1     1     2     0     0 -1.491002701E+02  9.926130474E+01  2.189401879E+02  3.092628381E+02  1.250000000E+02  0.00000E+00  9.000E+00
      21     1     1     2   502   511 -1.753148545E+00 -3.613545636E+01  2.220688734E+01  4.244985961E+01  8.596304120E-07  0.00000E+00  9.000E+00
#rwgt            1           1   2.6201755326043057E-002          10      510107           0
</event>
<event>
      5   9999  3.79277E-02  3.43538E+01 -1.00000E+00  1.49061E-01
      21    -1     0     0   512   501  0.000000000E+00  0.000000000E+00  3.151767065E+02  3.151767065E+02  0.000000000E+00  0.00000E+00  9.000E+00
      21    -1     0     0   501   502  0.000000000E+00  0.000000000E+00 -2.188618805E+02  2.188618805E+02  0.000000000E+00  0.00000E+00  9.000E+00
      25     1     1     2     0     0 -9.063309082E+01 -1.003994422E+02  1.969444698E+02  2.696414830E+02  1.250000000E+02  0.00000E+00  9.000E+00
      25     1     1     2     0     0  6.111835838E+01  1.179796126E+02 -1.259827770E+02  2.217009310E+02  1.250000000E+02  0.00000E+00  9.000E+00
      21     1     1     2   512   502  2.951473244E+01 -1.758017039E+01  2.535313325E+01  4.269617299E+01  6.743495762E-07  0.00000E+00  9.000E+00
#rwgt            1           1   4.6570005713783433E-002          10      510398           0
</event>
<event>
      5   9999 -3.79277E-02  4.87857E+01 -1.00000E+00  1.39687E-01
      21    -1     0     0   502   511  0.000000000E+00  0.000000000E+00  1.986144675E+03  1.986144675E+03  0.000000000E+00  0.00000E+00  9.000E+00
      21    -1     0     0   501   502  0.000000000E+00  0.000000000E+00 -1.345616664E+01  1.345616664E+01  0.000000000E+00  0.00000E+00  9.000E+00
      25     1     1     2     0     0 -6.116167995E+01  1.593971394E+01  7.527975094E+02  7.657179088E+02  1.250000000E+02  0.00000E+00  9.000E+00
      25     1     1     2     0     0  1.492847646E+01 -3.151332798E+01  7.186236075E+02  7.302471078E+02  1.250000000E+02  0.00000E+00  9.000E+00
      21     1     1     2   501   511  4.623320349E+01  1.557361404E+01  5.012673911E+02  5.036358248E+02  1.078959322E-05  0.00000E+00  9.000E+00
#rwgt            1           1  -2.2948812936854593E-002          10      510543           0
</event>
<event>
      5   9999  3.79277E-02  7.11419E+01 -1.00000E+00  1.30866E-01
      21    -1     0     0   502   501  0.000000000E+00  0.000000000E+00  6.592309917E+02  6.592309917E+02  0.000000000E+00  0.00000E+00  9.000E+00
      21    -1     0     0   512   502  0.000000000E+00  0.000000000E+00 -2.354131616E+02  2.354131616E+02  0.000000000E+00  0.00000E+00  9.000E+00
      25     1     1     2     0     0  9.215548030E+01 -1.081853234E+02 -1.010081177E+02  2.145328334E+02  1.250000000E+02  0.00000E+00  9.000E+00
      25     1     1     2     0     0 -2.125079154E+01  1.023804196E+02  5.719917615E+02  5.947545054E+02  1.250000000E+02  0.00000E+00  9.000E+00
      21     1     1     2   512   501 -7.090468876E+01  5.804903835E+00 -4.716581372E+01  8.535681449E+01  1.651812370E-06  0.00000E+00  9.000E+00
#rwgt            1           1   4.2572347385183909E-002          10      510672           0
</event>
<event>
      5   9999  3.79277E-02  9.91528E+01 -1.00000E+00  1.23994E-01
      21    -1     0     0   502   511  0.000000000E+00  0.000000000E+00  8.848476056E+02  8.848476056E+02  0.000000000E+00  0.00000E+00  9.000E+00
      21    -1     0     0   501   502  0.000000000E+00  0.000000000E+00 -4.300895480E+02  4.300895480E+02  0.000000000E+00  0.00000E+00  9.000E+00
      25     1     1     2     0     0 -1.442720437E+02  2.729605031E+02  2.175382046E+02  3.978312825E+02  1.250000000E+02  0.00000E+00  9.000E+00
      25     1     1     2     0     0  8.836487116E+01 -3.548486435E+02 -2.230963704E+02  4.462318912E+02  1.250000000E+02  0.00000E+00  9.000E+00
      21     1     1     2   501   511  5.590717258E+01  8.188814040E+01  4.603162234E+02  4.708739800E+02  5.394796609E-06  0.00000E+00  9.000E+00
#rwgt            1           1   3.7012480218118496E-002          10      510821           0
</event>
<event>
      5   9999  3.79277E-02  1.94591E+02 -1.00000E+00  1.12083E-01
       2    -1     0     0   502     0  0.000000000E+00  0.000000000E+00  4.247846023E+03  4.247846023E+03  0.000000000E+00  0.00000E+00  9.000E+00
      21    -1     0     0   501   502  0.000000000E+00  0.000000000E+00 -2.761376772E+02  2.761376772E+02  0.000000000E+00  0.00000E+00  9.000E+00
      25     1     1     2     0     0  2.283453457E+02 -1.090074372E+02 -1.193014065E+02  3.064017687E+02  1.250000000E+02  0.00000E+00  9.000E+00
      25     1     1     2     0     0 -1.460854540E+02 -6.734139252E+01  1.094268056E+02  2.312467271E+02  1.250000000E+02  0.00000E+00  9.000E+00
       2     1     1     2   501     0 -8.225989169E+01  1.763488297E+02  3.981582947E+03  3.986335204E+03  4.315837288E-05  0.00000E+00  9.000E+00
#rwgt            1           1   4.2276073202372103E-002          10      511027           0
</event>
<event>
      5   9999  3.79277E-02  1.86219E+01 -1.00000E+00  1.68969E-01
       2    -1     0     0   502     0  0.000000000E+00  0.000000000E+00  7.578643125E+02  7.578643125E+02  0.000000000E+00  0.00000E+00  9.000E+00
      21    -1     0     0   501   502  0.000000000E+00  0.000000000E+00 -3.068680541E+02  3.068680541E+02  0.000000000E+00  0.00000E+00  9.000E+00
      25     1     1     2     0     0 -3.075782435E+02 -7.621560869E+01  1.092412427E+02  3.577315250E+02  1.250000000E+02  0.00000E+00  9.000E+00
      25     1     1     2     0     0  3.098791517E+02  5.773643473E+01 -2.477679735E+01  3.399962857E+02  1.250000000E+02  0.00000E+00  9.000E+00
       2     1     1     2   501     0 -2.300908200E+00  1.847917396E+01  3.665318131E+02  3.670045559E+02  0.000000000E+00  0.00000E+00  9.000E+00
#rwgt            1           1   4.0296914181130329E-002          10      511086           0
</event>
<event>
      5   9999  3.79277E-02  9.07243E+01 -1.00000E+00  1.25760E-01
      21    -1     0     0   502   501  0.000000000E+00  0.000000000E+00  4.043168490E+02  4.043168490E+02  0.000000000E+00  0.00000E+00  9.000E+00
      21    -1     0     0   511   502  0.000000000E+00  0.000000000E+00 -1.881294494E+02  1.881294494E+02  0.000000000E+00  0.00000E+00  9.000E+00
      25     1     1     2     0     0 -1.739247136E+00  1.789534480E+02  6.531442819E+01  2.278559546E+02  1.250000000E+02  0.00000E+00  9.000E+00
      25     1     1     2     0     0 -3.868986134E+01 -9.773526541E+01  2.025398707E+02  2.601854852E+02  1.250000000E+02  0.00000E+00  9.000E+00
      21     1     1     2   511   501  4.042910848E+01 -8.121818259E+01 -5.166689933E+01  1.044048585E+02  1.348699152E-06  0.00000E+00  9.000E+00
#rwgt            1           1   5.1392470110883701E-002          10      511369           0
</event>
<event>
      5   9999  3.79277E-02  1.44092E+01 -1.00000E+00  1.79043E-01
      21    -1     0     0   502   512  0.000000000E+00  0.000000000E+00  2.512812023E+02  2.512812023E+02  0.000000000E+00  0.00000E+00  9.000E+00
      21    -1     0     0   501   502  0.000000000E+00  0.000000000E+00 -1.884649764E+02  1.884649764E+02  0.000000000E+00  0.00000E+00  9.000E+00
      25     1     1     2     0     0  1.526494189E+02 -3.962761715E+01 -2.672969437E-01  2.012393216E+02  1.250000000E+02  0.00000E+00  9.000E+00
      25     1     1     2     0     0 -1.639874206E+02  4.852007543E+01  4.712663086E+01  2.170068920E+02  1.250000000E+02  0.00000E+00  9.000E+00
      21     1     1     2   501   512  1.133800172E+01 -8.892458283E+00  1.595689204E+01  2.149996514E+01  2.384185791E-07  0.00000E+00  9.000E+00
#rwgt            1           1   3.5091350211350132E-002          10      511454           0
</event>
<event>
      5   9999  3.79277E-02  8.84831E+00 -1.00000E+00  2.02108E-01
      21    -1     0     0   511   501  0.000000000E+00  0.000000000E+00  1.894624788E+02  1.894624788E+02  0.000000000E+00  0.00000E+00  9.000E+00
      21    -1     0     0   501   502  0.000000000E+00  0.000000000E+00 -1.789900973E+02  1.789900973E+02  0.000000000E+00  0.00000E+00  9.000E+00
      25     1     1     2     0     0  7.965459433E+01  8.411817819E+01  7.362680582E+00  1.705870199E+02  1.250000000E+02  0.00000E+00  9.000E+00
      25     1     1     2     0     0 -8.843778806E+01 -8.304672402E+01 -1.785986153E+01  1.751056121E+02  1.250000000E+02  0.00000E+00  9.000E+00
      21     1     1     2   511   502  8.783193724E+00 -1.071454173E+00  2.096956243E+01  2.275994408E+01  0.000000000E+00  0.00000E+00  9.000E+00
#rwgt            1           1   3.5368650967926171E-002          10      511684           0
</event>
<event>
      5   9999  3.79277E-02  1.11299E+01 -1.00000E+00  1.90532E-01
      21    -1     0     0   512   501  0.000000000E+00  0.000000000E+00  4.200165462E+01  4.200165462E+01  0.000000000E+00  0.00000E+00  9.000E+00
      21    -1     0     0   501   502  0.000000000E+00  0.000000000E+00 -1.671990548E+03  1.671990548E+03  0.000000000E+00  0.00000E+00  9.000E+00
      25     1     1     2     0     0 -1.174734544E+02  1.163276585E+01 -1.394235077E+03  1.404795993E+03  1.250000000E+02  0.00000E+00  9.000E+00
      25     1     1     2     0     0  1.258800721E+02 -1.892689158E+01 -2.383919784E+02  2.977578800E+02  1.250000000E+02  0.00000E+00  9.000E+00
      21     1     1     2   512   502 -8.406617605E+00  7.294125728E+00  2.638161322E+00  1.143832964E+01  2.346637211E-07  0.00000E+00  9.000E+00
#rwgt            1           1   5.0929330421977219E-002          10      511961           0
</event>
<event>
      5   9999  3.79277E-02  6.03886E+01 -1.00000E+00  1.34554E-01
      21    -1     0     0   502   501  0.000000000E+00  0.000000000E+00  3.750666062E+02  3.750666062E+02  0.000000000E+00  0.00000E+00  9.000E+00
      21    -1     0     0   501   511  0.000000000E+00  0.000000000E+00 -1.223003536E+02  1.223003536E+02  0.000000000E+00  0.00000E+00  9.000E+00
      25     1     1     2     0     0  2.178541387E+01 -9.685630480E+00  2.467265193E+02  2.776101421E+02  1.250000000E+02  0.00000E+00  9.000E+00
      25     1     1     2     0     0 -6.532003100E+01  5.153682838E+01  3.280793066E+01  1.537013710E+02  1.250000000E+02  0.00000E+00  9.000E+00
      21     1     1     2   502   511  4.353461713E+01 -4.185119790E+01 -2.676819728E+01  6.605544671E+01  7.539457465E-07  0.00000E+00  9.000E+00
#rwgt            1           1   2.7897365343276723E-002          10      512386           0
</event>
<event>
      5   9999  3.79277E-02  1.10321E+02 -1.00000E+00  1.21939E-01
      21    -1     0     0   502   501  0.000000000E+00  0.000000000E+00  6.534010533E+01  6.534010533E+01  0.000000000E+00  0.00000E+00  9.000E+00
       2    -1     0     0   501     0  0.000000000E+00  0.000000000E+00 -1.235462185E+03  1.235462185E+03  0.000000000E+00  0.00000E+00  9.000E+00
      25     1     1     2     0     0 -2.428121627E+02  2.013680420E+01 -5.446006074E+02  6.095720292E+02  1.250000000E+02  0.00000E+00  9.000E+00
      25     1     1     2     0     0  1.325677895E+02 -2.424155651E+01 -3.876718532E+02  4.290411841E+02  1.250000000E+02  0.00000E+00  9.000E+00
       2     1     1     2   502     0  1.102443732E+02  4.104752307E+00 -2.378496192E+02  2.621890771E+02  0.000000000E+00  0.00000E+00  9.000E+00
#rwgt            1           1   3.1934215185837812E-002          10      512447           0
</event>
<event>
      5   9999  3.79277E-02  4.25681E+01 -1.00000E+00  1.43184E-01
      21    -1     0     0   502   501  0.000000000E+00  0.000000000E+00  1.111759486E+02  1.111759486E+02  0.000000000E+00  0.00000E+00  9.000E+00
      21    -1     0     0   501   511  0.000000000E+00  0.000000000E+00 -9.089491242E+02  9.089491242E+02  0.000000000E+00  0.00000E+00  9.000E+00
      25     1     1     2     0     0 -1.113177429E+02 -8.647151570E+01 -6.887111503E+02  7.140147137E+02  1.250000000E+02  0.00000E+00  9.000E+00
      25     1     1     2     0     0  1.158739603E+02  1.287950818E+02 -2.921283007E+01  2.156231370E+02  1.250000000E+02  0.00000E+00  9.000E+00
      21     1     1     2   502   511 -4.556217475E+00 -4.232356610E+01 -7.984919528E+01  9.048722204E+01  1.651812370E-06  0.00000E+00  9.000E+00
#rwgt            1           1   4.1576781810255710E-002          10      512511           0
</event>
<event>
      5   9999  3.79277E-02  2.08093E+01 -1.00000E+00  1.64960E-01
       1    -1     0     0   502     0  0.000000000E+00  0.000000000E+00  2.218321024E+03  2.218321024E+03  0.000000000E+00  0.00000E+00  9.000E+00
      21    -1     0     0   501   502  0.000000000E+00  0.000000000E+00 -8.680698073E+01  8.680698073E+01  0.000000000E+00  0.00000E+00  9.000E+00
      25     1     1     2     0     0  6.529967959E+01 -5.815243180E+01  5.756472668E+01  1.630473895E+02  1.250000000E+02  0.00000E+00  9.000E+00
      25     1     1     2     0     0 -8.603096900E+01  5.995266155E+01  1.616790027E+02  2.296970813E+02  1.250000000E+02  0.00000E+00  9.000E+00
       1     1     1     2   501     0  2.073128941E+01 -1.800229747E+00  1.912270314E+03  1.912383534E+03  2.157918644E-05  0.00000E+00  9.000E+00
#rwgt            1           1   3.3418210400125339E-002          10      512681           0
</event>
<event>
      5   9999  3.79277E-02  2.16590E+01 -1.00000E+00  1.63563E-01
      21    -1     0     0   502   511  0.000000000E+00  0.000000000E+00  1.408075683E+03  1.408075683E+03  0.000000000E+00  0.00000E+00  9.000E+00
      21    -1     0     0   501   502  0.000000000E+00  0.000000000E+00 -8.716284265E+01  8.716284265E+01  0.000000000E+00  0.00000E+00  9.000E+00
      25     1     1     2     0     0 -1.775381222E+02 -7.179167057E+01  1.998210977E+02  3.036894794E+02  1.250000000E+02  0.00000E+00  9.000E+00
      25     1     1     2     0     0  1.944210589E+02  5.822408508E+01  3.699063763E+02  4.400514963E+02  1.250000000E+02  0.00000E+00  9.000E+00
      21     1     1     2   501   511 -1.688293667E+01  1.356758550E+01  7.511853661E+02  7.514975497E+02  1.078959322E-05  0.00000E+00  9.000E+00
#rwgt            1           1   1.5338309255198773E-002          10      512825           0
</event>
</LesHouchesEvents>
 #Random number generator exit values:           10        513043             0
